/*--------------------------------*- C++ -*----------------------------------*\
  =========                 |
  \\      /  F ield         | OpenFOAM: The Open Source CFD Toolbox
   \\    /   O peration     | Website:  https://openfoam.org
    \\  /    A nd           | Version:  7
     \\/     M anipulation  |
\*---------------------------------------------------------------------------*/
FoamFile
{
    version     2.0;
    format      ascii;
    class       volScalarField;
    location    "0.00015";
    object      p;
}
// * * * * * * * * * * * * * * * * * * * * * * * * * * * * * * * * * * * * * //

dimensions      [1 -1 -2 0 0 0 0];

internalField   nonuniform List<scalar> 
125
(
103034
103034
103034
103033
103033
103033
103033
103033
103033
103033
103033
103033
103033
103032
103032
103032
103032
103032
103032
103032
103032
103032
103032
103031
103031
103031
103031
103031
103030
103029
103027
103024
103022
103019
103017
103015
103014
103013
103012
103011
103010
103010
103009
103009
103008
103008
103008
103007
103007
103007
103006
103006
103006
103006
103006
103005
103005
103005
103005
103005
103005
103005
103004
103004
103004
103004
103004
103004
103004
103004
103004
103004
103003
103003
103003
103003
103003
103003
103003
103003
103003
103003
103003
103003
103002
103002
103002
103002
103002
103002
103002
103002
103002
103002
103002
103002
103002
103002
103002
103001
103001
103001
103001
103001
103001
103001
103001
103001
103001
103001
103001
103001
103001
103001
103000
103000
103000
103000
103000
103000
103000
103000
103000
103000
103000
)
;

boundaryField
{
    boundary
    {
        type            empty;
    }
    inlet
    {
        type            zeroGradient;
    }
    outlet
    {
        type            waveTransmissive;
        gamma           1.4;
        value           nonuniform 0();
    }
    procBoundary1to0
    {
        type            processor;
        value           uniform 103000;
    }
    procBoundary1to3
    {
        type            processor;
        value           uniform 103034;
    }
}


// ************************************************************************* //
