/*--------------------------------*- C++ -*----------------------------------*\
  =========                 |
  \\      /  F ield         | OpenFOAM: The Open Source CFD Toolbox
   \\    /   O peration     | Website:  https://openfoam.org
    \\  /    A nd           | Version:  7
     \\/     M anipulation  |
\*---------------------------------------------------------------------------*/
FoamFile
{
    version     2.0;
    format      ascii;
    class       volVectorField;
    location    "0.00015";
    object      U;
}
// * * * * * * * * * * * * * * * * * * * * * * * * * * * * * * * * * * * * * //

dimensions      [0 1 -1 0 0 0 0];

internalField   nonuniform List<vector> 
125
(
(2.25888 0 0)
(2.25857 0 0)
(2.25826 0 0)
(2.25792 0 0)
(2.25758 0 0)
(2.25724 0 0)
(2.2569 0 0)
(2.25656 0 0)
(2.25622 0 0)
(2.25588 0 0)
(2.25553 0 0)
(2.25519 0 0)
(2.25484 0 0)
(2.25449 0 0)
(2.25413 0 0)
(2.25378 0 0)
(2.25342 0 0)
(2.25306 0 0)
(2.25269 0 0)
(2.25235 0 0)
(2.25202 0 0)
(2.252 0 0)
(2.25276 0 0)
(2.25624 0 0)
(2.26782 0 0)
(2.30073 0 0)
(2.38374 0 0)
(2.57916 0 0)
(3.00031 0 0)
(3.82491 0 0)
(4.97426 0 0)
(6.21549 0 0)
(7.37595 0 0)
(8.40101 0 0)
(9.27902 0 0)
(10.0079 0 0)
(10.609 0 0)
(11.1079 0 0)
(11.5118 0 0)
(11.8331 0 0)
(12.0972 0 0)
(12.3241 0 0)
(12.5232 0 0)
(12.6995 0 0)
(12.857 0 0)
(12.9989 0 0)
(13.1277 0 0)
(13.2455 0 0)
(13.3538 0 0)
(13.4538 0 0)
(13.5465 0 0)
(13.6328 0 0)
(13.7134 0 0)
(13.7889 0 0)
(13.8599 0 0)
(13.9266 0 0)
(13.9897 0 0)
(14.0492 0 0)
(14.1057 0 0)
(14.1592 0 0)
(14.2101 0 0)
(14.2572 0 0)
(14.3012 0 0)
(14.3437 0 0)
(14.3847 0 0)
(14.4243 0 0)
(14.4625 0 0)
(14.4995 0 0)
(14.5354 0 0)
(14.5702 0 0)
(14.604 0 0)
(14.6368 0 0)
(14.6687 0 0)
(14.6998 0 0)
(14.7301 0 0)
(14.7595 0 0)
(14.7882 0 0)
(14.8161 0 0)
(14.8433 0 0)
(14.8696 0 0)
(14.8952 0 0)
(14.9199 0 0)
(14.9439 0 0)
(14.9669 0 0)
(14.989 0 0)
(15.0102 0 0)
(15.0304 0 0)
(15.0496 0 0)
(15.0677 0 0)
(15.0848 0 0)
(15.1007 0 0)
(15.1155 0 0)
(15.1291 0 0)
(15.1416 0 0)
(15.1529 0 0)
(15.163 0 0)
(15.1719 0 0)
(15.1797 0 0)
(15.1864 0 0)
(15.192 0 0)
(15.1965 0 0)
(15.2001 0 0)
(15.2028 0 0)
(15.2046 0 0)
(15.2057 0 0)
(15.206 0 0)
(15.2057 0 0)
(15.2049 0 0)
(15.2036 0 0)
(15.2019 0 0)
(15.1998 0 0)
(15.1976 0 0)
(15.1951 0 0)
(15.1926 0 0)
(15.19 0 0)
(15.1875 0 0)
(15.1849 0 0)
(15.1825 0 0)
(15.1803 0 0)
(15.1782 0 0)
(15.1764 0 0)
(15.1748 0 0)
(15.1736 0 0)
(15.1728 0 0)
(15.1722 0 0)
)
;

boundaryField
{
    boundary
    {
        type            empty;
    }
    inlet
    {
        type            fixedValue;
        value           nonuniform 0();
    }
    outlet
    {
        type            zeroGradient;
    }
    procBoundary1to0
    {
        type            processor;
        value           uniform (15.1716 0 0);
    }
    procBoundary1to3
    {
        type            processor;
        value           uniform (2.25922 0 0);
    }
}


// ************************************************************************* //
