/*--------------------------------*- C++ -*----------------------------------*\
  =========                 |
  \\      /  F ield         | OpenFOAM: The Open Source CFD Toolbox
   \\    /   O peration     | Website:  https://openfoam.org
    \\  /    A nd           | Version:  7
     \\/     M anipulation  |
\*---------------------------------------------------------------------------*/
FoamFile
{
    version     2.0;
    format      ascii;
    class       volScalarField;
    location    "0.00049";
    object      HO2;
}
// * * * * * * * * * * * * * * * * * * * * * * * * * * * * * * * * * * * * * //

dimensions      [0 0 0 0 0 0 0];

internalField   nonuniform List<scalar> 
124
(
2.80142e-06
2.78499e-06
2.7689e-06
2.75312e-06
2.73765e-06
2.72248e-06
2.70758e-06
2.69297e-06
2.67861e-06
2.66451e-06
2.65065e-06
2.63702e-06
2.62361e-06
2.61042e-06
2.59743e-06
2.58463e-06
2.57201e-06
2.55956e-06
2.54728e-06
2.53515e-06
2.52315e-06
2.51129e-06
2.49955e-06
2.48792e-06
2.47638e-06
2.4649e-06
2.4535e-06
2.44262e-06
2.42789e-06
2.4169e-06
2.40581e-06
2.39461e-06
2.38331e-06
2.37192e-06
2.36043e-06
2.34884e-06
2.33713e-06
2.3253e-06
2.31332e-06
2.30119e-06
2.28889e-06
2.27641e-06
2.26373e-06
2.25083e-06
2.23772e-06
2.22436e-06
2.21076e-06
2.1969e-06
2.18276e-06
2.16835e-06
2.15365e-06
2.13866e-06
2.12338e-06
2.1078e-06
2.09193e-06
2.07578e-06
2.05933e-06
2.04262e-06
2.02564e-06
2.00841e-06
1.99094e-06
1.97327e-06
1.95541e-06
1.93738e-06
1.91922e-06
1.90096e-06
1.88262e-06
1.86425e-06
1.84588e-06
1.82755e-06
1.8093e-06
1.79119e-06
1.77324e-06
1.75552e-06
1.73806e-06
1.72091e-06
1.70412e-06
1.68774e-06
1.67181e-06
1.65638e-06
1.64149e-06
1.62718e-06
1.61349e-06
1.60047e-06
1.58815e-06
1.57656e-06
1.56573e-06
1.55568e-06
1.54645e-06
1.53804e-06
1.53047e-06
1.52375e-06
1.51789e-06
1.51289e-06
1.50874e-06
1.50544e-06
1.50297e-06
1.50131e-06
1.50045e-06
1.50036e-06
1.50101e-06
1.50236e-06
1.50438e-06
1.50704e-06
1.51028e-06
1.51406e-06
1.51835e-06
1.52308e-06
1.52822e-06
1.53371e-06
1.5395e-06
1.54556e-06
1.55182e-06
1.55824e-06
1.56477e-06
1.57138e-06
1.578e-06
1.5846e-06
1.59111e-06
1.59747e-06
1.60357e-06
1.60922e-06
1.61407e-06
1.61735e-06
)
;

boundaryField
{
    boundary
    {
        type            empty;
    }
    inlet
    {
        type            fixedValue;
        value           nonuniform 0();
    }
    outlet
    {
        type            zeroGradient;
    }
    procBoundary0to1
    {
        type            processor;
        value           uniform 2.81822e-06;
    }
}


// ************************************************************************* //
