/*--------------------------------*- C++ -*----------------------------------*\
  =========                 |
  \\      /  F ield         | OpenFOAM: The Open Source CFD Toolbox
   \\    /   O peration     | Website:  https://openfoam.org
    \\  /    A nd           | Version:  7
     \\/     M anipulation  |
\*---------------------------------------------------------------------------*/
FoamFile
{
    version     2.0;
    format      ascii;
    class       volScalarField;
    location    "0.00023";
    object      HO2;
}
// * * * * * * * * * * * * * * * * * * * * * * * * * * * * * * * * * * * * * //

dimensions      [0 0 0 0 0 0 0];

internalField   nonuniform List<scalar> 
124
(
1.92087e-06
1.89275e-06
1.86639e-06
1.84181e-06
1.81903e-06
1.79805e-06
1.77886e-06
1.76144e-06
1.74576e-06
1.73177e-06
1.71941e-06
1.70862e-06
1.69932e-06
1.69142e-06
1.68482e-06
1.67944e-06
1.67517e-06
1.67191e-06
1.66954e-06
1.66798e-06
1.66712e-06
1.66686e-06
1.66712e-06
1.6678e-06
1.66883e-06
1.67014e-06
1.67166e-06
1.67334e-06
1.67514e-06
1.677e-06
1.67891e-06
1.68082e-06
1.68274e-06
1.68463e-06
1.6865e-06
1.68833e-06
1.69013e-06
1.69189e-06
1.69363e-06
1.69533e-06
1.69702e-06
1.69868e-06
1.70033e-06
1.70198e-06
1.70361e-06
1.70524e-06
1.70687e-06
1.7085e-06
1.71013e-06
1.71175e-06
1.71336e-06
1.71497e-06
1.71656e-06
1.71813e-06
1.71968e-06
1.72121e-06
1.7227e-06
1.72415e-06
1.72556e-06
1.72693e-06
1.72826e-06
1.72953e-06
1.73074e-06
1.7319e-06
1.73301e-06
1.73405e-06
1.73504e-06
1.73597e-06
1.73684e-06
1.73766e-06
1.73842e-06
1.73912e-06
1.73978e-06
1.74039e-06
1.74094e-06
1.74146e-06
1.74193e-06
1.74236e-06
1.74276e-06
1.74312e-06
1.74345e-06
1.74375e-06
1.74403e-06
1.74428e-06
1.7445e-06
1.74471e-06
1.7449e-06
1.74507e-06
1.74522e-06
1.74536e-06
1.74549e-06
1.74561e-06
1.74572e-06
1.74582e-06
1.74592e-06
1.746e-06
1.74608e-06
1.74616e-06
1.74623e-06
1.7463e-06
1.74636e-06
1.74642e-06
1.74648e-06
1.74653e-06
1.74659e-06
1.74664e-06
1.74669e-06
1.74673e-06
1.74678e-06
1.74682e-06
1.74687e-06
1.74691e-06
1.74695e-06
1.74699e-06
1.74703e-06
1.74707e-06
1.74711e-06
1.74715e-06
1.74719e-06
1.74722e-06
1.74726e-06
1.74729e-06
1.74732e-06
1.74734e-06
)
;

boundaryField
{
    boundary
    {
        type            empty;
    }
    inlet
    {
        type            fixedValue;
        value           nonuniform 0();
    }
    outlet
    {
        type            zeroGradient;
    }
    procBoundary0to1
    {
        type            processor;
        value           uniform 1.95051e-06;
    }
}


// ************************************************************************* //
