/*--------------------------------*- C++ -*----------------------------------*\
  =========                 |
  \\      /  F ield         | OpenFOAM: The Open Source CFD Toolbox
   \\    /   O peration     | Website:  https://openfoam.org
    \\  /    A nd           | Version:  7
     \\/     M anipulation  |
\*---------------------------------------------------------------------------*/
FoamFile
{
    version     2.0;
    format      ascii;
    class       volScalarField;
    location    "0.00025";
    object      p;
}
// * * * * * * * * * * * * * * * * * * * * * * * * * * * * * * * * * * * * * //

dimensions      [1 -1 -2 0 0 0 0];

internalField   nonuniform List<scalar> 
124
(
103090
103090
103090
103090
103090
103090
103090
103090
103090
103090
103090
103090
103090
103090
103090
103090
103090
103090
103090
103090
103090
103090
103090
103090
103090
103090
103090
103090
103090
103090
103090
103090
103090
103090
103090
103090
103089
103089
103089
103089
103089
103089
103089
103089
103089
103089
103089
103089
103089
103089
103089
103089
103089
103089
103089
103089
103089
103089
103089
103089
103089
103089
103089
103089
103089
103089
103089
103089
103089
103089
103089
103089
103089
103089
103088
103088
103088
103088
103088
103088
103088
103088
103088
103088
103088
103088
103088
103088
103088
103088
103088
103088
103088
103088
103088
103088
103088
103088
103088
103088
103088
103088
103088
103088
103088
103088
103087
103087
103087
103087
103087
103087
103087
103087
103087
103087
103087
103087
103087
103087
103087
103087
103087
103087
)
;

boundaryField
{
    boundary
    {
        type            empty;
    }
    inlet
    {
        type            zeroGradient;
    }
    outlet
    {
        type            waveTransmissive;
        gamma           1.4;
        value           uniform 103087;
    }
    procBoundary0to1
    {
        type            processor;
        value           uniform 103090;
    }
}


// ************************************************************************* //
