/*--------------------------------*- C++ -*----------------------------------*\
  =========                 |
  \\      /  F ield         | OpenFOAM: The Open Source CFD Toolbox
   \\    /   O peration     | Website:  https://openfoam.org
    \\  /    A nd           | Version:  7
     \\/     M anipulation  |
\*---------------------------------------------------------------------------*/
FoamFile
{
    version     2.0;
    format      ascii;
    class       volScalarField;
    location    "0.00095";
    object      H;
}
// * * * * * * * * * * * * * * * * * * * * * * * * * * * * * * * * * * * * * //

dimensions      [0 0 0 0 0 0 0];

internalField   nonuniform List<scalar> 
500
(
1.48574e-41
2.01272e-41
2.12674e-41
2.15182e-41
2.15775e-41
2.15954e-41
2.1604e-41
2.16101e-41
2.1615e-41
2.16189e-41
2.16217e-41
2.16231e-41
2.1623e-41
2.16211e-41
2.16171e-41
2.16108e-41
2.16022e-41
2.15911e-41
2.15777e-41
2.15621e-41
2.15446e-41
2.15256e-41
2.15055e-41
2.1485e-41
2.14645e-41
2.14448e-41
2.14265e-41
2.14101e-41
2.13964e-41
2.13857e-41
2.13786e-41
2.13756e-41
2.13771e-41
2.13833e-41
2.13947e-41
2.14114e-41
2.14339e-41
2.14625e-41
2.14976e-41
2.15395e-41
2.15887e-41
2.16459e-41
2.17117e-41
2.17867e-41
2.18718e-41
2.19678e-41
2.20756e-41
2.21963e-41
2.23306e-41
2.24797e-41
2.26444e-41
2.28256e-41
2.30241e-41
2.32405e-41
2.34754e-41
2.3729e-41
2.40017e-41
2.42931e-41
2.46031e-41
2.49311e-41
2.52761e-41
2.5637e-41
2.60123e-41
2.64005e-41
2.67994e-41
2.72069e-41
2.76207e-41
2.80381e-41
2.84566e-41
2.88734e-41
2.92857e-41
2.96911e-41
3.00868e-41
3.04706e-41
3.08403e-41
3.11939e-41
3.153e-41
3.18471e-41
3.21443e-41
3.2421e-41
3.26768e-41
3.29117e-41
3.31259e-41
3.33201e-41
3.34949e-41
3.36512e-41
3.37901e-41
3.39126e-41
3.40202e-41
3.41139e-41
3.41951e-41
3.4265e-41
3.43248e-41
3.43757e-41
3.44188e-41
3.4455e-41
3.44852e-41
3.45104e-41
3.45312e-41
3.45483e-41
3.45623e-41
3.45737e-41
3.45829e-41
3.45904e-41
3.45964e-41
3.46012e-41
3.46051e-41
3.46082e-41
3.46107e-41
3.46127e-41
3.46143e-41
3.46156e-41
3.46167e-41
3.46176e-41
3.46184e-41
3.46191e-41
3.46197e-41
3.46203e-41
3.46209e-41
3.46214e-41
3.46219e-41
3.46224e-41
3.46229e-41
3.46233e-41
3.46238e-41
3.46243e-41
3.46244e-41
3.46247e-41
3.46252e-41
3.46259e-41
3.46267e-41
3.46275e-41
3.46285e-41
3.46295e-41
3.46306e-41
3.46318e-41
3.46331e-41
3.46344e-41
3.46359e-41
3.46374e-41
3.4639e-41
3.46406e-41
3.46422e-41
3.46439e-41
3.46455e-41
3.46471e-41
3.46486e-41
3.46501e-41
3.46515e-41
3.46528e-41
3.46541e-41
3.46553e-41
3.46564e-41
3.46576e-41
3.46587e-41
3.46597e-41
3.46609e-41
3.4662e-41
3.46632e-41
3.46644e-41
3.46658e-41
3.46672e-41
3.46686e-41
3.46702e-41
3.46718e-41
3.46735e-41
3.46753e-41
3.46772e-41
3.46791e-41
3.4681e-41
3.4683e-41
3.46851e-41
3.46872e-41
3.46893e-41
3.46914e-41
3.46936e-41
3.46958e-41
3.4698e-41
3.47003e-41
3.47025e-41
3.47048e-41
3.47071e-41
3.47094e-41
3.47118e-41
3.47141e-41
3.47165e-41
3.47189e-41
3.47213e-41
3.47237e-41
3.47262e-41
3.47286e-41
3.4731e-41
3.47334e-41
3.47359e-41
3.47383e-41
3.47406e-41
3.4743e-41
3.47453e-41
3.47476e-41
3.47498e-41
3.4752e-41
3.47541e-41
3.47562e-41
3.47582e-41
3.47601e-41
3.4762e-41
3.4764e-41
3.47664e-41
3.47706e-41
3.47806e-41
3.48091e-41
3.48961e-41
3.51678e-41
3.60189e-41
3.8685e-41
4.70229e-41
7.30513e-41
1.54159e-40
4.06476e-40
1.19019e-39
3.621e-39
1.11507e-38
3.44472e-38
1.06447e-37
3.28752e-37
1.01452e-36
3.12826e-36
9.63864e-36
2.96771e-35
9.1315e-35
2.80802e-34
8.63007e-34
2.65095e-33
8.13914e-33
2.49785e-32
7.66288e-32
2.35012e-31
7.20628e-31
2.2097e-30
6.77747e-30
2.08009e-29
6.39172e-29
1.96804e-28
6.07917e-28
1.88706e-27
5.9005e-27
1.86451e-26
5.97954e-26
1.95657e-25
6.57164e-25
2.27955e-24
8.25095e-24
3.09678e-23
1.20757e-22
4.88277e-22
2.03739e-21
8.72217e-21
3.81013e-20
1.69073e-19
7.5974e-19
3.45115e-18
1.58441e-17
7.36134e-17
3.47179e-16
1.6703e-15
8.25282e-15
4.22129e-14
2.25289e-13
1.31908e-12
9.28225e-12
8.1718e-11
7.66666e-10
7.18033e-09
6.68138e-08
5.96879e-07
4.73292e-06
2.924e-05
0.000119322
0.000307398
0.000583888
0.000926032
0.00128656
0.00159481
0.00180141
0.00190631
0.00192562
0.00189415
0.00183492
0.00176296
0.00168719
0.00161249
0.0015413
0.00147469
0.00141294
0.00135593
0.00130337
0.00125489
0.0012101
0.00116862
0.00113012
0.00109429
0.00106086
0.0010296
0.0010003
0.000972771
0.000946853
0.000922405
0.000899299
0.000877426
0.000856687
0.000836994
0.000818266
0.000800957
0.000784809
0.00076929
0.000754364
0.000739996
0.000726154
0.00071281
0.000699936
0.000687507
0.000675499
0.00066389
0.000652659
0.000641789
0.000631262
0.00062106
0.000611168
0.000601573
0.00059226
0.000583217
0.000574432
0.000565894
0.000557591
0.000549515
0.000541656
0.000534004
0.000526553
0.000519292
0.000512216
0.000505317
0.000498589
0.000492024
0.000485617
0.000479363
0.000473255
0.000467289
0.000461459
0.000455761
0.00045019
0.000444742
0.000439414
0.0004342
0.000429098
0.000424103
0.000419213
0.000414424
0.000409732
0.000405136
0.000400632
0.000396217
0.000391889
0.000387645
0.000383483
0.0003794
0.000375395
0.000371465
0.000367608
0.000363822
0.000360107
0.000356459
0.000352877
0.000349361
0.000345909
0.00034252
0.000339192
0.000335914
0.000332681
0.000329502
0.000326376
0.000323301
0.000320278
0.000317303
0.000314377
0.000311497
0.000308664
0.000305875
0.00030313
0.000300428
0.000297768
0.000295149
0.000292569
0.000290029
0.000287527
0.000285062
0.000282634
0.000280242
0.000277885
0.000275563
0.000273273
0.000271017
0.000268793
0.000266601
0.00026444
0.000262309
0.000260207
0.000258135
0.000256092
0.000254076
0.000252088
0.000250127
0.000248192
0.000246283
0.000244399
0.000242541
0.000240707
0.000238897
0.00023711
0.000235347
0.000233607
0.000231888
0.000230192
0.000228518
0.000226864
0.000225232
0.000223619
0.000222027
0.000220455
0.000218902
0.000217369
0.000215854
0.000214357
0.000212879
0.000211419
0.000209976
0.000208551
0.000207143
0.000205751
0.000204376
0.000203017
0.000201675
0.000200348
0.000199036
0.00019774
0.000196459
0.000195192
0.00019394
0.000192703
0.000191479
0.00019027
0.000189074
0.000187892
0.000186723
0.000185568
0.000184425
0.000183295
0.000182178
0.000181073
0.00017998
0.0001789
0.000177831
0.000176774
0.000175729
0.000174695
0.000173672
0.000172661
0.000171661
0.000170671
0.000169693
0.000168725
0.000167767
0.000166821
0.000165884
0.000164958
0.000164042
0.000163135
0.000162239
0.000161353
0.000160477
0.00015961
0.000158754
0.000157907
0.00015707
0.000156243
0.000155426
0.00015462
0.000153824
0.000153041
0.000152269
0.000151511
0.000150768
0.000150042
0.000149338
0.000148659
0.000148012
0.000147407
0.000146859
0.000146388
0.000146026
0.000145816
)
;

boundaryField
{
    boundary
    {
        type            empty;
    }
    inlet
    {
        type            fixedValue;
        value           uniform 0;
    }
    outlet
    {
        type            zeroGradient;
    }
}


// ************************************************************************* //
