/*--------------------------------*- C++ -*----------------------------------*\
  =========                 |
  \\      /  F ield         | OpenFOAM: The Open Source CFD Toolbox
   \\    /   O peration     | Website:  https://openfoam.org
    \\  /    A nd           | Version:  7
     \\/     M anipulation  |
\*---------------------------------------------------------------------------*/
FoamFile
{
    version     2.0;
    format      ascii;
    class       volScalarField;
    location    "0.00095";
    object      H2;
}
// * * * * * * * * * * * * * * * * * * * * * * * * * * * * * * * * * * * * * //

dimensions      [0 0 0 0 0 0 0];

internalField   nonuniform List<scalar> 
500
(
0.0285116
0.0285116
0.0285116
0.0285116
0.0285116
0.0285116
0.0285116
0.0285116
0.0285116
0.0285116
0.0285116
0.0285116
0.0285116
0.0285116
0.0285116
0.0285116
0.0285116
0.0285116
0.0285116
0.0285116
0.0285116
0.0285116
0.0285116
0.0285116
0.0285116
0.0285116
0.0285116
0.0285116
0.0285116
0.0285116
0.0285116
0.0285116
0.0285116
0.0285116
0.0285116
0.0285116
0.0285116
0.0285116
0.0285116
0.0285116
0.0285116
0.0285116
0.0285116
0.0285116
0.0285116
0.0285116
0.0285116
0.0285116
0.0285116
0.0285116
0.0285116
0.0285116
0.0285116
0.0285116
0.0285116
0.0285116
0.0285116
0.0285116
0.0285116
0.0285116
0.0285116
0.0285116
0.0285116
0.0285116
0.0285116
0.0285116
0.0285116
0.0285116
0.0285116
0.0285116
0.0285116
0.0285116
0.0285116
0.0285116
0.0285116
0.0285116
0.0285116
0.0285116
0.0285116
0.0285116
0.0285116
0.0285116
0.0285116
0.0285116
0.0285116
0.0285116
0.0285116
0.0285116
0.0285116
0.0285116
0.0285116
0.0285116
0.0285116
0.0285116
0.0285116
0.0285116
0.0285116
0.0285116
0.0285116
0.0285116
0.0285116
0.0285116
0.0285116
0.0285116
0.0285116
0.0285116
0.0285116
0.0285116
0.0285116
0.0285116
0.0285116
0.0285116
0.0285116
0.0285116
0.0285116
0.0285116
0.0285116
0.0285116
0.0285116
0.0285116
0.0285116
0.0285116
0.0285116
0.0285116
0.0285116
0.0285116
0.0285116
0.0285116
0.0285116
0.0285116
0.0285116
0.0285116
0.0285116
0.0285116
0.0285116
0.0285116
0.0285116
0.0285116
0.0285116
0.0285116
0.0285116
0.0285116
0.0285116
0.0285116
0.0285116
0.0285116
0.0285116
0.0285116
0.0285116
0.0285116
0.0285116
0.0285116
0.0285116
0.0285116
0.0285116
0.0285116
0.0285116
0.0285116
0.0285116
0.0285116
0.0285116
0.0285116
0.0285116
0.0285116
0.0285116
0.0285116
0.0285116
0.0285116
0.0285116
0.0285116
0.0285116
0.0285116
0.0285116
0.0285116
0.0285116
0.0285116
0.0285116
0.0285116
0.0285116
0.0285116
0.0285116
0.0285116
0.0285116
0.0285116
0.0285116
0.0285116
0.0285116
0.0285116
0.0285116
0.0285116
0.0285116
0.0285116
0.0285116
0.0285116
0.0285116
0.0285116
0.0285116
0.0285116
0.0285116
0.0285116
0.0285116
0.0285116
0.0285116
0.0285116
0.0285116
0.0285116
0.0285116
0.0285116
0.0285116
0.0285116
0.0285116
0.0285116
0.0285116
0.0285116
0.0285116
0.0285116
0.0285116
0.0285116
0.0285116
0.0285116
0.0285116
0.0285116
0.0285116
0.0285116
0.0285116
0.0285116
0.0285116
0.0285116
0.0285116
0.0285116
0.0285116
0.0285116
0.0285116
0.0285116
0.0285116
0.0285116
0.0285116
0.0285116
0.0285116
0.0285116
0.0285116
0.0285116
0.0285116
0.0285116
0.0285116
0.0285116
0.0285116
0.0285116
0.0285116
0.0285116
0.0285116
0.0285116
0.0285116
0.0285116
0.0285116
0.0285116
0.0285116
0.0285116
0.0285116
0.0285116
0.0285116
0.0285115
0.0285115
0.0285113
0.028511
0.0285104
0.0285091
0.0285063
0.0285007
0.0284888
0.0284641
0.0284126
0.0283059
0.0280873
0.0276523
0.0268408
0.0254829
0.0235135
0.0210734
0.0182996
0.0152816
0.0122552
0.0095924
0.00755295
0.00603777
0.00512663
0.00455759
0.00420697
0.00399027
0.0038537
0.00376434
0.00370248
0.0036565
0.00361961
0.00358791
0.00355916
0.00353209
0.00350602
0.00348058
0.00345557
0.00343092
0.00340659
0.00338257
0.00335889
0.00333555
0.00331257
0.00328995
0.00326772
0.00324588
0.00322442
0.00320336
0.00318268
0.00316301
0.00314415
0.00312557
0.00310727
0.00308923
0.00307146
0.00305395
0.00303669
0.00301968
0.00300291
0.00298637
0.00297007
0.00295398
0.00293812
0.00292247
0.00290702
0.00289178
0.00287674
0.00286189
0.00284723
0.00283276
0.00281847
0.00280435
0.00279041
0.00277664
0.00276303
0.00274959
0.00273632
0.0027232
0.00271023
0.00269742
0.00268476
0.00267225
0.00265988
0.00264766
0.00263557
0.00262362
0.00261181
0.00260014
0.00258859
0.00257717
0.00256588
0.00255471
0.00254366
0.00253274
0.00252193
0.00251124
0.00250066
0.00249019
0.00247983
0.00246958
0.00245944
0.0024494
0.00243947
0.00242963
0.0024199
0.00241026
0.00240072
0.00239128
0.00238194
0.00237268
0.00236353
0.00235446
0.0023455
0.00233659
0.00232772
0.00231893
0.00231022
0.00230159
0.00229303
0.00228455
0.00227614
0.0022678
0.00225953
0.00225134
0.00224321
0.00223515
0.00222716
0.00221923
0.00221137
0.00220358
0.00219584
0.00218817
0.00218056
0.00217302
0.00216553
0.0021581
0.00215074
0.00214343
0.00213618
0.00212899
0.00212185
0.00211478
0.00210775
0.00210079
0.00209388
0.00208703
0.00208023
0.00207348
0.00206679
0.00206015
0.00205357
0.00204704
0.00204056
0.00203413
0.00202775
0.00202143
0.00201515
0.00200893
0.00200275
0.00199663
0.00199055
0.00198452
0.00197854
0.00197261
0.00196672
0.00196088
0.00195509
0.00194934
0.00194363
0.00193797
0.00193236
0.00192678
0.00192125
0.00191576
0.00191031
0.00190491
0.00189954
0.00189422
0.00188893
0.00188368
0.00187848
0.0018733
0.00186817
0.00186308
0.00185802
0.001853
0.00184801
0.00184306
0.00183815
0.00183327
0.00182842
0.00182361
0.00181884
0.0018141
0.00180939
0.00180471
0.00180007
0.00179546
0.00179088
0.00178634
0.00178183
0.00177735
0.0017729
0.00176848
0.0017641
0.00175974
0.00175542
0.00175113
0.00174687
0.00174264
0.00173845
0.00173429
0.00173016
0.00172606
0.00172199
0.00171796
0.00171396
0.00171
0.00170607
0.00170218
0.00169833
0.00169452
0.00169076
0.00168704
0.00168338
0.00167978
0.00167625
0.0016728
0.00166945
0.00166623
0.00166316
0.00166029
0.00165766
0.00165534
0.00165342
0.00165199
0.00165119
)
;

boundaryField
{
    boundary
    {
        type            empty;
    }
    inlet
    {
        type            fixedValue;
        value           uniform 0.0285116;
    }
    outlet
    {
        type            zeroGradient;
    }
}


// ************************************************************************* //
