/*--------------------------------*- C++ -*----------------------------------*\
  =========                 |
  \\      /  F ield         | OpenFOAM: The Open Source CFD Toolbox
   \\    /   O peration     | Website:  https://openfoam.org
    \\  /    A nd           | Version:  7
     \\/     M anipulation  |
\*---------------------------------------------------------------------------*/
FoamFile
{
    version     2.0;
    format      ascii;
    class       volScalarField;
    location    "0.00095";
    object      HO2;
}
// * * * * * * * * * * * * * * * * * * * * * * * * * * * * * * * * * * * * * //

dimensions      [0 0 0 0 0 0 0];

internalField   nonuniform List<scalar> 
500
(
5.59294e-38
1.27299e-37
1.98953e-37
2.70685e-37
3.42445e-37
4.14218e-37
4.85993e-37
5.57763e-37
6.29517e-37
7.01241e-37
7.72918e-37
8.44526e-37
9.16042e-37
9.87442e-37
1.0587e-36
1.1298e-36
1.20073e-36
1.27147e-36
1.34202e-36
1.4124e-36
1.48263e-36
1.55274e-36
1.62277e-36
1.69278e-36
1.76281e-36
1.83295e-36
1.90324e-36
1.97377e-36
2.0446e-36
2.11578e-36
2.1874e-36
2.25949e-36
2.33213e-36
2.40537e-36
2.47927e-36
2.55389e-36
2.6293e-36
2.70558e-36
2.78284e-36
2.86116e-36
2.94068e-36
3.02154e-36
3.1039e-36
3.18793e-36
3.27382e-36
3.36178e-36
3.45202e-36
3.54475e-36
3.64018e-36
3.73852e-36
3.83994e-36
3.9446e-36
4.05261e-36
4.16405e-36
4.27894e-36
4.39723e-36
4.51883e-36
4.64353e-36
4.77109e-36
4.90118e-36
5.03338e-36
5.16722e-36
5.30214e-36
5.43756e-36
5.57282e-36
5.70724e-36
5.84014e-36
5.9708e-36
6.09855e-36
6.22272e-36
6.3427e-36
6.45792e-36
6.5679e-36
6.67221e-36
6.77052e-36
6.86258e-36
6.94823e-36
7.02741e-36
7.10012e-36
7.16645e-36
7.22657e-36
7.28071e-36
7.32913e-36
7.37216e-36
7.41015e-36
7.44347e-36
7.47251e-36
7.49765e-36
7.51927e-36
7.53776e-36
7.55345e-36
7.5667e-36
7.57782e-36
7.58708e-36
7.59476e-36
7.60108e-36
7.60626e-36
7.61047e-36
7.61388e-36
7.61663e-36
7.61883e-36
7.62058e-36
7.62198e-36
7.62308e-36
7.62395e-36
7.62463e-36
7.62517e-36
7.6256e-36
7.62593e-36
7.6262e-36
7.62642e-36
7.6266e-36
7.62675e-36
7.62688e-36
7.627e-36
7.6271e-36
7.6272e-36
7.6273e-36
7.62739e-36
7.62748e-36
7.62755e-36
7.62758e-36
7.6274e-36
7.62644e-36
7.62236e-36
7.61429e-36
7.6144e-36
7.61452e-36
7.61465e-36
7.61478e-36
7.61493e-36
7.61508e-36
7.61524e-36
7.61541e-36
7.61559e-36
7.61578e-36
7.61598e-36
7.61619e-36
7.61641e-36
7.61665e-36
7.61689e-36
7.61714e-36
7.6174e-36
7.61767e-36
7.61794e-36
7.61821e-36
7.61849e-36
7.61877e-36
7.61907e-36
7.61937e-36
7.61968e-36
7.62001e-36
7.62037e-36
7.62074e-36
7.62115e-36
7.6216e-36
7.62209e-36
7.62262e-36
7.62319e-36
7.62381e-36
7.62448e-36
7.62519e-36
7.62594e-36
7.62672e-36
7.62752e-36
7.62834e-36
7.62916e-36
7.62998e-36
7.63078e-36
7.63157e-36
7.63232e-36
7.63304e-36
7.63372e-36
7.63435e-36
7.63495e-36
7.6355e-36
7.63603e-36
7.63652e-36
7.63699e-36
7.63745e-36
7.6379e-36
7.63837e-36
7.63884e-36
7.63934e-36
7.63986e-36
7.64041e-36
7.64101e-36
7.64164e-36
7.6423e-36
7.64301e-36
7.64374e-36
7.64451e-36
7.6453e-36
7.64611e-36
7.64693e-36
7.64776e-36
7.64858e-36
7.6494e-36
7.6502e-36
7.65099e-36
7.65175e-36
7.65248e-36
7.65318e-36
7.65384e-36
7.65447e-36
7.65505e-36
7.6556e-36
7.65611e-36
7.65658e-36
7.65703e-36
7.65753e-36
7.65827e-36
7.65987e-36
7.66425e-36
7.67751e-36
7.71877e-36
7.8479e-36
8.25215e-36
9.51589e-36
1.34604e-35
2.57548e-35
6.40285e-35
1.83069e-34
5.531e-34
1.70312e-33
5.27841e-33
1.64042e-32
5.10869e-32
1.59504e-31
4.99793e-31
1.57398e-30
4.99121e-30
1.59734e-29
5.17292e-29
1.70025e-28
5.6894e-28
1.94377e-27
6.7958e-27
2.43458e-26
8.93815e-26
3.3592e-25
1.28966e-24
5.04398e-24
2.00367e-23
8.06046e-23
3.27519e-22
1.34119e-21
5.52505e-21
2.28649e-20
9.49552e-20
3.95399e-19
1.65909e-18
6.95134e-18
2.91072e-17
1.21956e-16
5.11365e-16
2.1456e-15
9.00746e-15
3.78303e-14
1.58932e-13
6.67841e-13
2.80659e-12
1.17947e-11
4.95629e-11
2.0823e-10
8.74587e-10
3.67173e-09
1.54047e-08
6.45409e-08
2.69598e-07
1.11816e-06
4.56657e-06
1.8042e-05
6.61726e-05
0.000204918
0.000434579
0.000520563
0.000455384
0.000343568
0.000244172
0.000171303
0.00011994
8.40953e-05
5.99831e-05
4.14095e-05
3.11e-05
2.4493e-05
2.01725e-05
1.72552e-05
1.52044e-05
1.36994e-05
1.25479e-05
1.16336e-05
1.08844e-05
1.02546e-05
9.71417e-06
9.24299e-06
8.82684e-06
8.45551e-06
8.12138e-06
7.81864e-06
7.54271e-06
7.28996e-06
7.05742e-06
6.84265e-06
6.64361e-06
6.45857e-06
6.28606e-06
6.12485e-06
5.97387e-06
5.83225e-06
5.69926e-06
5.57806e-06
5.46504e-06
5.35744e-06
5.25488e-06
5.15701e-06
5.0635e-06
4.97408e-06
4.88849e-06
4.80648e-06
4.72785e-06
4.65239e-06
4.57994e-06
4.51031e-06
4.44335e-06
4.37892e-06
4.31689e-06
4.25713e-06
4.19952e-06
4.14396e-06
4.09035e-06
4.03858e-06
3.98857e-06
3.94024e-06
3.8935e-06
3.84829e-06
3.80452e-06
3.76214e-06
3.72109e-06
3.68129e-06
3.64271e-06
3.60528e-06
3.56896e-06
3.5337e-06
3.49945e-06
3.46618e-06
3.43384e-06
3.4024e-06
3.37182e-06
3.34207e-06
3.31311e-06
3.28492e-06
3.25747e-06
3.23072e-06
3.20466e-06
3.17927e-06
3.1545e-06
3.13035e-06
3.1068e-06
3.08381e-06
3.06138e-06
3.03949e-06
3.01811e-06
2.99723e-06
2.97684e-06
2.95692e-06
2.93745e-06
2.91842e-06
2.89982e-06
2.88164e-06
2.86386e-06
2.84648e-06
2.82948e-06
2.81287e-06
2.79662e-06
2.78072e-06
2.76512e-06
2.74984e-06
2.73489e-06
2.72024e-06
2.7059e-06
2.69186e-06
2.6781e-06
2.66463e-06
2.65143e-06
2.63849e-06
2.62582e-06
2.6134e-06
2.60122e-06
2.58929e-06
2.57759e-06
2.56612e-06
2.55487e-06
2.54384e-06
2.53302e-06
2.5224e-06
2.51199e-06
2.50177e-06
2.49174e-06
2.48189e-06
2.47222e-06
2.46273e-06
2.45341e-06
2.44425e-06
2.43525e-06
2.42641e-06
2.41772e-06
2.40918e-06
2.40078e-06
2.39252e-06
2.3844e-06
2.3764e-06
2.36854e-06
2.3608e-06
2.35318e-06
2.34568e-06
2.33829e-06
2.33101e-06
2.32385e-06
2.31679e-06
2.30983e-06
2.30297e-06
2.29622e-06
2.28956e-06
2.28299e-06
2.27652e-06
2.27013e-06
2.26384e-06
2.25763e-06
2.25151e-06
2.24547e-06
2.23952e-06
2.23365e-06
2.22785e-06
2.22214e-06
2.2165e-06
2.21094e-06
2.20545e-06
2.20004e-06
2.1947e-06
2.18943e-06
2.18424e-06
2.17911e-06
2.17405e-06
2.16906e-06
2.16413e-06
2.15927e-06
2.15448e-06
2.14974e-06
2.14507e-06
2.14046e-06
2.13591e-06
2.13143e-06
2.12699e-06
2.12262e-06
2.1183e-06
2.11404e-06
2.10984e-06
2.10569e-06
2.10159e-06
2.09754e-06
2.09355e-06
2.08961e-06
2.08571e-06
2.08187e-06
2.07807e-06
2.07433e-06
2.07063e-06
2.06697e-06
2.06336e-06
2.0598e-06
2.05628e-06
2.0528e-06
2.04937e-06
2.04597e-06
2.04262e-06
2.03931e-06
2.03604e-06
2.0328e-06
2.0296e-06
2.02644e-06
2.02331e-06
2.02021e-06
2.01714e-06
2.01411e-06
2.0111e-06
2.00812e-06
2.00517e-06
2.00225e-06
1.99935e-06
1.99647e-06
1.99363e-06
1.99081e-06
1.98803e-06
1.98531e-06
1.98267e-06
1.98019e-06
1.97802e-06
1.97648e-06
)
;

boundaryField
{
    boundary
    {
        type            empty;
    }
    inlet
    {
        type            fixedValue;
        value           uniform 0;
    }
    outlet
    {
        type            zeroGradient;
    }
}


// ************************************************************************* //
