/*--------------------------------*- C++ -*----------------------------------*\
  =========                 |
  \\      /  F ield         | OpenFOAM: The Open Source CFD Toolbox
   \\    /   O peration     | Website:  https://openfoam.org
    \\  /    A nd           | Version:  7
     \\/     M anipulation  |
\*---------------------------------------------------------------------------*/
FoamFile
{
    version     2.0;
    format      ascii;
    class       volScalarField;
    location    "0.00095";
    object      O;
}
// * * * * * * * * * * * * * * * * * * * * * * * * * * * * * * * * * * * * * //

dimensions      [0 0 0 0 0 0 0];

internalField   nonuniform List<scalar> 
500
(
1.57752e-47
3.76427e-47
5.96397e-47
8.16528e-47
1.03655e-46
1.25639e-46
1.47599e-46
1.69532e-46
1.91433e-46
2.13297e-46
2.35117e-46
2.56885e-46
2.78594e-46
3.00234e-46
3.21798e-46
3.43279e-46
3.64674e-46
3.85981e-46
4.07201e-46
4.28339e-46
4.49404e-46
4.7041e-46
4.91372e-46
5.1231e-46
5.33246e-46
5.54203e-46
5.75208e-46
5.96285e-46
6.17462e-46
6.38764e-46
6.60217e-46
6.81848e-46
7.0368e-46
7.25742e-46
7.48061e-46
7.70666e-46
7.9359e-46
8.1687e-46
8.40547e-46
8.64667e-46
8.89281e-46
9.14448e-46
9.40232e-46
9.66702e-46
9.93932e-46
1.022e-45
1.05099e-45
1.08097e-45
1.11204e-45
1.14426e-45
1.1777e-45
1.21243e-45
1.24848e-45
1.28591e-45
1.32471e-45
1.3649e-45
1.40643e-45
1.44926e-45
1.49332e-45
1.5385e-45
1.58468e-45
1.6317e-45
1.67939e-45
1.72755e-45
1.77597e-45
1.82442e-45
1.87266e-45
1.92044e-45
1.96752e-45
2.01366e-45
2.05861e-45
2.10217e-45
2.14413e-45
2.18432e-45
2.22257e-45
2.25877e-45
2.2928e-45
2.32462e-45
2.35417e-45
2.38146e-45
2.40649e-45
2.42931e-45
2.44999e-45
2.46861e-45
2.48526e-45
2.50008e-45
2.51317e-45
2.52467e-45
2.5347e-45
2.54341e-45
2.55091e-45
2.55735e-45
2.56283e-45
2.56747e-45
2.57137e-45
2.57464e-45
2.57736e-45
2.57961e-45
2.58146e-45
2.58298e-45
2.58421e-45
2.58521e-45
2.58602e-45
2.58666e-45
2.58718e-45
2.58759e-45
2.58792e-45
2.58818e-45
2.58839e-45
2.58856e-45
2.58869e-45
2.5888e-45
2.58889e-45
2.58897e-45
2.58903e-45
2.58909e-45
2.58914e-45
2.58918e-45
2.58923e-45
2.58926e-45
2.58928e-45
2.58925e-45
2.58907e-45
2.58847e-45
2.58665e-45
2.58402e-45
2.58407e-45
2.58412e-45
2.58418e-45
2.58424e-45
2.5843e-45
2.58437e-45
2.58444e-45
2.58452e-45
2.5846e-45
2.58468e-45
2.58477e-45
2.58487e-45
2.58497e-45
2.58508e-45
2.58519e-45
2.58531e-45
2.58544e-45
2.58557e-45
2.58571e-45
2.58585e-45
2.58601e-45
2.58617e-45
2.58634e-45
2.58653e-45
2.58673e-45
2.58694e-45
2.58717e-45
2.58742e-45
2.58768e-45
2.58796e-45
2.58827e-45
2.58859e-45
2.58892e-45
2.58928e-45
2.58964e-45
2.59002e-45
2.5904e-45
2.59079e-45
2.59118e-45
2.59157e-45
2.59195e-45
2.59233e-45
2.59269e-45
2.59304e-45
2.59338e-45
2.59371e-45
2.59401e-45
2.59431e-45
2.59459e-45
2.59485e-45
2.59511e-45
2.59535e-45
2.59558e-45
2.59581e-45
2.59603e-45
2.59624e-45
2.59646e-45
2.59667e-45
2.59688e-45
2.5971e-45
2.59732e-45
2.59754e-45
2.5978e-45
2.59813e-45
2.59872e-45
2.60019e-45
2.60464e-45
2.61914e-45
2.66744e-45
2.82888e-45
3.36743e-45
5.1575e-45
1.10833e-44
3.06189e-44
9.47591e-44
3.04504e-43
9.87707e-43
3.20465e-42
1.03719e-41
3.34605e-41
1.07581e-40
3.44738e-40
1.10112e-39
3.50615e-39
1.1131e-38
3.52373e-38
1.11251e-37
3.50346e-37
1.10065e-36
3.45e-36
1.07913e-35
3.3688e-35
1.04975e-34
3.2656e-34
1.0143e-33
3.14596e-33
9.74484e-33
3.01496e-32
9.31796e-32
2.87696e-31
8.87483e-31
2.73547e-30
8.4252e-30
2.59316e-29
7.97626e-29
2.45192e-28
7.53294e-28
2.31303e-27
7.09846e-27
2.17729e-26
6.67489e-26
2.04526e-25
6.26376e-25
1.91739e-24
5.86653e-24
1.79416e-23
5.48485e-23
1.67615e-22
5.12067e-22
1.56399e-21
4.77604e-21
1.45834e-20
4.45285e-20
1.35969e-19
4.15233e-19
1.27385e-18
3.90213e-18
1.1934e-17
3.64879e-17
1.11575e-16
3.41268e-16
1.04413e-15
3.1955e-15
9.78237e-15
2.99544e-14
9.17436e-14
2.81049e-13
8.61134e-13
2.63899e-12
8.08881e-12
2.47977e-11
7.60367e-11
2.33199e-10
7.15445e-10
2.19727e-09
6.77971e-09
2.1345e-08
7.25552e-08
3.06602e-07
1.82891e-06
1.26401e-05
6.74986e-05
0.00028014
0.000888208
0.00199494
0.00335659
0.00460257
0.00551885
0.00609893
0.00635934
0.00643771
0.00640275
0.00630117
0.00616317
0.00600744
0.00584516
0.00568287
0.00552422
0.00537116
0.00522461
0.0050849
0.00495201
0.00482573
0.00470575
0.00459172
0.00448329
0.00438007
0.00428174
0.00418796
0.00409843
0.00401286
0.003931
0.00385261
0.00377748
0.00370543
0.00363631
0.003572
0.00351115
0.00345225
0.0033952
0.00333991
0.00328629
0.00323425
0.00318375
0.00313469
0.00308704
0.00304072
0.00299569
0.00295189
0.00290928
0.00286781
0.00282743
0.0027881
0.00274979
0.00271245
0.00267606
0.00264056
0.00260594
0.00257216
0.00253919
0.00250699
0.00247555
0.00244483
0.00241482
0.00238547
0.00235678
0.00232872
0.00230126
0.0022744
0.0022481
0.00222235
0.00219713
0.00217243
0.00214822
0.0021245
0.00210125
0.00207845
0.00205609
0.00203416
0.00201265
0.00199153
0.00197082
0.00195048
0.00193051
0.0019109
0.00189165
0.00187274
0.00185415
0.0018359
0.00181796
0.00180033
0.001783
0.00176596
0.00174922
0.00173275
0.00171656
0.00170064
0.00168499
0.0016696
0.00165448
0.00163957
0.00162487
0.0016104
0.00159615
0.00158213
0.00156832
0.00155473
0.00154134
0.00152816
0.00151518
0.0015024
0.0014898
0.0014774
0.00146517
0.00145313
0.00144126
0.00142957
0.00141804
0.00140668
0.00139548
0.00138444
0.00137355
0.00136282
0.00135223
0.00134179
0.00133149
0.00132133
0.00131131
0.00130142
0.00129166
0.00128203
0.00127252
0.00126313
0.00125386
0.00124471
0.00123568
0.00122676
0.00121794
0.00120924
0.00120064
0.00119215
0.00118375
0.00117546
0.00116726
0.00115916
0.00115116
0.00114325
0.00113543
0.0011277
0.00112006
0.0011125
0.00110504
0.00109765
0.00109035
0.00108314
0.001076
0.00106894
0.00106197
0.00105507
0.00104824
0.0010415
0.00103483
0.00102823
0.0010217
0.00101525
0.00100887
0.00100256
0.000996315
0.000990142
0.000984036
0.000977996
0.000972023
0.000966115
0.00096027
0.000954489
0.00094877
0.000943114
0.000937518
0.000931982
0.000926505
0.000921087
0.000915727
0.000910424
0.000905178
0.000899987
0.000894851
0.00088977
0.000884742
0.000879768
0.000874845
0.000869975
0.000865156
0.000860388
0.000855669
0.000851
0.00084638
0.000841808
0.000837284
0.000832807
0.000828377
0.000823993
0.000819655
0.000815362
0.000811113
0.000806909
0.000802749
0.000798632
0.000794559
0.00079053
0.000786545
0.000782604
0.000778709
0.000774862
0.000771066
0.000767325
0.000763646
0.000760039
0.000756521
0.000753115
0.00074986
0.000746819
0.000744092
0.000741857
0.00074043
)
;

boundaryField
{
    boundary
    {
        type            empty;
    }
    inlet
    {
        type            fixedValue;
        value           uniform 0;
    }
    outlet
    {
        type            zeroGradient;
    }
}


// ************************************************************************* //
