/*--------------------------------*- C++ -*----------------------------------*\
  =========                 |
  \\      /  F ield         | OpenFOAM: The Open Source CFD Toolbox
   \\    /   O peration     | Website:  https://openfoam.org
    \\  /    A nd           | Version:  7
     \\/     M anipulation  |
\*---------------------------------------------------------------------------*/
FoamFile
{
    version     2.0;
    format      ascii;
    class       volScalarField;
    location    "0.00095";
    object      OH;
}
// * * * * * * * * * * * * * * * * * * * * * * * * * * * * * * * * * * * * * //

dimensions      [0 0 0 0 0 0 0];

internalField   nonuniform List<scalar> 
500
(
9.38317e-48
1.82877e-47
2.43788e-47
2.85068e-47
3.13002e-47
3.31935e-47
3.44809e-47
3.53608e-47
3.59664e-47
3.63869e-47
3.66821e-47
3.68921e-47
3.70432e-47
3.71533e-47
3.72341e-47
3.72933e-47
3.73362e-47
3.73664e-47
3.73865e-47
3.73985e-47
3.74042e-47
3.74052e-47
3.74028e-47
3.73988e-47
3.73944e-47
3.73913e-47
3.73908e-47
3.73944e-47
3.74033e-47
3.74187e-47
3.74417e-47
3.74733e-47
3.75143e-47
3.75654e-47
3.76273e-47
3.77009e-47
3.77867e-47
3.78854e-47
3.79981e-47
3.81255e-47
3.82688e-47
3.84293e-47
3.86084e-47
3.88078e-47
3.90293e-47
3.92747e-47
3.95463e-47
3.98462e-47
4.01766e-47
4.05397e-47
4.09378e-47
4.13728e-47
4.18467e-47
4.23611e-47
4.29174e-47
4.35163e-47
4.41586e-47
4.4844e-47
4.5572e-47
4.63416e-47
4.71507e-47
4.7997e-47
4.88773e-47
4.97878e-47
5.07241e-47
5.16812e-47
5.26537e-47
5.36357e-47
5.4621e-47
5.56034e-47
5.65764e-47
5.75339e-47
5.84697e-47
5.93782e-47
6.02541e-47
6.1093e-47
6.18909e-47
6.26444e-47
6.33513e-47
6.40098e-47
6.46191e-47
6.5179e-47
6.569e-47
6.61532e-47
6.65703e-47
6.69434e-47
6.7275e-47
6.75677e-47
6.78245e-47
6.80483e-47
6.82422e-47
6.8409e-47
6.85518e-47
6.86732e-47
6.87758e-47
6.88621e-47
6.89341e-47
6.8994e-47
6.90434e-47
6.90841e-47
6.91173e-47
6.91444e-47
6.91663e-47
6.9184e-47
6.91982e-47
6.92095e-47
6.92186e-47
6.92259e-47
6.92317e-47
6.92364e-47
6.92402e-47
6.92433e-47
6.92458e-47
6.9248e-47
6.92498e-47
6.92514e-47
6.92529e-47
6.92543e-47
6.92555e-47
6.92567e-47
6.92579e-47
6.92589e-47
6.92597e-47
6.92594e-47
6.92567e-47
6.92523e-47
6.92531e-47
6.92542e-47
6.92556e-47
6.92573e-47
6.92591e-47
6.92612e-47
6.92634e-47
6.92658e-47
6.92684e-47
6.92712e-47
6.92741e-47
6.92773e-47
6.92807e-47
6.92843e-47
6.9288e-47
6.92918e-47
6.92957e-47
6.92996e-47
6.93034e-47
6.93072e-47
6.93109e-47
6.93144e-47
6.93178e-47
6.93211e-47
6.93242e-47
6.93272e-47
6.93302e-47
6.9333e-47
6.93359e-47
6.93388e-47
6.93418e-47
6.93449e-47
6.93481e-47
6.93515e-47
6.9355e-47
6.93588e-47
6.93627e-47
6.93669e-47
6.93712e-47
6.93757e-47
6.93803e-47
6.9385e-47
6.93899e-47
6.93949e-47
6.93999e-47
6.9405e-47
6.94102e-47
6.94154e-47
6.94207e-47
6.9426e-47
6.94313e-47
6.94366e-47
6.9442e-47
6.94474e-47
6.94529e-47
6.94584e-47
6.94639e-47
6.94694e-47
6.94751e-47
6.94807e-47
6.94864e-47
6.94921e-47
6.94979e-47
6.95039e-47
6.95103e-47
6.95183e-47
6.95315e-47
6.95623e-47
6.96525e-47
6.99417e-47
7.0894e-47
7.40478e-47
8.44784e-47
1.1886e-46
2.31755e-46
6.00992e-46
1.80392e-45
5.70804e-45
1.8332e-44
5.90054e-44
1.89599e-43
6.07508e-43
1.94057e-42
6.17981e-42
1.96215e-41
6.21233e-41
1.96158e-40
6.17799e-40
1.94107e-39
6.08491e-39
1.90347e-38
5.94269e-38
1.85193e-37
5.76145e-37
1.78963e-36
5.55104e-36
1.71957e-35
5.32044e-35
1.6444e-34
5.07738e-34
1.56634e-33
4.82816e-33
1.48716e-32
4.57763e-32
1.40818e-31
4.32941e-31
1.33038e-30
4.08624e-30
1.25458e-29
3.85062e-29
1.1816e-28
3.62568e-28
1.11272e-27
3.41675e-27
1.05025e-26
3.23407e-26
9.98764e-26
3.09824e-25
9.67545e-25
3.05115e-24
9.75571e-24
3.17891e-23
1.06195e-22
3.65932e-22
1.3076e-21
4.88732e-21
1.89504e-20
7.61233e-20
3.15658e-19
1.3435e-18
5.83472e-18
2.57223e-17
1.1463e-16
5.1476e-16
2.32399e-15
1.05312e-14
4.7845e-14
2.17754e-13
9.92257e-13
4.52516e-12
2.06473e-11
9.42347e-11
4.34229e-10
2.02245e-09
9.4839e-09
4.48178e-08
2.1741e-07
1.14436e-06
7.07564e-06
4.83981e-05
0.000252433
0.0006161
0.000827377
0.00100051
0.00143144
0.00229161
0.00352108
0.00489859
0.0063733
0.00751815
0.0084398
0.00916441
0.00972898
0.0101696
0.010516
0.0107907
0.0110107
0.0111881
0.0113321
0.0114493
0.0115448
0.0116224
0.0116852
0.0117355
0.0117752
0.0118058
0.0118286
0.0118447
0.0118549
0.0118599
0.0118605
0.011857
0.0118501
0.0118401
0.0118273
0.011812
0.0117953
0.0117771
0.0117575
0.0117365
0.0117141
0.0116906
0.0116661
0.0116405
0.0116142
0.011587
0.0115592
0.0115308
0.0115018
0.0114723
0.0114424
0.0114122
0.0113816
0.0113507
0.0113196
0.0112882
0.0112567
0.011225
0.0111933
0.0111614
0.0111294
0.0110974
0.0110653
0.0110332
0.0110011
0.010969
0.0109369
0.0109048
0.0108728
0.0108408
0.0108088
0.010777
0.0107452
0.0107134
0.0106818
0.0106502
0.0106187
0.0105873
0.010556
0.0105248
0.0104938
0.0104628
0.010432
0.0104012
0.0103706
0.0103401
0.0103098
0.0102796
0.0102495
0.0102195
0.0101897
0.01016
0.0101305
0.0101011
0.0100719
0.0100428
0.0100139
0.0099851
0.00995648
0.009928
0.00989966
0.00987143
0.00984336
0.00981545
0.0097877
0.0097601
0.00973267
0.0097054
0.00967828
0.00965133
0.00962454
0.00959791
0.00957144
0.00954512
0.00951897
0.00949298
0.00946714
0.00944147
0.00941595
0.00939058
0.00936537
0.00934031
0.0093154
0.00929064
0.00926602
0.00924155
0.00921723
0.00919304
0.009169
0.00914509
0.00912132
0.00909768
0.00907417
0.00905078
0.00902753
0.0090044
0.00898139
0.00895851
0.00893574
0.00891309
0.00889056
0.00886814
0.00884584
0.00882365
0.00880157
0.0087796
0.00875774
0.008736
0.00871436
0.00869283
0.00867142
0.00865011
0.00862891
0.00860782
0.00858683
0.00856596
0.0085452
0.00852454
0.008504
0.00848357
0.00846324
0.00844303
0.00842292
0.00840293
0.00838305
0.00836328
0.00834362
0.00832406
0.00830462
0.0082853
0.00826608
0.00824697
0.00822797
0.00820908
0.0081903
0.00817163
0.00815307
0.00813462
0.00811627
0.00809804
0.00807991
0.00806189
0.00804398
0.00802618
0.00800848
0.00799089
0.0079734
0.00795602
0.00793875
0.00792158
0.00790452
0.00788756
0.00787071
0.00785397
0.00783733
0.00782079
0.00780436
0.00778803
0.00777181
0.00775569
0.00773968
0.00772377
0.00770796
0.00769226
0.00767666
0.00766116
0.00764577
0.00763049
0.00761532
0.00760026
0.00758531
0.0075705
0.00755582
0.00754129
0.00752694
0.0075128
0.00749892
0.00748538
0.0074723
0.00745984
0.00744827
0.00743801
0.00742971
0.00742448
)
;

boundaryField
{
    boundary
    {
        type            empty;
    }
    inlet
    {
        type            fixedValue;
        value           uniform 0;
    }
    outlet
    {
        type            zeroGradient;
    }
}


// ************************************************************************* //
