/*--------------------------------*- C++ -*----------------------------------*\
  =========                 |
  \\      /  F ield         | OpenFOAM: The Open Source CFD Toolbox
   \\    /   O peration     | Website:  https://openfoam.org
    \\  /    A nd           | Version:  7
     \\/     M anipulation  |
\*---------------------------------------------------------------------------*/
FoamFile
{
    version     2.0;
    format      ascii;
    class       surfaceScalarField;
    location    "0.00095";
    object      phi;
}
// * * * * * * * * * * * * * * * * * * * * * * * * * * * * * * * * * * * * * //

dimensions      [1 0 -1 0 0 0 0];

internalField   nonuniform List<scalar> 
499
(
6.93096e-06
6.93098e-06
6.931e-06
6.93101e-06
6.93102e-06
6.93103e-06
6.93104e-06
6.93105e-06
6.93106e-06
6.93108e-06
6.9311e-06
6.93112e-06
6.93115e-06
6.93118e-06
6.93122e-06
6.93127e-06
6.93133e-06
6.93139e-06
6.93146e-06
6.93155e-06
6.93163e-06
6.93173e-06
6.93183e-06
6.93193e-06
6.93203e-06
6.93214e-06
6.93223e-06
6.93233e-06
6.93241e-06
6.93249e-06
6.93255e-06
6.9326e-06
6.93264e-06
6.93266e-06
6.93266e-06
6.93265e-06
6.93261e-06
6.93256e-06
6.93248e-06
6.93239e-06
6.93226e-06
6.93212e-06
6.93194e-06
6.93174e-06
6.9315e-06
6.93123e-06
6.93093e-06
6.93058e-06
6.93019e-06
6.92976e-06
6.92928e-06
6.92875e-06
6.92817e-06
6.92754e-06
6.92686e-06
6.92613e-06
6.92534e-06
6.92451e-06
6.92363e-06
6.9227e-06
6.92173e-06
6.92073e-06
6.9197e-06
6.91864e-06
6.91756e-06
6.91648e-06
6.91539e-06
6.9143e-06
6.91322e-06
6.91216e-06
6.91112e-06
6.91011e-06
6.90913e-06
6.9082e-06
6.90731e-06
6.90646e-06
6.90567e-06
6.90492e-06
6.90423e-06
6.9036e-06
6.90301e-06
6.90248e-06
6.902e-06
6.90157e-06
6.90119e-06
6.90085e-06
6.90055e-06
6.90029e-06
6.90007e-06
6.89988e-06
6.89972e-06
6.89958e-06
6.89947e-06
6.89938e-06
6.8993e-06
6.89925e-06
6.8992e-06
6.89917e-06
6.89915e-06
6.89914e-06
6.89913e-06
6.89913e-06
6.89913e-06
6.89914e-06
6.89916e-06
6.89917e-06
6.89919e-06
6.89921e-06
6.89923e-06
6.89925e-06
6.89927e-06
6.89929e-06
6.89932e-06
6.89934e-06
6.89937e-06
6.89939e-06
6.89941e-06
6.89944e-06
6.89946e-06
6.89949e-06
6.89951e-06
6.89953e-06
6.89956e-06
6.89958e-06
6.8996e-06
6.89963e-06
6.89965e-06
6.89968e-06
6.8997e-06
6.89972e-06
6.89974e-06
6.89976e-06
6.89979e-06
6.89981e-06
6.89983e-06
6.89985e-06
6.89987e-06
6.89989e-06
6.89991e-06
6.89993e-06
6.89994e-06
6.89996e-06
6.89998e-06
6.9e-06
6.90002e-06
6.90004e-06
6.90005e-06
6.90007e-06
6.90009e-06
6.90011e-06
6.90012e-06
6.90014e-06
6.90016e-06
6.90018e-06
6.90019e-06
6.90021e-06
6.90023e-06
6.90025e-06
6.90026e-06
6.90028e-06
6.9003e-06
6.90031e-06
6.90033e-06
6.90034e-06
6.90036e-06
6.90037e-06
6.90039e-06
6.9004e-06
6.90041e-06
6.90043e-06
6.90044e-06
6.90045e-06
6.90046e-06
6.90048e-06
6.90049e-06
6.9005e-06
6.90051e-06
6.90052e-06
6.90053e-06
6.90054e-06
6.90055e-06
6.90056e-06
6.90057e-06
6.90058e-06
6.90059e-06
6.9006e-06
6.90061e-06
6.90062e-06
6.90063e-06
6.90064e-06
6.90064e-06
6.90065e-06
6.90066e-06
6.90067e-06
6.90067e-06
6.90068e-06
6.90069e-06
6.90069e-06
6.9007e-06
6.90071e-06
6.90071e-06
6.90072e-06
6.90072e-06
6.90073e-06
6.90074e-06
6.90074e-06
6.90075e-06
6.90075e-06
6.90076e-06
6.90077e-06
6.90077e-06
6.90078e-06
6.90078e-06
6.90079e-06
6.9008e-06
6.9008e-06
6.90081e-06
6.90081e-06
6.90082e-06
6.90083e-06
6.90083e-06
6.90084e-06
6.90085e-06
6.90086e-06
6.90086e-06
6.90087e-06
6.90088e-06
6.90089e-06
6.9009e-06
6.90091e-06
6.90092e-06
6.90093e-06
6.90094e-06
6.90095e-06
6.90096e-06
6.90098e-06
6.90099e-06
6.901e-06
6.90102e-06
6.90103e-06
6.90104e-06
6.90106e-06
6.90108e-06
6.90109e-06
6.90111e-06
6.90113e-06
6.90115e-06
6.90117e-06
6.90119e-06
6.90121e-06
6.90123e-06
6.90126e-06
6.90128e-06
6.90131e-06
6.90133e-06
6.90136e-06
6.90139e-06
6.90141e-06
6.90144e-06
6.90147e-06
6.9015e-06
6.90153e-06
6.90156e-06
6.90159e-06
6.90163e-06
6.90166e-06
6.9017e-06
6.90174e-06
6.90183e-06
6.90203e-06
6.90259e-06
6.90422e-06
6.9089e-06
6.92182e-06
6.95307e-06
7.0082e-06
7.06885e-06
7.11418e-06
7.14342e-06
7.16274e-06
7.17616e-06
7.18553e-06
7.1916e-06
7.19652e-06
7.19974e-06
7.20272e-06
7.20508e-06
7.20702e-06
7.20864e-06
7.21001e-06
7.2112e-06
7.21223e-06
7.21315e-06
7.21396e-06
7.2147e-06
7.21536e-06
7.21597e-06
7.21652e-06
7.21703e-06
7.2175e-06
7.21793e-06
7.21833e-06
7.21871e-06
7.21906e-06
7.21939e-06
7.2197e-06
7.21999e-06
7.22026e-06
7.22052e-06
7.22077e-06
7.221e-06
7.22122e-06
7.22142e-06
7.22161e-06
7.22179e-06
7.22196e-06
7.22212e-06
7.22228e-06
7.22243e-06
7.22257e-06
7.2227e-06
7.22283e-06
7.22296e-06
7.22307e-06
7.22319e-06
7.22329e-06
7.2234e-06
7.2235e-06
7.22359e-06
7.22368e-06
7.22377e-06
7.22386e-06
7.22395e-06
7.22403e-06
7.22411e-06
7.22419e-06
7.22427e-06
7.22434e-06
7.22442e-06
7.22449e-06
7.22456e-06
7.22463e-06
7.2247e-06
7.22477e-06
7.22484e-06
7.2249e-06
7.22497e-06
7.22503e-06
7.2251e-06
7.22516e-06
7.22522e-06
7.22528e-06
7.22534e-06
7.2254e-06
7.22546e-06
7.22551e-06
7.22557e-06
7.22563e-06
7.22568e-06
7.22574e-06
7.22579e-06
7.22585e-06
7.2259e-06
7.22595e-06
7.22601e-06
7.22606e-06
7.22611e-06
7.22616e-06
7.22621e-06
7.22626e-06
7.22632e-06
7.22637e-06
7.22642e-06
7.22647e-06
7.22652e-06
7.22656e-06
7.22661e-06
7.22666e-06
7.22671e-06
7.22675e-06
7.2268e-06
7.22684e-06
7.22689e-06
7.22693e-06
7.22697e-06
7.22701e-06
7.22705e-06
7.22709e-06
7.22713e-06
7.22717e-06
7.2272e-06
7.22724e-06
7.22727e-06
7.2273e-06
7.22734e-06
7.22737e-06
7.2274e-06
7.22743e-06
7.22746e-06
7.22749e-06
7.22751e-06
7.22754e-06
7.22757e-06
7.22759e-06
7.22762e-06
7.22764e-06
7.22767e-06
7.2277e-06
7.22772e-06
7.22775e-06
7.22777e-06
7.2278e-06
7.22783e-06
7.22785e-06
7.22788e-06
7.22791e-06
7.22794e-06
7.22796e-06
7.22799e-06
7.22802e-06
7.22805e-06
7.22808e-06
7.22812e-06
7.22815e-06
7.22818e-06
7.22821e-06
7.22824e-06
7.22827e-06
7.22831e-06
7.22834e-06
7.22837e-06
7.2284e-06
7.22843e-06
7.22847e-06
7.2285e-06
7.22853e-06
7.22856e-06
7.22859e-06
7.22862e-06
7.22865e-06
7.22867e-06
7.2287e-06
7.22873e-06
7.22875e-06
7.22878e-06
7.2288e-06
7.22882e-06
7.22885e-06
7.22887e-06
7.22889e-06
7.22891e-06
7.22893e-06
7.22894e-06
7.22896e-06
7.22898e-06
7.22899e-06
7.229e-06
7.22902e-06
7.22903e-06
7.22904e-06
7.22905e-06
7.22906e-06
7.22906e-06
7.22907e-06
7.22907e-06
7.22908e-06
7.22908e-06
7.22908e-06
7.22908e-06
7.22908e-06
7.22907e-06
7.22907e-06
7.22906e-06
7.22905e-06
7.22904e-06
7.22903e-06
7.22902e-06
7.229e-06
7.22899e-06
7.22897e-06
7.22895e-06
7.22892e-06
7.2289e-06
7.22887e-06
7.22884e-06
7.22881e-06
7.22877e-06
7.22874e-06
7.2287e-06
7.22866e-06
7.22861e-06
7.22857e-06
7.22852e-06
7.22847e-06
7.22841e-06
7.22836e-06
7.2283e-06
7.22824e-06
7.22818e-06
)
;

boundaryField
{
    boundary
    {
        type            empty;
        value           nonuniform 0();
    }
    inlet
    {
        type            calculated;
        value           uniform -6.93092e-06;
    }
    outlet
    {
        type            calculated;
        value           uniform 7.22812e-06;
    }
}


// ************************************************************************* //
