/*--------------------------------*- C++ -*----------------------------------*\
  =========                 |
  \\      /  F ield         | OpenFOAM: The Open Source CFD Toolbox
   \\    /   O peration     | Website:  https://openfoam.org
    \\  /    A nd           | Version:  7
     \\/     M anipulation  |
\*---------------------------------------------------------------------------*/
FoamFile
{
    version     2.0;
    format      ascii;
    class       volScalarField;
    location    "0.00095";
    object      rho;
}
// * * * * * * * * * * * * * * * * * * * * * * * * * * * * * * * * * * * * * //

dimensions      [1 -3 0 0 0 0 0];

internalField   nonuniform List<scalar> 
500
(
0.864771
0.86477
0.864768
0.864766
0.864763
0.86476
0.864757
0.864755
0.864753
0.864751
0.86475
0.86475
0.86475
0.86475
0.864752
0.864755
0.864758
0.864763
0.864769
0.864776
0.864783
0.864791
0.8648
0.864809
0.864818
0.864826
0.864834
0.864841
0.864847
0.864852
0.864855
0.864856
0.864855
0.864853
0.864848
0.864841
0.864831
0.864819
0.864804
0.864786
0.864765
0.86474
0.864712
0.864681
0.864645
0.864604
0.864559
0.864509
0.864454
0.864392
0.864325
0.864252
0.864172
0.864085
0.863993
0.863894
0.863788
0.863677
0.86356
0.863438
0.863311
0.86318
0.863046
0.86291
0.862771
0.862632
0.862493
0.862354
0.862217
0.862083
0.861952
0.861825
0.861703
0.861586
0.861475
0.86137
0.861271
0.861179
0.861093
0.861014
0.860941
0.860875
0.860816
0.860762
0.860713
0.860671
0.860633
0.860599
0.86057
0.860545
0.860523
0.860504
0.860488
0.860474
0.860463
0.860453
0.860445
0.860439
0.860433
0.860428
0.860425
0.860422
0.860419
0.860417
0.860416
0.860414
0.860413
0.860413
0.860412
0.860411
0.860411
0.860411
0.86041
0.86041
0.86041
0.86041
0.86041
0.860409
0.860409
0.860409
0.860409
0.860409
0.860409
0.860409
0.860408
0.860408
0.860408
0.860408
0.860408
0.860408
0.860408
0.860407
0.860407
0.860407
0.860407
0.860406
0.860406
0.860406
0.860405
0.860405
0.860404
0.860404
0.860404
0.860403
0.860403
0.860402
0.860402
0.860401
0.860401
0.860401
0.8604
0.8604
0.8604
0.860399
0.860399
0.860399
0.860399
0.860398
0.860398
0.860398
0.860397
0.860397
0.860397
0.860396
0.860396
0.860395
0.860395
0.860394
0.860394
0.860393
0.860393
0.860392
0.860392
0.860391
0.860391
0.86039
0.860389
0.860389
0.860388
0.860388
0.860387
0.860386
0.860386
0.860385
0.860385
0.860384
0.860383
0.860383
0.860382
0.860381
0.860381
0.86038
0.86038
0.860379
0.860378
0.860378
0.860377
0.860376
0.860376
0.860375
0.860375
0.860374
0.860374
0.860373
0.860373
0.860372
0.860372
0.860371
0.860371
0.860371
0.86037
0.86037
0.86037
0.860369
0.860369
0.860369
0.860369
0.860369
0.860369
0.860369
0.860369
0.86037
0.86037
0.86037
0.860371
0.860371
0.860372
0.860372
0.860373
0.860374
0.860375
0.860376
0.860377
0.860378
0.860379
0.86038
0.860382
0.860383
0.860385
0.860387
0.860389
0.860391
0.860393
0.860395
0.860397
0.8604
0.860402
0.860405
0.860408
0.860411
0.860415
0.860418
0.860422
0.860426
0.860429
0.860433
0.860438
0.860442
0.860446
0.860451
0.860455
0.86046
0.860466
0.860471
0.860477
0.860483
0.860486
0.860475
0.860418
0.860212
0.859541
0.857472
0.8513
0.833618
0.787369
0.690909
0.556488
0.435449
0.35225
0.298064
0.261007
0.234682
0.216221
0.202606
0.192206
0.184805
0.179383
0.175067
0.171552
0.168621
0.166129
0.163976
0.16209
0.16042
0.158928
0.157584
0.156365
0.155253
0.154233
0.153293
0.152424
0.151617
0.150865
0.150162
0.149503
0.148884
0.148301
0.147751
0.147231
0.146739
0.146272
0.145829
0.14542
0.145037
0.144668
0.144314
0.143972
0.143643
0.143325
0.143019
0.142723
0.142437
0.14216
0.141891
0.141631
0.141379
0.141135
0.140898
0.140667
0.140443
0.140226
0.140014
0.139808
0.139607
0.139411
0.139221
0.139035
0.138854
0.138677
0.138504
0.138336
0.138171
0.13801
0.137853
0.137699
0.137548
0.137401
0.137257
0.137115
0.136977
0.136842
0.136709
0.136579
0.136451
0.136326
0.136203
0.136083
0.135965
0.135849
0.135735
0.135623
0.135513
0.135405
0.135299
0.135195
0.135092
0.134992
0.134893
0.134795
0.134699
0.134605
0.134512
0.134421
0.134331
0.134243
0.134157
0.134072
0.133987
0.133904
0.133822
0.133741
0.133661
0.133583
0.133505
0.133429
0.133353
0.133279
0.133206
0.133133
0.133062
0.132992
0.132922
0.132853
0.132786
0.132719
0.132653
0.132588
0.132523
0.13246
0.132397
0.132335
0.132274
0.132213
0.132154
0.132095
0.132036
0.131979
0.131922
0.131865
0.13181
0.131755
0.131701
0.131647
0.131594
0.131541
0.131489
0.131438
0.131388
0.131337
0.131288
0.131239
0.13119
0.131142
0.131095
0.131048
0.131002
0.130956
0.130911
0.130866
0.130821
0.130777
0.130734
0.130691
0.130648
0.130606
0.130564
0.130522
0.130482
0.130441
0.130401
0.130361
0.130322
0.130283
0.130244
0.130206
0.130168
0.13013
0.130093
0.130056
0.130019
0.129983
0.129947
0.129912
0.129876
0.129841
0.129807
0.129772
0.129738
0.129705
0.129671
0.129638
0.129605
0.129572
0.12954
0.129508
0.129476
0.129445
0.129413
0.129382
0.129352
0.129321
0.129291
0.129261
0.129231
0.129201
0.129172
0.129143
0.129114
0.129085
0.129056
0.129028
0.129
0.128972
0.128944
0.128917
0.128889
0.128862
0.128835
0.128808
0.128781
0.128754
0.128727
0.128701
0.128674
0.128647
0.128621
0.128594
0.128569
0.128547
0.128531
)
;

boundaryField
{
    boundary
    {
        type            empty;
    }
    inlet
    {
        type            calculated;
        value           uniform 0.864771;
    }
    outlet
    {
        type            calculated;
        value           uniform 0.128531;
    }
}


// ************************************************************************* //
