/*--------------------------------*- C++ -*----------------------------------*\
  =========                 |
  \\      /  F ield         | OpenFOAM: The Open Source CFD Toolbox
   \\    /   O peration     | Website:  https://openfoam.org
    \\  /    A nd           | Version:  7
     \\/     M anipulation  |
\*---------------------------------------------------------------------------*/
FoamFile
{
    version     2.0;
    format      ascii;
    class       volScalarField;
    location    "0.00095";
    object      T;
}
// * * * * * * * * * * * * * * * * * * * * * * * * * * * * * * * * * * * * * //

dimensions      [0 0 0 1 0 0 0];

internalField   nonuniform List<scalar> 
500
(
300
300
300.001
300.002
300.003
300.004
300.005
300.006
300.006
300.007
300.007
300.007
300.007
300.007
300.007
300.006
300.004
300.003
300.001
299.998
299.996
299.993
299.99
299.987
299.984
299.981
299.978
299.976
299.974
299.972
299.971
299.971
299.971
299.972
299.973
299.976
299.979
299.983
299.989
299.995
300.002
300.011
300.02
300.031
300.044
300.058
300.073
300.091
300.11
300.131
300.155
300.18
300.208
300.238
300.27
300.305
300.341
300.38
300.421
300.463
300.507
300.553
300.6
300.647
300.695
300.744
300.793
300.841
300.889
300.935
300.981
301.025
301.068
301.109
301.148
301.185
301.219
301.251
301.281
301.309
301.334
301.358
301.379
301.397
301.414
301.429
301.443
301.454
301.464
301.473
301.481
301.488
301.493
301.498
301.502
301.505
301.508
301.511
301.512
301.514
301.515
301.516
301.517
301.518
301.519
301.519
301.519
301.52
301.52
301.52
301.52
301.52
301.52
301.521
301.521
301.521
301.521
301.521
301.521
301.521
301.521
301.521
301.521
301.521
301.521
301.521
301.521
301.521
301.521
301.521
301.521
301.521
301.522
301.522
301.522
301.522
301.522
301.522
301.522
301.522
301.523
301.523
301.523
301.523
301.523
301.523
301.523
301.524
301.524
301.524
301.524
301.524
301.524
301.524
301.524
301.524
301.525
301.525
301.525
301.525
301.525
301.525
301.525
301.525
301.526
301.526
301.526
301.526
301.526
301.526
301.527
301.527
301.527
301.527
301.527
301.528
301.528
301.528
301.528
301.528
301.529
301.529
301.529
301.529
301.53
301.53
301.53
301.53
301.53
301.531
301.531
301.531
301.531
301.532
301.532
301.532
301.532
301.532
301.533
301.533
301.533
301.533
301.533
301.534
301.534
301.534
301.534
301.534
301.534
301.535
301.535
301.535
301.535
301.535
301.535
301.535
301.535
301.535
301.535
301.535
301.535
301.535
301.535
301.535
301.535
301.534
301.534
301.534
301.534
301.534
301.533
301.533
301.533
301.532
301.532
301.531
301.531
301.53
301.53
301.529
301.528
301.528
301.527
301.526
301.525
301.524
301.524
301.523
301.522
301.52
301.519
301.518
301.517
301.515
301.514
301.513
301.511
301.51
301.508
301.507
301.505
301.504
301.502
301.5
301.499
301.499
301.502
301.513
301.55
301.657
301.964
302.841
305.344
312.45
332.08
380.957
477.534
617.345
772.471
923.681
1065.83
1195.21
1305.16
1399.22
1478.86
1541.98
1592.06
1634.51
1670.97
1702.8
1730.95
1756.12
1778.85
1799.53
1818.46
1835.9
1852.04
1867.04
1881.03
1894.14
1906.44
1918.02
1928.95
1939.29
1949.09
1958.41
1967.26
1975.71
1983.76
1991.46
1998.81
2005.85
2012.39
2018.56
2024.54
2030.33
2035.93
2041.37
2046.64
2051.75
2056.72
2061.56
2066.25
2070.83
2075.28
2079.61
2083.84
2087.96
2091.97
2095.9
2099.72
2103.46
2107.12
2110.69
2114.18
2117.6
2120.94
2124.21
2127.42
2130.55
2133.63
2136.64
2139.6
2142.49
2145.34
2148.12
2150.86
2153.55
2156.18
2158.77
2161.32
2163.81
2166.27
2168.68
2171.06
2173.39
2175.69
2177.94
2180.17
2182.35
2184.5
2186.62
2188.71
2190.76
2192.78
2194.77
2196.73
2198.67
2200.57
2202.45
2204.3
2206.12
2207.92
2209.69
2211.43
2213.14
2214.83
2216.52
2218.17
2219.81
2221.43
2223.03
2224.6
2226.16
2227.7
2229.21
2230.71
2232.2
2233.66
2235.11
2236.54
2237.95
2239.35
2240.73
2242.09
2243.44
2244.78
2246.1
2247.4
2248.69
2249.97
2251.23
2252.48
2253.71
2254.93
2256.14
2257.34
2258.52
2259.69
2260.85
2261.99
2263.13
2264.25
2265.36
2266.45
2267.54
2268.62
2269.68
2270.73
2271.78
2272.81
2273.83
2274.84
2275.84
2276.83
2277.81
2278.78
2279.75
2280.7
2281.64
2282.58
2283.5
2284.42
2285.32
2286.22
2287.12
2288
2288.87
2289.74
2290.6
2291.45
2292.29
2293.13
2293.96
2294.78
2295.6
2296.4
2297.2
2298
2298.79
2299.57
2300.34
2301.11
2301.87
2302.62
2303.37
2304.11
2304.85
2305.58
2306.3
2307.02
2307.74
2308.44
2309.15
2309.84
2310.53
2311.22
2311.9
2312.57
2313.24
2313.91
2314.57
2315.22
2315.87
2316.52
2317.16
2317.79
2318.42
2319.05
2319.67
2320.29
2320.9
2321.51
2322.11
2322.71
2323.31
2323.9
2324.49
2325.07
2325.65
2326.22
2326.8
2327.36
2327.92
2328.48
2329.02
2329.55
2330.05
2330.48
2330.76
)
;

boundaryField
{
    boundary
    {
        type            empty;
    }
    inlet
    {
        type            fixedValue;
        value           uniform 300;
    }
    outlet
    {
        type            zeroGradient;
    }
}


// ************************************************************************* //
