/*--------------------------------*- C++ -*----------------------------------*\
  =========                 |
  \\      /  F ield         | OpenFOAM: The Open Source CFD Toolbox
   \\    /   O peration     | Website:  https://openfoam.org
    \\  /    A nd           | Version:  7
     \\/     M anipulation  |
\*---------------------------------------------------------------------------*/
FoamFile
{
    version     2.0;
    format      ascii;
    class       volVectorField;
    location    "0.00095";
    object      U;
}
// * * * * * * * * * * * * * * * * * * * * * * * * * * * * * * * * * * * * * //

dimensions      [0 1 -1 0 0 0 0];

internalField   nonuniform List<vector> 
500
(
(2.34894 0 0)
(2.34895 0 0)
(2.34897 0 0)
(2.34898 0 0)
(2.34899 0 0)
(2.349 0 0)
(2.34901 0 0)
(2.34902 0 0)
(2.34903 0 0)
(2.34904 0 0)
(2.34905 0 0)
(2.34906 0 0)
(2.34907 0 0)
(2.34907 0 0)
(2.34908 0 0)
(2.34909 0 0)
(2.3491 0 0)
(2.3491 0 0)
(2.34911 0 0)
(2.34912 0 0)
(2.34913 0 0)
(2.34914 0 0)
(2.34915 0 0)
(2.34916 0 0)
(2.34917 0 0)
(2.34918 0 0)
(2.34919 0 0)
(2.34921 0 0)
(2.34922 0 0)
(2.34923 0 0)
(2.34925 0 0)
(2.34927 0 0)
(2.34928 0 0)
(2.3493 0 0)
(2.34932 0 0)
(2.34933 0 0)
(2.34935 0 0)
(2.34937 0 0)
(2.34939 0 0)
(2.34941 0 0)
(2.34943 0 0)
(2.34945 0 0)
(2.34947 0 0)
(2.34949 0 0)
(2.34952 0 0)
(2.34954 0 0)
(2.34957 0 0)
(2.34959 0 0)
(2.34962 0 0)
(2.34965 0 0)
(2.34968 0 0)
(2.3497 0 0)
(2.34973 0 0)
(2.34976 0 0)
(2.34979 0 0)
(2.34982 0 0)
(2.34985 0 0)
(2.34988 0 0)
(2.34991 0 0)
(2.34993 0 0)
(2.34995 0 0)
(2.34998 0 0)
(2.34999 0 0)
(2.35001 0 0)
(2.35003 0 0)
(2.35004 0 0)
(2.35005 0 0)
(2.35005 0 0)
(2.35006 0 0)
(2.35006 0 0)
(2.35006 0 0)
(2.35005 0 0)
(2.35005 0 0)
(2.35004 0 0)
(2.35004 0 0)
(2.35003 0 0)
(2.35002 0 0)
(2.35001 0 0)
(2.35 0 0)
(2.34999 0 0)
(2.34998 0 0)
(2.34997 0 0)
(2.34996 0 0)
(2.34995 0 0)
(2.34995 0 0)
(2.34994 0 0)
(2.34994 0 0)
(2.34993 0 0)
(2.34993 0 0)
(2.34993 0 0)
(2.34993 0 0)
(2.34993 0 0)
(2.34993 0 0)
(2.34993 0 0)
(2.34994 0 0)
(2.34994 0 0)
(2.34995 0 0)
(2.34995 0 0)
(2.34996 0 0)
(2.34996 0 0)
(2.34997 0 0)
(2.34998 0 0)
(2.34999 0 0)
(2.34999 0 0)
(2.35 0 0)
(2.35001 0 0)
(2.35002 0 0)
(2.35003 0 0)
(2.35004 0 0)
(2.35004 0 0)
(2.35005 0 0)
(2.35006 0 0)
(2.35007 0 0)
(2.35008 0 0)
(2.35009 0 0)
(2.3501 0 0)
(2.35011 0 0)
(2.35011 0 0)
(2.35012 0 0)
(2.35013 0 0)
(2.35014 0 0)
(2.35015 0 0)
(2.35016 0 0)
(2.35016 0 0)
(2.35017 0 0)
(2.35018 0 0)
(2.35019 0 0)
(2.3502 0 0)
(2.35021 0 0)
(2.35021 0 0)
(2.35022 0 0)
(2.35023 0 0)
(2.35024 0 0)
(2.35025 0 0)
(2.35025 0 0)
(2.35026 0 0)
(2.35027 0 0)
(2.35028 0 0)
(2.35029 0 0)
(2.35029 0 0)
(2.3503 0 0)
(2.35031 0 0)
(2.35032 0 0)
(2.35032 0 0)
(2.35033 0 0)
(2.35034 0 0)
(2.35035 0 0)
(2.35035 0 0)
(2.35036 0 0)
(2.35037 0 0)
(2.35037 0 0)
(2.35038 0 0)
(2.35039 0 0)
(2.35039 0 0)
(2.3504 0 0)
(2.35041 0 0)
(2.35041 0 0)
(2.35042 0 0)
(2.35043 0 0)
(2.35043 0 0)
(2.35044 0 0)
(2.35045 0 0)
(2.35045 0 0)
(2.35046 0 0)
(2.35047 0 0)
(2.35047 0 0)
(2.35048 0 0)
(2.35048 0 0)
(2.35049 0 0)
(2.3505 0 0)
(2.3505 0 0)
(2.35051 0 0)
(2.35051 0 0)
(2.35052 0 0)
(2.35053 0 0)
(2.35053 0 0)
(2.35054 0 0)
(2.35054 0 0)
(2.35055 0 0)
(2.35055 0 0)
(2.35056 0 0)
(2.35056 0 0)
(2.35057 0 0)
(2.35057 0 0)
(2.35058 0 0)
(2.35058 0 0)
(2.35059 0 0)
(2.35059 0 0)
(2.3506 0 0)
(2.3506 0 0)
(2.35061 0 0)
(2.35061 0 0)
(2.35061 0 0)
(2.35062 0 0)
(2.35062 0 0)
(2.35063 0 0)
(2.35063 0 0)
(2.35063 0 0)
(2.35064 0 0)
(2.35064 0 0)
(2.35065 0 0)
(2.35065 0 0)
(2.35065 0 0)
(2.35066 0 0)
(2.35066 0 0)
(2.35066 0 0)
(2.35067 0 0)
(2.35067 0 0)
(2.35067 0 0)
(2.35068 0 0)
(2.35068 0 0)
(2.35068 0 0)
(2.35068 0 0)
(2.35069 0 0)
(2.35069 0 0)
(2.35069 0 0)
(2.35069 0 0)
(2.3507 0 0)
(2.3507 0 0)
(2.3507 0 0)
(2.3507 0 0)
(2.3507 0 0)
(2.35071 0 0)
(2.35071 0 0)
(2.35071 0 0)
(2.35071 0 0)
(2.35071 0 0)
(2.35071 0 0)
(2.35071 0 0)
(2.35071 0 0)
(2.35072 0 0)
(2.35072 0 0)
(2.35072 0 0)
(2.35072 0 0)
(2.35072 0 0)
(2.35072 0 0)
(2.35072 0 0)
(2.35072 0 0)
(2.35072 0 0)
(2.35072 0 0)
(2.35072 0 0)
(2.35072 0 0)
(2.35072 0 0)
(2.35072 0 0)
(2.35072 0 0)
(2.35072 0 0)
(2.35072 0 0)
(2.35072 0 0)
(2.35071 0 0)
(2.35071 0 0)
(2.35071 0 0)
(2.35071 0 0)
(2.35071 0 0)
(2.35071 0 0)
(2.3507 0 0)
(2.3507 0 0)
(2.3507 0 0)
(2.3507 0 0)
(2.3507 0 0)
(2.35069 0 0)
(2.35069 0 0)
(2.35069 0 0)
(2.35068 0 0)
(2.35068 0 0)
(2.35067 0 0)
(2.35067 0 0)
(2.35068 0 0)
(2.35073 0 0)
(2.35094 0 0)
(2.35169 0 0)
(2.35411 0 0)
(2.36143 0 0)
(2.3818 0 0)
(2.43348 0 0)
(2.55614 0 0)
(2.83278 0 0)
(3.41302 0 0)
(4.39804 0 0)
(5.61186 0 0)
(6.82844 0 0)
(7.93119 0 0)
(8.8908 0 0)
(9.70397 0 0)
(10.3862 0 0)
(10.9543 0 0)
(11.4112 0 0)
(11.7711 0 0)
(12.0639 0 0)
(12.3128 0 0)
(12.5293 0 0)
(12.7198 0 0)
(12.8891 0 0)
(13.0409 0 0)
(13.1783 0 0)
(13.3035 0 0)
(13.4183 0 0)
(13.5242 0 0)
(13.6222 0 0)
(13.7133 0 0)
(13.7983 0 0)
(13.8779 0 0)
(13.9526 0 0)
(14.0229 0 0)
(14.0893 0 0)
(14.152 0 0)
(14.2115 0 0)
(14.268 0 0)
(14.3217 0 0)
(14.3728 0 0)
(14.4215 0 0)
(14.468 0 0)
(14.5124 0 0)
(14.5537 0 0)
(14.5924 0 0)
(14.63 0 0)
(14.6664 0 0)
(14.7015 0 0)
(14.7355 0 0)
(14.7685 0 0)
(14.8004 0 0)
(14.8314 0 0)
(14.8615 0 0)
(14.8907 0 0)
(14.9191 0 0)
(14.9467 0 0)
(14.9736 0 0)
(14.9998 0 0)
(15.0252 0 0)
(15.0501 0 0)
(15.0743 0 0)
(15.0979 0 0)
(15.1209 0 0)
(15.1434 0 0)
(15.1653 0 0)
(15.1867 0 0)
(15.2077 0 0)
(15.2282 0 0)
(15.2482 0 0)
(15.2678 0 0)
(15.287 0 0)
(15.3058 0 0)
(15.3242 0 0)
(15.3422 0 0)
(15.3599 0 0)
(15.3772 0 0)
(15.3942 0 0)
(15.4108 0 0)
(15.4271 0 0)
(15.4432 0 0)
(15.4589 0 0)
(15.4743 0 0)
(15.4895 0 0)
(15.5044 0 0)
(15.519 0 0)
(15.5334 0 0)
(15.5475 0 0)
(15.5614 0 0)
(15.575 0 0)
(15.5884 0 0)
(15.6016 0 0)
(15.6146 0 0)
(15.6274 0 0)
(15.64 0 0)
(15.6523 0 0)
(15.6645 0 0)
(15.6765 0 0)
(15.6883 0 0)
(15.7 0 0)
(15.7114 0 0)
(15.7227 0 0)
(15.7338 0 0)
(15.7448 0 0)
(15.7556 0 0)
(15.7662 0 0)
(15.7767 0 0)
(15.787 0 0)
(15.7971 0 0)
(15.8071 0 0)
(15.8171 0 0)
(15.8269 0 0)
(15.8366 0 0)
(15.8461 0 0)
(15.8555 0 0)
(15.8648 0 0)
(15.874 0 0)
(15.8831 0 0)
(15.892 0 0)
(15.9009 0 0)
(15.9096 0 0)
(15.9182 0 0)
(15.9267 0 0)
(15.9351 0 0)
(15.9434 0 0)
(15.9516 0 0)
(15.9597 0 0)
(15.9677 0 0)
(15.9757 0 0)
(15.9835 0 0)
(15.9912 0 0)
(15.9989 0 0)
(16.0064 0 0)
(16.0139 0 0)
(16.0213 0 0)
(16.0286 0 0)
(16.0358 0 0)
(16.0429 0 0)
(16.05 0 0)
(16.057 0 0)
(16.0639 0 0)
(16.0707 0 0)
(16.0775 0 0)
(16.0842 0 0)
(16.0908 0 0)
(16.0973 0 0)
(16.1038 0 0)
(16.1102 0 0)
(16.1166 0 0)
(16.1229 0 0)
(16.1291 0 0)
(16.1352 0 0)
(16.1413 0 0)
(16.1474 0 0)
(16.1533 0 0)
(16.1592 0 0)
(16.1651 0 0)
(16.1709 0 0)
(16.1766 0 0)
(16.1823 0 0)
(16.1879 0 0)
(16.1935 0 0)
(16.199 0 0)
(16.2045 0 0)
(16.2099 0 0)
(16.2153 0 0)
(16.2206 0 0)
(16.2258 0 0)
(16.231 0 0)
(16.2362 0 0)
(16.2413 0 0)
(16.2464 0 0)
(16.2514 0 0)
(16.2564 0 0)
(16.2613 0 0)
(16.2662 0 0)
(16.2711 0 0)
(16.2759 0 0)
(16.2806 0 0)
(16.2853 0 0)
(16.29 0 0)
(16.2946 0 0)
(16.2992 0 0)
(16.3038 0 0)
(16.3083 0 0)
(16.3127 0 0)
(16.3172 0 0)
(16.3215 0 0)
(16.3259 0 0)
(16.3302 0 0)
(16.3345 0 0)
(16.3387 0 0)
(16.3429 0 0)
(16.3471 0 0)
(16.3512 0 0)
(16.3553 0 0)
(16.3594 0 0)
(16.3634 0 0)
(16.3674 0 0)
(16.3714 0 0)
(16.3753 0 0)
(16.3792 0 0)
(16.383 0 0)
(16.3869 0 0)
(16.3907 0 0)
(16.3944 0 0)
(16.3982 0 0)
(16.4019 0 0)
(16.4056 0 0)
(16.4092 0 0)
(16.4128 0 0)
(16.4164 0 0)
(16.42 0 0)
(16.4235 0 0)
(16.427 0 0)
(16.4305 0 0)
(16.4339 0 0)
(16.4374 0 0)
(16.4408 0 0)
(16.4442 0 0)
(16.4475 0 0)
(16.4509 0 0)
(16.4542 0 0)
(16.4575 0 0)
(16.4608 0 0)
(16.4641 0 0)
(16.4674 0 0)
(16.4707 0 0)
(16.4739 0 0)
(16.477 0 0)
(16.4797 0 0)
(16.4816 0 0)
)
;

boundaryField
{
    boundary
    {
        type            empty;
    }
    inlet
    {
        type            fixedValue;
        value           uniform (2.34893 0 0);
    }
    outlet
    {
        type            zeroGradient;
    }
}


// ************************************************************************* //
