/*--------------------------------*- C++ -*----------------------------------*\
  =========                 |
  \\      /  F ield         | OpenFOAM: The Open Source CFD Toolbox
   \\    /   O peration     | Website:  https://openfoam.org
    \\  /    A nd           | Version:  7
     \\/     M anipulation  |
\*---------------------------------------------------------------------------*/
FoamFile
{
    version     2.0;
    format      ascii;
    class       volScalarField;
    location    "0.00078";
    object      H2O;
}
// * * * * * * * * * * * * * * * * * * * * * * * * * * * * * * * * * * * * * //

dimensions      [0 0 0 0 0 0 0];

internalField   nonuniform List<scalar> 
500
(
7.878e-48
2.27571e-47
4.09224e-47
6.12903e-47
8.31246e-47
1.05927e-46
1.29363e-46
1.53206e-46
1.7731e-46
2.01581e-46
2.25965e-46
2.50436e-46
2.74986e-46
2.9962e-46
3.24353e-46
3.49202e-46
3.74187e-46
3.99324e-46
4.24632e-46
4.50122e-46
4.75808e-46
5.017e-46
5.27808e-46
5.54146e-46
5.8073e-46
6.07582e-46
6.34729e-46
6.62208e-46
6.90065e-46
7.18358e-46
7.47154e-46
7.76532e-46
8.06584e-46
8.3741e-46
8.6912e-46
9.0183e-46
9.35663e-46
9.7074e-46
1.00718e-45
1.0451e-45
1.08459e-45
1.12573e-45
1.1686e-45
1.2132e-45
1.25954e-45
1.30759e-45
1.35725e-45
1.40839e-45
1.46086e-45
1.51444e-45
1.56886e-45
1.62386e-45
1.67909e-45
1.73423e-45
1.78892e-45
1.84279e-45
1.89548e-45
1.94665e-45
1.99598e-45
2.04318e-45
2.08799e-45
2.13022e-45
2.16969e-45
2.20629e-45
2.23998e-45
2.27072e-45
2.29856e-45
2.32357e-45
2.34585e-45
2.36555e-45
2.38282e-45
2.39785e-45
2.41082e-45
2.42193e-45
2.43137e-45
2.43933e-45
2.44599e-45
2.45152e-45
2.45608e-45
2.4598e-45
2.46283e-45
2.46527e-45
2.46722e-45
2.46877e-45
2.46999e-45
2.47095e-45
2.4717e-45
2.47228e-45
2.47273e-45
2.47307e-45
2.47333e-45
2.47354e-45
2.47369e-45
2.47381e-45
2.4739e-45
2.47397e-45
2.47403e-45
2.47408e-45
2.47412e-45
2.47416e-45
2.47419e-45
2.47422e-45
2.47425e-45
2.47428e-45
2.47431e-45
2.47434e-45
2.47438e-45
2.47441e-45
2.47445e-45
2.47448e-45
2.47452e-45
2.47456e-45
2.47461e-45
2.47465e-45
2.4747e-45
2.47475e-45
2.4748e-45
2.47485e-45
2.47491e-45
2.47497e-45
2.47502e-45
2.47504e-45
2.47497e-45
2.47453e-45
2.47273e-45
2.46938e-45
2.46946e-45
2.46955e-45
2.46964e-45
2.46974e-45
2.46985e-45
2.46995e-45
2.47006e-45
2.47017e-45
2.47028e-45
2.47039e-45
2.4705e-45
2.47062e-45
2.47075e-45
2.47088e-45
2.47103e-45
2.4712e-45
2.47138e-45
2.47159e-45
2.47184e-45
2.47211e-45
2.47242e-45
2.47277e-45
2.47315e-45
2.47357e-45
2.47402e-45
2.47449e-45
2.47498e-45
2.47548e-45
2.47599e-45
2.47649e-45
2.47699e-45
2.47746e-45
2.47791e-45
2.47832e-45
2.47871e-45
2.47905e-45
2.47936e-45
2.47963e-45
2.47987e-45
2.48008e-45
2.48026e-45
2.48042e-45
2.48057e-45
2.48071e-45
2.48084e-45
2.48097e-45
2.48111e-45
2.48126e-45
2.48142e-45
2.48159e-45
2.48178e-45
2.48199e-45
2.48222e-45
2.48246e-45
2.48271e-45
2.48298e-45
2.48326e-45
2.48354e-45
2.48383e-45
2.48413e-45
2.48442e-45
2.4847e-45
2.48498e-45
2.48525e-45
2.48552e-45
2.48577e-45
2.486e-45
2.48623e-45
2.48645e-45
2.48668e-45
2.487e-45
2.48768e-45
2.48975e-45
2.49688e-45
2.52234e-45
2.61364e-45
2.94019e-45
4.10266e-45
8.22094e-45
2.27425e-44
7.37251e-44
2.5202e-43
8.73476e-43
3.03391e-42
1.05313e-41
3.65309e-41
1.26741e-40
4.40359e-40
1.53458e-39
5.37281e-39
1.89329e-38
6.72666e-38
2.41349e-37
8.75629e-37
3.21512e-36
1.19514e-35
4.49662e-35
1.71113e-34
6.57834e-34
2.55144e-33
9.96873e-33
3.91776e-32
1.54662e-31
6.12566e-31
2.43167e-30
9.66674e-30
3.84591e-29
1.53056e-28
6.09087e-28
2.42316e-27
9.63584e-27
3.8297e-26
1.52121e-25
6.03902e-25
2.39609e-24
9.50195e-24
3.7663e-23
1.49219e-22
5.90957e-22
2.33946e-21
9.25769e-21
3.66197e-20
1.4479e-19
5.72213e-19
2.26022e-18
8.97554e-18
3.55046e-17
1.40037e-16
5.51586e-16
2.17042e-15
8.53213e-15
3.35088e-14
1.31481e-13
5.15467e-13
2.01937e-12
7.90628e-12
3.09421e-11
1.2107e-10
4.73721e-10
1.85394e-09
7.25826e-09
2.84305e-08
1.11423e-07
4.36895e-07
1.71357e-06
6.71921e-06
2.63024e-05
0.000102376
0.000391812
0.00143152
0.00467456
0.0123934
0.0254066
0.0422375
0.062616
0.0868091
0.11281
0.136566
0.154979
0.170951
0.180338
0.186641
0.190924
0.193919
0.196105
0.19778
0.199129
0.200265
0.201256
0.202145
0.202959
0.203715
0.204424
0.205094
0.20573
0.206337
0.206917
0.207472
0.208005
0.208518
0.209011
0.209486
0.209945
0.210387
0.210814
0.211226
0.211612
0.21198
0.212338
0.212688
0.213028
0.213361
0.213685
0.214002
0.214312
0.214614
0.21491
0.2152
0.215483
0.21576
0.216032
0.216298
0.216559
0.216814
0.217065
0.217311
0.217552
0.217789
0.218022
0.218251
0.218475
0.218696
0.218913
0.219127
0.219337
0.219544
0.219747
0.219948
0.220146
0.22034
0.220532
0.220721
0.220907
0.221091
0.221272
0.221451
0.221627
0.221801
0.221973
0.222142
0.22231
0.222475
0.222638
0.222799
0.222958
0.223115
0.22327
0.223423
0.223574
0.223724
0.223871
0.224017
0.224161
0.224304
0.224445
0.224584
0.224721
0.224857
0.224991
0.225124
0.225255
0.225385
0.225513
0.22564
0.225765
0.22589
0.226012
0.226134
0.226254
0.226373
0.226491
0.226607
0.226722
0.226837
0.226949
0.227061
0.227172
0.227281
0.22739
0.227497
0.227604
0.227709
0.227814
0.227917
0.228019
0.228121
0.228221
0.228321
0.228419
0.228517
0.228614
0.22871
0.228805
0.228899
0.228992
0.229085
0.229176
0.229267
0.229357
0.229447
0.229535
0.229623
0.229709
0.229795
0.229881
0.229965
0.230049
0.230132
0.230215
0.230296
0.230377
0.230458
0.230537
0.230616
0.230695
0.230772
0.230849
0.230926
0.231001
0.231077
0.231151
0.231225
0.231299
0.231372
0.231444
0.231516
0.231587
0.231658
0.231728
0.231798
0.231868
0.231937
0.232005
0.232073
0.232141
0.232208
0.232275
0.232342
0.232408
0.232474
0.23254
0.232605
0.232671
0.232736
0.2328
0.232865
0.232929
0.232993
0.233057
0.233121
0.233185
0.233249
0.233313
0.233377
0.233441
0.233505
0.233569
0.233633
0.233698
0.233763
0.233828
0.233893
0.233959
0.234025
0.234092
0.234159
0.234227
0.234296
0.234365
0.234436
0.234507
0.234578
0.234651
0.234724
0.234803
0.234907
0.234984
0.235062
0.235141
0.23522
0.235297
0.235369
0.235433
0.235476
)
;

boundaryField
{
    boundary
    {
        type            empty;
    }
    inlet
    {
        type            fixedValue;
        value           uniform 0;
    }
    outlet
    {
        type            zeroGradient;
    }
}


// ************************************************************************* //
