/*--------------------------------*- C++ -*----------------------------------*\
  =========                 |
  \\      /  F ield         | OpenFOAM: The Open Source CFD Toolbox
   \\    /   O peration     | Website:  https://openfoam.org
    \\  /    A nd           | Version:  7
     \\/     M anipulation  |
\*---------------------------------------------------------------------------*/
FoamFile
{
    version     2.0;
    format      ascii;
    class       volScalarField;
    location    "0.00078";
    object      H2O2;
}
// * * * * * * * * * * * * * * * * * * * * * * * * * * * * * * * * * * * * * //

dimensions      [0 0 0 0 0 0 0];

internalField   nonuniform List<scalar> 
500
(
1.99039e-52
6.39192e-52
1.26996e-51
2.09076e-51
3.10084e-51
4.29932e-51
5.68534e-51
7.25819e-51
9.01742e-51
1.0963e-50
1.30953e-50
1.54154e-50
1.79248e-50
2.06255e-50
2.35199e-50
2.66107e-50
2.99006e-50
3.33925e-50
3.70894e-50
4.0994e-50
4.51091e-50
4.94379e-50
5.39836e-50
5.875e-50
6.37418e-50
6.89645e-50
7.4425e-50
8.01319e-50
8.60955e-50
9.23282e-50
9.88449e-50
1.05662e-49
1.128e-49
1.2028e-49
1.28125e-49
1.36361e-49
1.45014e-49
1.54109e-49
1.63673e-49
1.73728e-49
1.84295e-49
1.9539e-49
2.0702e-49
2.19189e-49
2.31889e-49
2.45101e-49
2.58797e-49
2.72937e-49
2.87467e-49
3.02322e-49
3.17428e-49
3.32697e-49
3.48035e-49
3.63343e-49
3.78515e-49
3.93446e-49
4.08032e-49
4.22175e-49
4.35782e-49
4.48772e-49
4.61073e-49
4.72629e-49
4.83396e-49
4.93346e-49
5.02466e-49
5.10754e-49
5.18226e-49
5.24904e-49
5.30825e-49
5.36031e-49
5.40571e-49
5.44497e-49
5.47865e-49
5.50731e-49
5.5315e-49
5.55176e-49
5.56859e-49
5.58247e-49
5.59382e-49
5.60303e-49
5.61046e-49
5.6164e-49
5.62111e-49
5.62483e-49
5.62774e-49
5.63001e-49
5.63176e-49
5.6331e-49
5.63414e-49
5.63492e-49
5.63552e-49
5.63597e-49
5.63632e-49
5.63658e-49
5.63679e-49
5.63695e-49
5.63708e-49
5.63719e-49
5.63728e-49
5.63737e-49
5.63744e-49
5.63752e-49
5.63759e-49
5.63767e-49
5.63774e-49
5.63782e-49
5.6379e-49
5.63798e-49
5.63807e-49
5.63816e-49
5.63826e-49
5.63836e-49
5.63847e-49
5.63858e-49
5.6387e-49
5.63882e-49
5.63895e-49
5.63908e-49
5.63922e-49
5.63936e-49
5.63948e-49
5.63952e-49
5.6392e-49
5.63746e-49
5.63015e-49
5.61563e-49
5.61584e-49
5.61606e-49
5.6163e-49
5.61654e-49
5.6168e-49
5.61706e-49
5.61732e-49
5.61759e-49
5.61786e-49
5.61814e-49
5.61842e-49
5.61871e-49
5.61902e-49
5.61935e-49
5.61971e-49
5.62012e-49
5.62058e-49
5.62111e-49
5.62172e-49
5.62242e-49
5.62322e-49
5.62414e-49
5.62516e-49
5.62629e-49
5.62752e-49
5.62883e-49
5.63022e-49
5.63165e-49
5.6331e-49
5.63454e-49
5.63595e-49
5.63729e-49
5.63855e-49
5.63969e-49
5.64071e-49
5.6416e-49
5.64236e-49
5.64299e-49
5.64351e-49
5.64394e-49
5.64429e-49
5.6446e-49
5.64489e-49
5.64519e-49
5.64552e-49
5.6459e-49
5.64635e-49
5.64689e-49
5.64752e-49
5.64824e-49
5.64906e-49
5.64997e-49
5.65096e-49
5.65202e-49
5.65313e-49
5.65428e-49
5.65546e-49
5.65664e-49
5.65783e-49
5.65899e-49
5.66013e-49
5.66123e-49
5.66228e-49
5.66327e-49
5.66421e-49
5.66508e-49
5.66589e-49
5.66664e-49
5.66732e-49
5.66794e-49
5.66849e-49
5.66899e-49
5.66944e-49
5.66987e-49
5.67045e-49
5.67207e-49
5.67913e-49
5.7139e-49
5.8877e-49
6.75362e-49
1.10402e-48
3.21161e-48
1.35034e-47
6.34213e-47
3.0392e-46
1.45498e-45
6.92832e-45
3.27878e-44
1.54197e-43
7.20697e-43
3.34809e-42
1.54621e-41
7.09965e-41
3.2417e-40
1.47216e-39
6.65071e-39
2.9895e-38
1.33734e-37
5.95516e-37
2.64033e-36
1.16585e-35
5.12805e-35
2.24751e-34
9.81755e-34
4.27532e-33
1.85656e-32
8.04153e-32
3.47506e-31
1.4986e-30
6.45072e-30
2.7722e-29
1.18967e-28
5.09906e-28
2.1832e-27
9.33907e-27
3.99186e-26
1.70513e-25
7.27923e-25
3.10589e-24
1.32457e-23
5.6462e-23
2.40561e-22
1.0244e-21
4.35977e-21
1.85432e-20
7.93036e-20
3.37675e-19
1.43347e-18
6.07654e-18
2.573e-17
1.08834e-16
4.59879e-16
1.94138e-15
8.18863e-15
3.45154e-14
1.45413e-13
6.12462e-13
2.57957e-12
1.08671e-11
4.58002e-11
1.93143e-10
8.15067e-10
3.44206e-09
1.45449e-08
6.14772e-08
2.59593e-07
1.09037e-06
4.48686e-06
1.71945e-05
5.31304e-05
0.000101953
0.000124926
0.000100104
5.25557e-05
2.17366e-05
9.01643e-06
5.09006e-06
4.423e-06
4.80782e-06
5.52546e-06
6.07579e-06
6.46223e-06
6.68344e-06
6.76944e-06
6.75525e-06
6.67122e-06
6.54077e-06
6.38098e-06
6.20388e-06
6.01788e-06
5.82865e-06
5.64009e-06
5.45475e-06
5.2743e-06
5.0998e-06
4.93183e-06
4.77071e-06
4.61653e-06
4.46926e-06
4.32875e-06
4.1948e-06
4.06716e-06
3.94559e-06
3.82983e-06
3.71963e-06
3.61481e-06
3.51819e-06
3.4273e-06
3.34007e-06
3.25632e-06
3.17586e-06
3.09854e-06
3.02421e-06
2.95272e-06
2.88393e-06
2.81772e-06
2.75397e-06
2.69255e-06
2.63335e-06
2.57627e-06
2.52121e-06
2.46808e-06
2.41678e-06
2.36724e-06
2.31936e-06
2.27308e-06
2.22832e-06
2.18502e-06
2.14311e-06
2.10253e-06
2.06322e-06
2.02513e-06
1.9882e-06
1.95239e-06
1.91764e-06
1.88392e-06
1.85118e-06
1.81939e-06
1.78849e-06
1.75847e-06
1.72928e-06
1.70089e-06
1.67328e-06
1.6464e-06
1.62024e-06
1.59477e-06
1.56996e-06
1.54578e-06
1.52223e-06
1.49926e-06
1.47687e-06
1.45503e-06
1.43373e-06
1.41295e-06
1.39266e-06
1.37285e-06
1.35352e-06
1.33463e-06
1.31619e-06
1.29816e-06
1.28055e-06
1.26334e-06
1.24651e-06
1.23006e-06
1.21397e-06
1.19824e-06
1.18285e-06
1.1678e-06
1.15309e-06
1.13871e-06
1.12462e-06
1.11077e-06
1.0972e-06
1.08391e-06
1.07088e-06
1.05812e-06
1.04561e-06
1.03334e-06
1.02132e-06
1.00952e-06
9.97959e-07
9.86615e-07
9.75486e-07
9.64565e-07
9.53849e-07
9.4333e-07
9.33005e-07
9.22868e-07
9.12915e-07
9.0314e-07
8.93539e-07
8.84109e-07
8.74844e-07
8.65741e-07
8.56796e-07
8.48005e-07
8.39365e-07
8.30872e-07
8.22522e-07
8.14313e-07
8.06241e-07
7.98302e-07
7.90495e-07
7.82816e-07
7.75263e-07
7.67831e-07
7.6052e-07
7.53327e-07
7.46247e-07
7.39281e-07
7.32424e-07
7.25675e-07
7.19031e-07
7.12491e-07
7.06052e-07
6.99711e-07
6.93468e-07
6.8732e-07
6.81265e-07
6.753e-07
6.69426e-07
6.63639e-07
6.57937e-07
6.5232e-07
6.46785e-07
6.41331e-07
6.35956e-07
6.30658e-07
6.25437e-07
6.20289e-07
6.15215e-07
6.10213e-07
6.0528e-07
6.00416e-07
5.9562e-07
5.90889e-07
5.86223e-07
5.81621e-07
5.77081e-07
5.72601e-07
5.68181e-07
5.6382e-07
5.59516e-07
5.55268e-07
5.51075e-07
5.46937e-07
5.42851e-07
5.38817e-07
5.34834e-07
5.30901e-07
5.27017e-07
5.2318e-07
5.19391e-07
5.15647e-07
5.11948e-07
5.08293e-07
5.04682e-07
5.01112e-07
4.97584e-07
4.94096e-07
4.90648e-07
4.87238e-07
4.83866e-07
4.8053e-07
4.7723e-07
4.73965e-07
4.70734e-07
4.67536e-07
4.64369e-07
4.61234e-07
4.58128e-07
4.55051e-07
4.52002e-07
4.48979e-07
4.45981e-07
4.43008e-07
4.40057e-07
4.37128e-07
4.34219e-07
4.31328e-07
4.28454e-07
4.25598e-07
4.22763e-07
4.1989e-07
4.17075e-07
4.1324e-07
4.1048e-07
4.07711e-07
4.04968e-07
4.02284e-07
3.9971e-07
3.97332e-07
3.95314e-07
3.9398e-07
)
;

boundaryField
{
    boundary
    {
        type            empty;
    }
    inlet
    {
        type            fixedValue;
        value           uniform 0;
    }
    outlet
    {
        type            zeroGradient;
    }
}


// ************************************************************************* //
