/*--------------------------------*- C++ -*----------------------------------*\
  =========                 |
  \\      /  F ield         | OpenFOAM: The Open Source CFD Toolbox
   \\    /   O peration     | Website:  https://openfoam.org
    \\  /    A nd           | Version:  7
     \\/     M anipulation  |
\*---------------------------------------------------------------------------*/
FoamFile
{
    version     2.0;
    format      ascii;
    class       volScalarField;
    location    "0.00078";
    object      O;
}
// * * * * * * * * * * * * * * * * * * * * * * * * * * * * * * * * * * * * * //

dimensions      [0 0 0 0 0 0 0];

internalField   nonuniform List<scalar> 
500
(
1.57682e-47
3.76083e-47
5.95463e-47
8.14578e-47
1.03308e-46
1.25081e-46
1.46771e-46
1.68375e-46
1.89895e-46
2.11338e-46
2.32718e-46
2.5405e-46
2.75358e-46
2.96663e-46
3.17992e-46
3.39368e-46
3.60814e-46
3.82351e-46
4.03996e-46
4.25765e-46
4.4767e-46
4.69724e-46
4.91939e-46
5.14328e-46
5.36909e-46
5.59703e-46
5.82736e-46
6.06042e-46
6.29662e-46
6.53645e-46
6.78049e-46
7.0294e-46
7.28393e-46
7.54488e-46
7.81314e-46
8.08961e-46
8.37521e-46
8.67088e-46
8.97749e-46
9.29586e-46
9.62668e-46
9.97051e-46
1.03277e-45
1.06985e-45
1.10827e-45
1.14799e-45
1.18896e-45
1.23106e-45
1.27416e-45
1.31812e-45
1.36272e-45
1.40776e-45
1.453e-45
1.49817e-45
1.54301e-45
1.58724e-45
1.63059e-45
1.67281e-45
1.71362e-45
1.75282e-45
1.7902e-45
1.82558e-45
1.85882e-45
1.88984e-45
1.91855e-45
1.94495e-45
1.96902e-45
1.99081e-45
2.01039e-45
2.02785e-45
2.0433e-45
2.05687e-45
2.0687e-45
2.07893e-45
2.08773e-45
2.09522e-45
2.10156e-45
2.10689e-45
2.11134e-45
2.11502e-45
2.11804e-45
2.12051e-45
2.12252e-45
2.12413e-45
2.12542e-45
2.12645e-45
2.12726e-45
2.12789e-45
2.12839e-45
2.12878e-45
2.12908e-45
2.12931e-45
2.12948e-45
2.12962e-45
2.12973e-45
2.12981e-45
2.12988e-45
2.12993e-45
2.12998e-45
2.13002e-45
2.13005e-45
2.13008e-45
2.13011e-45
2.13014e-45
2.13017e-45
2.1302e-45
2.13023e-45
2.13026e-45
2.13029e-45
2.13032e-45
2.13035e-45
2.13039e-45
2.13043e-45
2.13047e-45
2.13051e-45
2.13055e-45
2.13059e-45
2.13064e-45
2.13069e-45
2.13073e-45
2.13075e-45
2.13073e-45
2.13056e-45
2.12997e-45
2.12816e-45
2.12552e-45
2.12559e-45
2.12567e-45
2.12576e-45
2.12585e-45
2.12594e-45
2.12604e-45
2.12615e-45
2.12625e-45
2.12637e-45
2.12649e-45
2.12662e-45
2.12676e-45
2.12691e-45
2.12709e-45
2.12728e-45
2.12749e-45
2.12774e-45
2.12801e-45
2.12831e-45
2.12863e-45
2.12899e-45
2.12937e-45
2.12976e-45
2.13018e-45
2.1306e-45
2.13102e-45
2.13145e-45
2.13186e-45
2.13226e-45
2.13264e-45
2.133e-45
2.13334e-45
2.13365e-45
2.13394e-45
2.1342e-45
2.13444e-45
2.13466e-45
2.13486e-45
2.13505e-45
2.13522e-45
2.13539e-45
2.13555e-45
2.1357e-45
2.13585e-45
2.13601e-45
2.13616e-45
2.13632e-45
2.13648e-45
2.13665e-45
2.13682e-45
2.137e-45
2.13719e-45
2.13738e-45
2.13758e-45
2.13779e-45
2.13799e-45
2.13821e-45
2.13842e-45
2.13864e-45
2.13885e-45
2.13907e-45
2.13928e-45
2.13949e-45
2.13969e-45
2.1399e-45
2.14014e-45
2.14052e-45
2.14141e-45
2.14423e-45
2.1542e-45
2.19025e-45
2.32102e-45
2.79352e-45
4.49155e-45
1.05586e-44
3.21092e-44
1.08211e-43
3.75388e-43
1.30796e-42
4.54439e-42
1.57124e-41
5.40332e-41
1.84792e-40
6.28517e-40
2.12614e-39
7.15391e-39
2.39448e-38
7.9733e-38
2.64165e-37
8.70909e-37
2.85752e-36
9.33225e-36
3.03408e-35
9.82156e-35
3.16606e-34
1.01652e-33
3.25128e-33
1.03612e-32
3.29056e-32
1.04163e-31
3.28724e-31
1.03444e-30
3.24656e-30
1.01641e-29
3.17487e-29
9.89637e-29
3.07893e-28
9.56256e-28
2.96532e-27
9.18258e-27
2.84e-26
8.77391e-26
2.70799e-25
8.3509e-25
2.57333e-24
7.92454e-24
2.43894e-23
7.50247e-23
2.30675e-22
7.08925e-22
2.17775e-21
6.68687e-21
2.05228e-20
6.29559e-20
1.93024e-19
5.94287e-19
1.82519e-18
5.59059e-18
1.71021e-17
5.22728e-17
1.59664e-16
4.87401e-16
1.48716e-15
4.53601e-15
1.38322e-14
4.21775e-14
1.28618e-13
3.923e-13
1.19696e-12
3.65358e-12
1.11572e-11
3.40879e-11
1.04196e-10
3.18656e-10
9.75287e-10
2.9912e-09
9.2453e-09
2.94621e-08
1.04484e-07
4.83447e-07
3.12084e-06
2.0733e-05
0.000101748
0.000397709
0.0011479
0.00236233
0.00372833
0.00489761
0.00571608
0.0062041
0.00640565
0.00644627
0.00638844
0.00627372
0.00612864
0.00596947
0.00580588
0.00564347
0.00548534
0.0053331
0.00518749
0.00504873
0.00491673
0.00479127
0.00467204
0.00455868
0.00445085
0.00434819
0.00425037
0.00415708
0.00406802
0.00398293
0.00390157
0.0038237
0.00374914
0.00367773
0.00361139
0.00354873
0.00348817
0.00342961
0.00337294
0.00331806
0.00326489
0.00321335
0.00316337
0.00311487
0.00306779
0.00302207
0.00297764
0.00293445
0.00289245
0.00285159
0.00281183
0.0027731
0.00273538
0.00269863
0.00266279
0.00262785
0.00259375
0.00256047
0.00252799
0.00249625
0.00246525
0.00243495
0.00240533
0.00237635
0.00234801
0.00232027
0.00229312
0.00226653
0.0022405
0.00221499
0.00218999
0.00216549
0.00214147
0.00211792
0.00209482
0.00207216
0.00204993
0.00202812
0.00200671
0.0019857
0.00196506
0.00194481
0.00192492
0.00190538
0.00188619
0.00186734
0.00184882
0.00183062
0.00181274
0.00179516
0.00177789
0.00176091
0.00174422
0.00172781
0.00171168
0.00169582
0.00168022
0.0016649
0.0016498
0.00163491
0.00162026
0.00160583
0.00159164
0.00157766
0.00156389
0.00155034
0.00153699
0.00152384
0.00151088
0.00149812
0.00148554
0.00147315
0.00146093
0.00144889
0.00143703
0.00142533
0.00141379
0.00140241
0.00139119
0.00138013
0.00136922
0.00135845
0.00134784
0.00133736
0.00132703
0.00131683
0.00130677
0.00129684
0.00128704
0.00127737
0.00126782
0.0012584
0.0012491
0.00123992
0.00123086
0.00122192
0.00121309
0.00120437
0.00119576
0.00118726
0.00117886
0.00117057
0.00116239
0.00115431
0.00114632
0.00113844
0.00113065
0.00112296
0.00111536
0.00110785
0.00110044
0.00109311
0.00108588
0.00107872
0.00107166
0.00106467
0.00105777
0.00105095
0.00104421
0.00103754
0.00103096
0.00102444
0.001018
0.00101164
0.00100534
0.000999111
0.000992952
0.00098686
0.000980833
0.000974871
0.000968972
0.000963135
0.000957359
0.000951642
0.000945984
0.000940383
0.000934839
0.000929349
0.000923914
0.000918532
0.000913201
0.000907921
0.000902691
0.000897509
0.000892375
0.000887286
0.000882242
0.000877242
0.000872283
0.000867366
0.000862488
0.000857648
0.000852844
0.000848074
0.000843338
0.000838633
0.000833956
0.000829307
0.000824683
0.000820081
0.0008155
0.000810936
0.000806388
0.000801852
0.000797326
0.000792806
0.00078829
0.000783774
0.000779257
0.000774736
0.000770209
0.000765638
0.000760971
0.000754967
0.000750392
0.000745813
0.000741263
0.000736798
0.000732506
0.000728547
0.00072521
0.000723031
)
;

boundaryField
{
    boundary
    {
        type            empty;
    }
    inlet
    {
        type            fixedValue;
        value           uniform 0;
    }
    outlet
    {
        type            zeroGradient;
    }
}


// ************************************************************************* //
