/*--------------------------------*- C++ -*----------------------------------*\
  =========                 |
  \\      /  F ield         | OpenFOAM: The Open Source CFD Toolbox
   \\    /   O peration     | Website:  https://openfoam.org
    \\  /    A nd           | Version:  7
     \\/     M anipulation  |
\*---------------------------------------------------------------------------*/
FoamFile
{
    version     2.0;
    format      ascii;
    class       volScalarField;
    location    "0.00078";
    object      O2;
}
// * * * * * * * * * * * * * * * * * * * * * * * * * * * * * * * * * * * * * //

dimensions      [0 0 0 0 0 0 0];

internalField   nonuniform List<scalar> 
500
(
0.226269
0.226269
0.226269
0.226269
0.226269
0.226269
0.226269
0.226269
0.226269
0.226269
0.226269
0.226269
0.226269
0.226269
0.226269
0.226269
0.226269
0.226269
0.226269
0.226269
0.226269
0.226269
0.226269
0.226269
0.226269
0.226269
0.226269
0.226269
0.226269
0.226269
0.226269
0.226269
0.226269
0.226269
0.226269
0.226269
0.226269
0.226269
0.226269
0.226269
0.226269
0.226269
0.226269
0.226269
0.226269
0.226269
0.226269
0.226269
0.226269
0.226269
0.226269
0.226269
0.226269
0.226269
0.226269
0.226269
0.226269
0.226269
0.226269
0.226269
0.226269
0.226269
0.226269
0.226269
0.226269
0.226269
0.226269
0.226269
0.226269
0.226269
0.226269
0.226269
0.226269
0.226269
0.226269
0.226269
0.226269
0.226269
0.226269
0.226269
0.226269
0.226269
0.226269
0.226269
0.226269
0.226269
0.226269
0.226269
0.226269
0.226269
0.226269
0.226269
0.226269
0.226269
0.226269
0.226269
0.226269
0.226269
0.226269
0.226269
0.226269
0.226269
0.226269
0.226269
0.226269
0.226269
0.226269
0.226269
0.226269
0.226269
0.226269
0.226269
0.226269
0.226269
0.226269
0.226269
0.226269
0.226269
0.226269
0.226269
0.226269
0.226269
0.226269
0.226269
0.226269
0.226269
0.226269
0.226269
0.226269
0.226269
0.226269
0.226269
0.226269
0.226269
0.226269
0.226269
0.226269
0.226269
0.226269
0.226269
0.226269
0.226269
0.226269
0.226269
0.226269
0.226269
0.226269
0.226269
0.226269
0.226269
0.226269
0.226269
0.226269
0.226269
0.226269
0.226269
0.226269
0.226269
0.226269
0.226269
0.226269
0.226269
0.226269
0.226269
0.226269
0.226269
0.226269
0.226269
0.226269
0.226269
0.226269
0.226269
0.226269
0.226269
0.226269
0.226269
0.226269
0.226269
0.226269
0.226269
0.226269
0.226269
0.226269
0.226269
0.226269
0.226269
0.226269
0.226269
0.226269
0.226269
0.226269
0.226269
0.226269
0.226269
0.226269
0.226269
0.226269
0.226269
0.226269
0.226269
0.226269
0.226269
0.226269
0.226269
0.226269
0.226269
0.226269
0.226269
0.226269
0.226269
0.226269
0.226269
0.226269
0.226269
0.226269
0.226269
0.226269
0.226269
0.226269
0.226269
0.226269
0.226269
0.226269
0.226269
0.226269
0.226269
0.226269
0.226269
0.226269
0.226269
0.226269
0.226269
0.226269
0.226269
0.226269
0.226269
0.226269
0.226269
0.226269
0.226269
0.226269
0.226269
0.226269
0.226269
0.226269
0.226269
0.226269
0.226269
0.226269
0.226269
0.226269
0.226269
0.226269
0.226269
0.226269
0.226269
0.226269
0.226269
0.226269
0.226269
0.226269
0.226269
0.226269
0.226269
0.226269
0.226269
0.226269
0.22627
0.22627
0.226272
0.226275
0.226278
0.226275
0.226232
0.226012
0.225155
0.222533
0.216209
0.205286
0.191007
0.172874
0.149969
0.124172
0.0999031
0.0808192
0.0636431
0.0535743
0.0467675
0.0421503
0.0389536
0.0366663
0.0349621
0.0336361
0.0325606
0.0316557
0.030871
0.0301744
0.0295447
0.0289678
0.028434
0.0279363
0.0274697
0.0270303
0.026615
0.0262213
0.0258472
0.025491
0.0251513
0.0248267
0.0245163
0.0242192
0.0239349
0.0236712
0.0234208
0.0231785
0.0229437
0.0227162
0.0224955
0.0222813
0.0220733
0.0218712
0.0216747
0.0214836
0.0212975
0.0211163
0.0209397
0.0207676
0.0205997
0.0204358
0.0202758
0.0201196
0.0199668
0.0198174
0.0196713
0.0195283
0.0193882
0.019251
0.0191165
0.0189846
0.0188552
0.0187282
0.0186035
0.018481
0.0183606
0.0182423
0.0181259
0.0180115
0.0178988
0.017788
0.0176789
0.0175714
0.0174656
0.0173613
0.0172586
0.0171573
0.0170575
0.0169592
0.0168622
0.0167666
0.0166723
0.0165793
0.0164876
0.0163972
0.016308
0.01622
0.0161332
0.0160476
0.0159632
0.0158798
0.0157976
0.0157165
0.0156364
0.0155574
0.0154794
0.0154025
0.0153265
0.0152516
0.0151775
0.0151044
0.0150322
0.0149608
0.0148904
0.0148208
0.014752
0.014684
0.0146168
0.0145504
0.0144848
0.0144199
0.0143557
0.0142923
0.0142295
0.0141674
0.014106
0.0140452
0.0139851
0.0139256
0.0138667
0.0138085
0.0137508
0.0136937
0.0136372
0.0135813
0.013526
0.0134712
0.0134169
0.0133632
0.01331
0.0132574
0.0132053
0.0131537
0.0131026
0.013052
0.0130018
0.0129522
0.0129031
0.0128545
0.0128063
0.0127586
0.0127113
0.0126646
0.0126182
0.0125723
0.0125269
0.0124819
0.0124373
0.0123931
0.0123494
0.012306
0.012263
0.0122205
0.0121783
0.0121365
0.012095
0.0120539
0.0120132
0.0119728
0.0119327
0.011893
0.0118535
0.0118143
0.0117755
0.0117369
0.0116986
0.0116605
0.0116226
0.011585
0.0115477
0.0115105
0.0114735
0.0114367
0.0114001
0.0113637
0.0113274
0.0112912
0.0112552
0.0112193
0.0111834
0.0111477
0.011112
0.0110763
0.0110407
0.0110052
0.0109696
0.010934
0.0108983
0.0108626
0.0108268
0.010791
0.0107549
0.0107188
0.0106824
0.0106458
0.010609
0.0105719
0.0105345
0.0104967
0.0104586
0.01042
0.0103809
0.0103413
0.0103012
0.0102604
0.010219
0.0101768
0.0101339
0.0100902
0.0100457
0.0100005
0.00995421
0.0099035
0.00983375
0.0097837
0.00973233
0.00967986
0.00962675
0.00957383
0.0095228
0.00947725
0.00944519
)
;

boundaryField
{
    boundary
    {
        type            empty;
    }
    inlet
    {
        type            fixedValue;
        value           uniform 0.226269;
    }
    outlet
    {
        type            zeroGradient;
    }
}


// ************************************************************************* //
