/*--------------------------------*- C++ -*----------------------------------*\
  =========                 |
  \\      /  F ield         | OpenFOAM: The Open Source CFD Toolbox
   \\    /   O peration     | Website:  https://openfoam.org
    \\  /    A nd           | Version:  7
     \\/     M anipulation  |
\*---------------------------------------------------------------------------*/
FoamFile
{
    version     2.0;
    format      ascii;
    class       volScalarField;
    location    "0.00078";
    object      OH;
}
// * * * * * * * * * * * * * * * * * * * * * * * * * * * * * * * * * * * * * //

dimensions      [0 0 0 0 0 0 0];

internalField   nonuniform List<scalar> 
500
(
9.38441e-48
1.82875e-47
2.43699e-47
2.84799e-47
3.12459e-47
3.31022e-47
3.43439e-47
3.517e-47
3.57149e-47
3.60696e-47
3.62962e-47
3.64373e-47
3.65225e-47
3.65725e-47
3.66019e-47
3.66211e-47
3.66374e-47
3.66561e-47
3.66806e-47
3.67131e-47
3.67551e-47
3.68074e-47
3.68702e-47
3.69439e-47
3.70283e-47
3.71238e-47
3.72305e-47
3.73491e-47
3.74805e-47
3.76256e-47
3.77862e-47
3.79641e-47
3.81614e-47
3.83808e-47
3.86248e-47
3.88967e-47
3.91994e-47
3.95363e-47
3.99106e-47
4.03254e-47
4.07837e-47
4.12881e-47
4.18411e-47
4.24444e-47
4.30993e-47
4.38063e-47
4.45652e-47
4.53749e-47
4.62333e-47
4.71375e-47
4.80835e-47
4.90665e-47
5.00804e-47
5.11189e-47
5.21743e-47
5.3239e-47
5.43046e-47
5.53627e-47
5.64049e-47
5.74231e-47
5.84098e-47
5.93579e-47
6.02614e-47
6.11152e-47
6.19152e-47
6.26587e-47
6.33438e-47
6.39699e-47
6.45374e-47
6.50474e-47
6.55021e-47
6.59043e-47
6.62572e-47
6.65644e-47
6.68297e-47
6.70571e-47
6.72505e-47
6.74139e-47
6.75508e-47
6.76647e-47
6.77588e-47
6.78359e-47
6.78988e-47
6.79497e-47
6.79907e-47
6.80234e-47
6.80494e-47
6.80699e-47
6.8086e-47
6.80986e-47
6.81085e-47
6.81161e-47
6.81221e-47
6.81267e-47
6.81304e-47
6.81333e-47
6.81356e-47
6.81375e-47
6.8139e-47
6.81404e-47
6.81416e-47
6.81427e-47
6.81438e-47
6.81448e-47
6.81458e-47
6.81468e-47
6.81479e-47
6.81489e-47
6.815e-47
6.81512e-47
6.81524e-47
6.81536e-47
6.81549e-47
6.81563e-47
6.81577e-47
6.81591e-47
6.81607e-47
6.81622e-47
6.81639e-47
6.81656e-47
6.81674e-47
6.81692e-47
6.81708e-47
6.81717e-47
6.817e-47
6.81668e-47
6.81706e-47
6.81749e-47
6.81796e-47
6.81844e-47
6.81893e-47
6.81941e-47
6.81988e-47
6.82033e-47
6.82074e-47
6.82112e-47
6.82145e-47
6.82175e-47
6.82201e-47
6.82224e-47
6.82244e-47
6.82264e-47
6.82284e-47
6.82305e-47
6.82328e-47
6.82353e-47
6.82382e-47
6.82414e-47
6.8245e-47
6.82489e-47
6.82531e-47
6.82576e-47
6.82624e-47
6.82673e-47
6.82723e-47
6.82775e-47
6.82827e-47
6.82879e-47
6.82932e-47
6.82985e-47
6.83038e-47
6.8309e-47
6.83143e-47
6.83195e-47
6.83248e-47
6.83301e-47
6.83354e-47
6.83408e-47
6.83461e-47
6.83516e-47
6.83571e-47
6.83626e-47
6.83682e-47
6.83738e-47
6.83796e-47
6.83853e-47
6.83911e-47
6.8397e-47
6.84029e-47
6.84088e-47
6.84148e-47
6.84207e-47
6.84267e-47
6.84326e-47
6.84384e-47
6.84442e-47
6.84499e-47
6.84555e-47
6.84609e-47
6.84663e-47
6.84714e-47
6.84765e-47
6.84816e-47
6.84874e-47
6.84964e-47
6.85176e-47
6.85842e-47
6.88164e-47
6.96467e-47
7.26238e-47
8.3257e-47
1.21033e-46
2.54467e-46
7.23062e-46
2.35917e-45
8.03886e-45
2.76436e-44
9.49322e-44
3.24599e-43
1.10418e-42
3.73605e-42
1.25739e-41
4.20965e-41
1.4021e-40
4.6464e-40
1.53219e-39
5.02835e-39
1.64253e-38
5.34121e-38
1.72932e-37
5.57561e-37
1.79046e-36
5.7276e-36
1.82556e-35
5.79853e-35
1.83579e-34
5.79425e-34
1.82359e-33
5.72404e-33
1.79229e-32
5.59929e-32
1.74567e-31
5.43232e-31
1.68768e-30
5.23561e-30
1.62223e-29
5.02142e-29
1.5532e-28
4.8023e-28
1.48477e-27
4.59278e-27
1.42226e-26
4.41331e-26
1.37394e-25
4.29866e-25
1.35483e-24
4.31511e-24
1.39456e-23
4.59619e-23
1.5536e-22
5.41651e-22
1.96708e-21
7.39987e-21
2.88608e-20
1.16531e-19
4.84913e-19
2.06798e-18
8.9883e-18
3.96232e-17
1.76468e-16
7.91644e-16
3.56937e-15
1.61501e-14
7.32504e-14
3.32794e-13
1.51378e-12
6.89181e-12
3.13983e-11
1.43131e-10
6.61005e-10
3.08192e-09
1.44721e-08
6.87121e-08
3.38571e-07
1.85209e-06
1.19868e-05
8.01563e-05
0.000350938
0.000693818
0.000866075
0.00108317
0.00162476
0.00260566
0.00390474
0.00528469
0.00671527
0.00780015
0.00866465
0.00934166
0.00986891
0.010281
0.0106055
0.0108635
0.0110702
0.0112371
0.0113724
0.0114823
0.0115716
0.0116438
0.0117018
0.0117477
0.0117835
0.0118105
0.01183
0.0118431
0.0118505
0.011853
0.0118512
0.0118457
0.0118368
0.0118251
0.0118108
0.0117948
0.0117775
0.0117586
0.0117383
0.0117167
0.0116939
0.0116701
0.0116454
0.0116198
0.0115934
0.0115664
0.0115388
0.0115106
0.011482
0.0114529
0.0114235
0.0113937
0.0113636
0.0113333
0.0113027
0.0112719
0.011241
0.0112099
0.0111786
0.0111473
0.0111158
0.0110843
0.0110527
0.0110211
0.0109894
0.0109577
0.0109259
0.0108942
0.0108625
0.0108307
0.010799
0.0107674
0.0107357
0.0107041
0.0106726
0.0106411
0.0106096
0.0105783
0.010547
0.0105158
0.0104847
0.0104537
0.0104229
0.0103921
0.0103614
0.0103309
0.0103005
0.0102702
0.0102401
0.0102101
0.0101802
0.0101505
0.0101209
0.0100915
0.0100623
0.0100332
0.0100042
0.00997542
0.00994678
0.00991828
0.0098899
0.00986169
0.00983363
0.00980573
0.00977798
0.00975039
0.00972294
0.00969565
0.00966851
0.00964151
0.00961466
0.00958796
0.00956141
0.009535
0.00950874
0.00948262
0.00945665
0.00943081
0.00940512
0.00937957
0.00935417
0.0093289
0.00930377
0.00927878
0.00925393
0.00922923
0.00920465
0.00918022
0.00915593
0.00913177
0.00910775
0.00908387
0.00906013
0.00903653
0.00901306
0.00898974
0.00896655
0.0089435
0.00892058
0.0088978
0.00887517
0.00885266
0.0088303
0.00880807
0.00878598
0.00876403
0.00874221
0.00872053
0.00869898
0.00867757
0.00865629
0.00863514
0.00861413
0.00859324
0.00857248
0.00855186
0.00853136
0.00851098
0.00849073
0.0084706
0.0084506
0.00843071
0.00841094
0.00839129
0.00837175
0.00835233
0.00833301
0.00831381
0.00829471
0.00827572
0.00825684
0.00823805
0.00821937
0.00820078
0.0081823
0.0081639
0.0081456
0.00812739
0.00810927
0.00809124
0.0080733
0.00805544
0.00803765
0.00801995
0.00800232
0.00798477
0.00796729
0.00794987
0.00793252
0.00791522
0.00789799
0.0078808
0.00786365
0.00784655
0.00782947
0.00781243
0.0077954
0.00777838
0.00776137
0.00774434
0.0077273
0.00771022
0.00769311
0.00767594
0.0076587
0.00764138
0.00762396
0.00760643
0.00758876
0.00757096
0.00755299
0.00753483
0.00751649
0.00749751
0.00747306
0.00745419
0.00743512
0.00741603
0.00739719
0.00737901
0.00736221
0.00734806
0.0073388
)
;

boundaryField
{
    boundary
    {
        type            empty;
    }
    inlet
    {
        type            fixedValue;
        value           uniform 0;
    }
    outlet
    {
        type            zeroGradient;
    }
}


// ************************************************************************* //
