/*--------------------------------*- C++ -*----------------------------------*\
  =========                 |
  \\      /  F ield         | OpenFOAM: The Open Source CFD Toolbox
   \\    /   O peration     | Website:  https://openfoam.org
    \\  /    A nd           | Version:  7
     \\/     M anipulation  |
\*---------------------------------------------------------------------------*/
FoamFile
{
    version     2.0;
    format      ascii;
    class       surfaceScalarField;
    location    "0.00078";
    object      phi;
}
// * * * * * * * * * * * * * * * * * * * * * * * * * * * * * * * * * * * * * //

dimensions      [1 0 -1 0 0 0 0];

internalField   nonuniform List<scalar> 
499
(
6.92999e-06
6.92988e-06
6.92979e-06
6.92971e-06
6.92965e-06
6.92961e-06
6.92958e-06
6.92957e-06
6.92957e-06
6.92959e-06
6.92961e-06
6.92965e-06
6.92969e-06
6.92972e-06
6.92976e-06
6.92978e-06
6.92979e-06
6.92978e-06
6.92976e-06
6.92972e-06
6.92965e-06
6.92957e-06
6.92947e-06
6.92935e-06
6.92921e-06
6.92905e-06
6.92888e-06
6.92868e-06
6.92847e-06
6.92823e-06
6.92797e-06
6.92769e-06
6.92738e-06
6.92704e-06
6.92666e-06
6.92624e-06
6.92578e-06
6.92528e-06
6.92472e-06
6.92411e-06
6.92343e-06
6.9227e-06
6.92191e-06
6.92105e-06
6.92013e-06
6.91915e-06
6.9181e-06
6.917e-06
6.91585e-06
6.91465e-06
6.91342e-06
6.91215e-06
6.91086e-06
6.90955e-06
6.90824e-06
6.90694e-06
6.90565e-06
6.90439e-06
6.90316e-06
6.90197e-06
6.90082e-06
6.89973e-06
6.89869e-06
6.89772e-06
6.89681e-06
6.89597e-06
6.89519e-06
6.89447e-06
6.89382e-06
6.89323e-06
6.89269e-06
6.89221e-06
6.89178e-06
6.8914e-06
6.89106e-06
6.89075e-06
6.89048e-06
6.89025e-06
6.89003e-06
6.88984e-06
6.88967e-06
6.88952e-06
6.88938e-06
6.88925e-06
6.88914e-06
6.88903e-06
6.88893e-06
6.88883e-06
6.88874e-06
6.88865e-06
6.88857e-06
6.88848e-06
6.8884e-06
6.88832e-06
6.88824e-06
6.88817e-06
6.88809e-06
6.88801e-06
6.88794e-06
6.88786e-06
6.88778e-06
6.88771e-06
6.88763e-06
6.88756e-06
6.88748e-06
6.88741e-06
6.88733e-06
6.88725e-06
6.88718e-06
6.8871e-06
6.88703e-06
6.88695e-06
6.88687e-06
6.8868e-06
6.88672e-06
6.88665e-06
6.88657e-06
6.88649e-06
6.88642e-06
6.88634e-06
6.88627e-06
6.88619e-06
6.88611e-06
6.88604e-06
6.88596e-06
6.88588e-06
6.8858e-06
6.88572e-06
6.88564e-06
6.88556e-06
6.88549e-06
6.88541e-06
6.88533e-06
6.88525e-06
6.88517e-06
6.88509e-06
6.88501e-06
6.88494e-06
6.88486e-06
6.88478e-06
6.8847e-06
6.88463e-06
6.88455e-06
6.88448e-06
6.8844e-06
6.88432e-06
6.88425e-06
6.88417e-06
6.88409e-06
6.88402e-06
6.88394e-06
6.88386e-06
6.88378e-06
6.8837e-06
6.88362e-06
6.88355e-06
6.88347e-06
6.88339e-06
6.88331e-06
6.88323e-06
6.88315e-06
6.88307e-06
6.88299e-06
6.88291e-06
6.88283e-06
6.88275e-06
6.88268e-06
6.8826e-06
6.88252e-06
6.88244e-06
6.88236e-06
6.88228e-06
6.8822e-06
6.88212e-06
6.88204e-06
6.88196e-06
6.88188e-06
6.8818e-06
6.88172e-06
6.88164e-06
6.88156e-06
6.88148e-06
6.8814e-06
6.88132e-06
6.88124e-06
6.88116e-06
6.88108e-06
6.881e-06
6.88093e-06
6.88085e-06
6.88077e-06
6.88069e-06
6.88061e-06
6.88053e-06
6.88045e-06
6.88037e-06
6.8803e-06
6.88022e-06
6.88014e-06
6.88007e-06
6.87999e-06
6.87991e-06
6.87984e-06
6.87976e-06
6.87969e-06
6.87961e-06
6.87954e-06
6.87946e-06
6.87939e-06
6.87932e-06
6.87924e-06
6.87917e-06
6.8791e-06
6.87903e-06
6.87896e-06
6.87889e-06
6.87882e-06
6.87875e-06
6.87868e-06
6.87862e-06
6.87855e-06
6.87849e-06
6.87842e-06
6.87836e-06
6.87829e-06
6.87823e-06
6.87817e-06
6.87811e-06
6.87805e-06
6.87799e-06
6.87793e-06
6.87788e-06
6.87782e-06
6.87777e-06
6.87771e-06
6.87766e-06
6.87761e-06
6.87756e-06
6.87751e-06
6.87746e-06
6.87741e-06
6.87737e-06
6.87732e-06
6.87728e-06
6.87724e-06
6.8772e-06
6.87716e-06
6.87712e-06
6.87708e-06
6.87705e-06
6.87701e-06
6.87698e-06
6.87695e-06
6.87691e-06
6.87688e-06
6.87685e-06
6.87682e-06
6.8768e-06
6.87677e-06
6.87674e-06
6.87672e-06
6.8767e-06
6.87668e-06
6.87666e-06
6.87664e-06
6.87663e-06
6.87662e-06
6.87661e-06
6.87662e-06
6.87668e-06
6.8769e-06
6.8776e-06
6.87975e-06
6.88605e-06
6.90333e-06
6.94313e-06
7.00615e-06
7.06791e-06
7.11144e-06
7.13961e-06
7.15869e-06
7.17228e-06
7.18201e-06
7.18896e-06
7.19392e-06
7.19755e-06
7.20029e-06
7.20244e-06
7.20418e-06
7.20562e-06
7.20684e-06
7.20789e-06
7.20881e-06
7.20961e-06
7.21033e-06
7.21098e-06
7.21157e-06
7.21211e-06
7.2126e-06
7.21306e-06
7.21348e-06
7.21387e-06
7.21424e-06
7.21458e-06
7.21491e-06
7.21521e-06
7.2155e-06
7.21578e-06
7.21604e-06
7.21629e-06
7.21652e-06
7.21675e-06
7.21695e-06
7.21714e-06
7.21733e-06
7.21751e-06
7.21768e-06
7.21785e-06
7.218e-06
7.21816e-06
7.2183e-06
7.21844e-06
7.21858e-06
7.21871e-06
7.21883e-06
7.21896e-06
7.21907e-06
7.21918e-06
7.21929e-06
7.2194e-06
7.2195e-06
7.2196e-06
7.21969e-06
7.21978e-06
7.21987e-06
7.21996e-06
7.22005e-06
7.22013e-06
7.22022e-06
7.2203e-06
7.22038e-06
7.22046e-06
7.22054e-06
7.22062e-06
7.2207e-06
7.22077e-06
7.22085e-06
7.22093e-06
7.221e-06
7.22108e-06
7.22115e-06
7.22123e-06
7.2213e-06
7.22137e-06
7.22145e-06
7.22152e-06
7.22159e-06
7.22166e-06
7.22173e-06
7.2218e-06
7.22186e-06
7.22193e-06
7.22199e-06
7.22205e-06
7.22211e-06
7.22217e-06
7.22223e-06
7.22229e-06
7.22234e-06
7.22239e-06
7.22245e-06
7.22249e-06
7.22254e-06
7.22259e-06
7.22263e-06
7.22267e-06
7.22271e-06
7.22275e-06
7.22279e-06
7.22282e-06
7.22286e-06
7.22289e-06
7.22293e-06
7.22296e-06
7.22299e-06
7.22302e-06
7.22305e-06
7.22308e-06
7.22311e-06
7.22313e-06
7.22316e-06
7.22318e-06
7.22321e-06
7.22323e-06
7.22325e-06
7.22328e-06
7.2233e-06
7.22332e-06
7.22334e-06
7.22336e-06
7.22337e-06
7.22339e-06
7.22341e-06
7.22342e-06
7.22344e-06
7.22345e-06
7.22347e-06
7.22348e-06
7.22349e-06
7.2235e-06
7.22351e-06
7.22352e-06
7.22353e-06
7.22353e-06
7.22354e-06
7.22355e-06
7.22355e-06
7.22355e-06
7.22355e-06
7.22355e-06
7.22355e-06
7.22355e-06
7.22355e-06
7.22354e-06
7.22353e-06
7.22353e-06
7.22352e-06
7.2235e-06
7.22349e-06
7.22348e-06
7.22346e-06
7.22344e-06
7.22343e-06
7.2234e-06
7.22338e-06
7.22336e-06
7.22333e-06
7.22331e-06
7.22328e-06
7.22325e-06
7.22322e-06
7.22319e-06
7.22315e-06
7.22312e-06
7.22308e-06
7.22304e-06
7.223e-06
7.22296e-06
7.22292e-06
7.22288e-06
7.22283e-06
7.22278e-06
7.22273e-06
7.22268e-06
7.22263e-06
7.22258e-06
7.22252e-06
7.22246e-06
7.2224e-06
7.22234e-06
7.22227e-06
7.2222e-06
7.22213e-06
7.22206e-06
7.22199e-06
7.22191e-06
7.22183e-06
7.22175e-06
7.22166e-06
7.22158e-06
7.22149e-06
7.2214e-06
7.2213e-06
7.22121e-06
7.22112e-06
7.22102e-06
7.22093e-06
7.22084e-06
7.22074e-06
7.22065e-06
7.22056e-06
7.22048e-06
7.2204e-06
7.22032e-06
7.22025e-06
7.22019e-06
7.22013e-06
7.22007e-06
7.22009e-06
7.21992e-06
7.21951e-06
7.21923e-06
7.21925e-06
7.21924e-06
7.21924e-06
7.21925e-06
7.21927e-06
7.21931e-06
7.21936e-06
)
;

boundaryField
{
    boundary
    {
        type            empty;
        value           nonuniform 0();
    }
    inlet
    {
        type            calculated;
        value           uniform -6.93009e-06;
    }
    outlet
    {
        type            calculated;
        value           uniform 7.21942e-06;
    }
}


// ************************************************************************* //
