/*--------------------------------*- C++ -*----------------------------------*\
  =========                 |
  \\      /  F ield         | OpenFOAM: The Open Source CFD Toolbox
   \\    /   O peration     | Website:  https://openfoam.org
    \\  /    A nd           | Version:  7
     \\/     M anipulation  |
\*---------------------------------------------------------------------------*/
FoamFile
{
    version     2.0;
    format      ascii;
    class       volScalarField;
    location    "0.00078";
    object      rho;
}
// * * * * * * * * * * * * * * * * * * * * * * * * * * * * * * * * * * * * * //

dimensions      [1 -3 0 0 0 0 0];

internalField   nonuniform List<scalar> 
500
(
0.864666
0.864663
0.864662
0.864663
0.864666
0.864671
0.864678
0.864687
0.864698
0.86471
0.864723
0.864737
0.864751
0.864764
0.864777
0.864788
0.864798
0.864805
0.86481
0.864813
0.864813
0.864811
0.864806
0.864799
0.86479
0.864778
0.864764
0.864747
0.864728
0.864706
0.864682
0.864653
0.864622
0.864585
0.864545
0.864499
0.864447
0.864389
0.864325
0.864253
0.864174
0.864088
0.863993
0.863891
0.863781
0.863663
0.863538
0.863407
0.863269
0.863126
0.862979
0.862829
0.862677
0.862524
0.86237
0.862219
0.862069
0.861924
0.861782
0.861647
0.861517
0.861395
0.86128
0.861172
0.861073
0.860981
0.860898
0.860823
0.860755
0.860695
0.860641
0.860594
0.860553
0.860518
0.860487
0.860461
0.860439
0.86042
0.860404
0.860391
0.860381
0.860372
0.860365
0.860359
0.860354
0.86035
0.860348
0.860345
0.860343
0.860342
0.860341
0.86034
0.860339
0.860339
0.860338
0.860338
0.860338
0.860337
0.860337
0.860337
0.860337
0.860337
0.860337
0.860337
0.860336
0.860336
0.860336
0.860336
0.860336
0.860336
0.860336
0.860335
0.860335
0.860335
0.860335
0.860335
0.860335
0.860334
0.860334
0.860334
0.860334
0.860334
0.860333
0.860333
0.860333
0.860333
0.860332
0.860332
0.860331
0.860331
0.86033
0.86033
0.860329
0.860328
0.860328
0.860328
0.860327
0.860327
0.860327
0.860326
0.860326
0.860326
0.860326
0.860325
0.860325
0.860325
0.860325
0.860324
0.860324
0.860324
0.860323
0.860323
0.860322
0.860322
0.860321
0.860321
0.86032
0.86032
0.860319
0.860318
0.860318
0.860317
0.860317
0.860316
0.860316
0.860315
0.860314
0.860314
0.860313
0.860312
0.860312
0.860311
0.860311
0.86031
0.860309
0.860309
0.860308
0.860307
0.860307
0.860306
0.860305
0.860305
0.860304
0.860303
0.860303
0.860302
0.860301
0.860301
0.8603
0.860299
0.860299
0.860298
0.860298
0.860297
0.860297
0.860296
0.860296
0.860295
0.860295
0.860295
0.860294
0.860294
0.860294
0.860294
0.860294
0.860294
0.860294
0.860294
0.860294
0.860294
0.860294
0.860294
0.860295
0.860295
0.860296
0.860296
0.860297
0.860298
0.860299
0.860299
0.8603
0.860302
0.860303
0.860304
0.860305
0.860307
0.860308
0.86031
0.860312
0.860314
0.860316
0.860318
0.860321
0.860323
0.860326
0.860328
0.860331
0.860334
0.860337
0.860341
0.860344
0.860348
0.860352
0.860355
0.86036
0.860364
0.860368
0.860373
0.860377
0.860382
0.860388
0.860393
0.860398
0.860404
0.860409
0.860415
0.86042
0.860426
0.860432
0.860438
0.860445
0.860452
0.860459
0.860466
0.860474
0.860482
0.860489
0.860492
0.860475
0.860394
0.860106
0.859185
0.856375
0.848083
0.824758
0.766428
0.655818
0.519965
0.40888
0.335033
0.286498
0.252808
0.228798
0.212006
0.199586
0.190017
0.183145
0.178074
0.174003
0.170665
0.167865
0.165473
0.163399
0.161576
0.159958
0.158509
0.157202
0.156014
0.154929
0.153932
0.153014
0.152163
0.151372
0.150635
0.149946
0.149299
0.148691
0.148119
0.147579
0.147068
0.146584
0.146126
0.145704
0.145308
0.144928
0.144562
0.144211
0.143872
0.143546
0.143231
0.142927
0.142633
0.142349
0.142075
0.141809
0.141551
0.141301
0.141058
0.140823
0.140594
0.140371
0.140155
0.139945
0.13974
0.139541
0.139346
0.139157
0.138972
0.138792
0.138616
0.138445
0.138277
0.138114
0.137954
0.137797
0.137644
0.137495
0.137348
0.137205
0.137065
0.136927
0.136793
0.136661
0.136532
0.136405
0.136281
0.136159
0.136039
0.135922
0.135807
0.135693
0.135582
0.135473
0.135366
0.13526
0.135157
0.135055
0.134954
0.134856
0.134759
0.134663
0.13457
0.134477
0.134386
0.134297
0.13421
0.134123
0.134038
0.133954
0.13387
0.133789
0.133708
0.133628
0.13355
0.133473
0.133396
0.133321
0.133247
0.133174
0.133102
0.13303
0.13296
0.132891
0.132822
0.132755
0.132688
0.132622
0.132557
0.132493
0.13243
0.132367
0.132306
0.132244
0.132184
0.132125
0.132066
0.132007
0.13195
0.131893
0.131837
0.131781
0.131726
0.131672
0.131618
0.131565
0.131513
0.131461
0.131409
0.131359
0.131308
0.131258
0.131209
0.13116
0.131112
0.131064
0.131017
0.13097
0.130924
0.130878
0.130833
0.130788
0.130743
0.130699
0.130655
0.130612
0.130569
0.130527
0.130485
0.130443
0.130401
0.130361
0.13032
0.13028
0.13024
0.1302
0.130161
0.130122
0.130084
0.130046
0.130008
0.12997
0.129933
0.129896
0.12986
0.129823
0.129787
0.129752
0.129716
0.129681
0.129646
0.129611
0.129577
0.129543
0.129509
0.129475
0.129442
0.129409
0.129376
0.129343
0.129311
0.129278
0.129246
0.129215
0.129183
0.129152
0.129121
0.12909
0.129059
0.129029
0.128999
0.128969
0.12894
0.128911
0.128882
0.128853
0.128825
0.128798
0.12877
0.128743
0.128715
0.128688
0.128652
0.128625
0.128599
0.128574
0.128549
0.128525
0.128503
0.128483
0.12847
)
;

boundaryField
{
    boundary
    {
        type            empty;
    }
    inlet
    {
        type            calculated;
        value           uniform 0.864668;
    }
    outlet
    {
        type            calculated;
        value           uniform 0.12847;
    }
}


// ************************************************************************* //
