/*--------------------------------*- C++ -*----------------------------------*\
  =========                 |
  \\      /  F ield         | OpenFOAM: The Open Source CFD Toolbox
   \\    /   O peration     | Website:  https://openfoam.org
    \\  /    A nd           | Version:  7
     \\/     M anipulation  |
\*---------------------------------------------------------------------------*/
FoamFile
{
    version     2.0;
    format      ascii;
    class       volScalarField;
    location    "0.00099";
    object      HO2;
}
// * * * * * * * * * * * * * * * * * * * * * * * * * * * * * * * * * * * * * //

dimensions      [0 0 0 0 0 0 0];

internalField   nonuniform List<scalar> 
125
(
2.08631e-18
8.75666e-18
3.67278e-17
1.54133e-16
6.47271e-16
2.71969e-15
1.14324e-14
4.8071e-14
2.02167e-13
8.503e-13
3.57626e-12
1.50396e-11
6.32334e-11
2.65763e-10
1.11636e-09
4.68568e-09
1.96458e-08
8.22096e-08
3.42755e-07
1.41697e-06
5.75558e-06
2.25252e-05
8.10003e-05
0.00024004
0.000464763
0.000516629
0.000437949
0.000325395
0.000230283
0.000161456
0.000112972
7.92304e-05
5.66937e-05
3.93779e-05
2.98042e-05
2.36564e-05
1.9617e-05
1.68719e-05
1.49279e-05
1.34906e-05
1.23835e-05
1.14991e-05
1.07708e-05
1.0156e-05
9.62693e-06
9.16438e-06
8.75503e-06
8.38917e-06
8.05954e-06
7.76057e-06
7.48787e-06
7.23793e-06
7.0079e-06
6.7954e-06
6.59845e-06
6.41537e-06
6.24475e-06
6.08535e-06
5.93614e-06
5.79624e-06
5.66497e-06
5.5454e-06
5.43398e-06
5.32798e-06
5.227e-06
5.1307e-06
5.03874e-06
4.95085e-06
4.86675e-06
4.7862e-06
4.70899e-06
4.6349e-06
4.56376e-06
4.49538e-06
4.42962e-06
4.36631e-06
4.30533e-06
4.24656e-06
4.18986e-06
4.13514e-06
4.08229e-06
4.03122e-06
3.98184e-06
3.93407e-06
3.88784e-06
3.84307e-06
3.7997e-06
3.75766e-06
3.7169e-06
3.67736e-06
3.639e-06
3.60176e-06
3.56559e-06
3.53046e-06
3.49633e-06
3.46316e-06
3.4309e-06
3.39953e-06
3.36901e-06
3.33932e-06
3.31042e-06
3.28228e-06
3.25488e-06
3.22819e-06
3.20218e-06
3.17684e-06
3.15213e-06
3.12804e-06
3.10455e-06
3.08163e-06
3.05926e-06
3.03744e-06
3.01613e-06
2.99532e-06
2.975e-06
2.95515e-06
2.93576e-06
2.9168e-06
2.89827e-06
2.88016e-06
2.86244e-06
2.84512e-06
2.82817e-06
2.8116e-06
2.7954e-06
)
;

boundaryField
{
    boundary
    {
        type            empty;
    }
    inlet
    {
        type            fixedValue;
        value           nonuniform 0();
    }
    outlet
    {
        type            zeroGradient;
    }
    procBoundary1to0
    {
        type            processor;
        value           uniform 2.77953e-06;
    }
    procBoundary1to3
    {
        type            processor;
        value           uniform 4.96289e-19;
    }
}


// ************************************************************************* //
