/*--------------------------------*- C++ -*----------------------------------*\
  =========                 |
  \\      /  F ield         | OpenFOAM: The Open Source CFD Toolbox
   \\    /   O peration     | Website:  https://openfoam.org
    \\  /    A nd           | Version:  7
     \\/     M anipulation  |
\*---------------------------------------------------------------------------*/
FoamFile
{
    version     2.0;
    format      ascii;
    class       volScalarField;
    location    "3e-05";
    object      H;
}
// * * * * * * * * * * * * * * * * * * * * * * * * * * * * * * * * * * * * * //

dimensions      [0 0 0 0 0 0 0];

internalField   nonuniform List<scalar> 
124
(
7.4985e-05
7.49835e-05
7.49827e-05
7.49824e-05
7.49822e-05
7.49822e-05
7.49822e-05
7.49821e-05
7.49821e-05
7.49821e-05
7.4982e-05
7.49819e-05
7.49817e-05
7.49816e-05
7.49815e-05
7.49813e-05
7.49811e-05
7.4981e-05
7.49808e-05
7.49806e-05
7.49804e-05
7.49802e-05
7.498e-05
7.49798e-05
7.49796e-05
7.49794e-05
7.49791e-05
7.49789e-05
7.49787e-05
7.49785e-05
7.49783e-05
7.49781e-05
7.49779e-05
7.49777e-05
7.49775e-05
7.49773e-05
7.49771e-05
7.49769e-05
7.49766e-05
7.49764e-05
7.49762e-05
7.4976e-05
7.49758e-05
7.49756e-05
7.49754e-05
7.49752e-05
7.4975e-05
7.49748e-05
7.49746e-05
7.49744e-05
7.49742e-05
7.4974e-05
7.49738e-05
7.49736e-05
7.49734e-05
7.49732e-05
7.4973e-05
7.49728e-05
7.49726e-05
7.49724e-05
7.49723e-05
7.49721e-05
7.49719e-05
7.49717e-05
7.49716e-05
7.49714e-05
7.49712e-05
7.49711e-05
7.49709e-05
7.49708e-05
7.49706e-05
7.49705e-05
7.49703e-05
7.49702e-05
7.49701e-05
7.49699e-05
7.49698e-05
7.49697e-05
7.49696e-05
7.49695e-05
7.49694e-05
7.49693e-05
7.49692e-05
7.49691e-05
7.4969e-05
7.49689e-05
7.49688e-05
7.49687e-05
7.49687e-05
7.49686e-05
7.49686e-05
7.49685e-05
7.49685e-05
7.49684e-05
7.49684e-05
7.49684e-05
7.49683e-05
7.49683e-05
7.49683e-05
7.49683e-05
7.49683e-05
7.49683e-05
7.49683e-05
7.49683e-05
7.49683e-05
7.49684e-05
7.49684e-05
7.49684e-05
7.49685e-05
7.49685e-05
7.49686e-05
7.49686e-05
7.49687e-05
7.49688e-05
7.49688e-05
7.49689e-05
7.4969e-05
7.49691e-05
7.49692e-05
7.49692e-05
7.49693e-05
7.49694e-05
7.49694e-05
7.49695e-05
)
;

boundaryField
{
    boundary
    {
        type            empty;
    }
    inlet
    {
        type            fixedValue;
        value           nonuniform 0();
    }
    outlet
    {
        type            zeroGradient;
    }
    procBoundary0to1
    {
        type            processor;
        value           uniform 7.49852e-05;
    }
}


// ************************************************************************* //
