/*--------------------------------*- C++ -*----------------------------------*\
  =========                 |
  \\      /  F ield         | OpenFOAM: The Open Source CFD Toolbox
   \\    /   O peration     | Website:  https://openfoam.org
    \\  /    A nd           | Version:  7
     \\/     M anipulation  |
\*---------------------------------------------------------------------------*/
FoamFile
{
    version     2.0;
    format      ascii;
    class       volScalarField;
    location    "3e-05";
    object      H2O2;
}
// * * * * * * * * * * * * * * * * * * * * * * * * * * * * * * * * * * * * * //

dimensions      [0 0 0 0 0 0 0];

internalField   nonuniform List<scalar> 
124
(
1.89526e-07
1.89521e-07
1.8952e-07
1.89518e-07
1.89516e-07
1.89514e-07
1.89512e-07
1.89509e-07
1.89505e-07
1.89502e-07
1.89498e-07
1.89495e-07
1.89491e-07
1.89487e-07
1.89483e-07
1.89479e-07
1.89475e-07
1.89471e-07
1.89468e-07
1.89464e-07
1.8946e-07
1.89456e-07
1.89452e-07
1.89449e-07
1.89445e-07
1.89441e-07
1.89437e-07
1.89433e-07
1.8943e-07
1.89426e-07
1.89422e-07
1.89418e-07
1.89415e-07
1.89411e-07
1.89407e-07
1.89403e-07
1.894e-07
1.89396e-07
1.89392e-07
1.89388e-07
1.89385e-07
1.89381e-07
1.89377e-07
1.89374e-07
1.8937e-07
1.89366e-07
1.89363e-07
1.89359e-07
1.89355e-07
1.89352e-07
1.89348e-07
1.89345e-07
1.89341e-07
1.89338e-07
1.89334e-07
1.89331e-07
1.89327e-07
1.89324e-07
1.89321e-07
1.89317e-07
1.89314e-07
1.89311e-07
1.89308e-07
1.89304e-07
1.89301e-07
1.89298e-07
1.89295e-07
1.89292e-07
1.89289e-07
1.89286e-07
1.89283e-07
1.89281e-07
1.89278e-07
1.89275e-07
1.89273e-07
1.8927e-07
1.89267e-07
1.89265e-07
1.89262e-07
1.8926e-07
1.89258e-07
1.89255e-07
1.89253e-07
1.89251e-07
1.89249e-07
1.89247e-07
1.89245e-07
1.89243e-07
1.89241e-07
1.8924e-07
1.89238e-07
1.89236e-07
1.89235e-07
1.89233e-07
1.89232e-07
1.8923e-07
1.89229e-07
1.89228e-07
1.89227e-07
1.89226e-07
1.89225e-07
1.89224e-07
1.89223e-07
1.89222e-07
1.89221e-07
1.8922e-07
1.8922e-07
1.89219e-07
1.89219e-07
1.89218e-07
1.89218e-07
1.89217e-07
1.89217e-07
1.89217e-07
1.89217e-07
1.89217e-07
1.89217e-07
1.89217e-07
1.89217e-07
1.89217e-07
1.89216e-07
1.89216e-07
1.89216e-07
1.89215e-07
)
;

boundaryField
{
    boundary
    {
        type            empty;
    }
    inlet
    {
        type            fixedValue;
        value           nonuniform 0();
    }
    outlet
    {
        type            zeroGradient;
    }
    procBoundary0to1
    {
        type            processor;
        value           uniform 1.89532e-07;
    }
}


// ************************************************************************* //
