/*--------------------------------*- C++ -*----------------------------------*\
  =========                 |
  \\      /  F ield         | OpenFOAM: The Open Source CFD Toolbox
   \\    /   O peration     | Website:  https://openfoam.org
    \\  /    A nd           | Version:  7
     \\/     M anipulation  |
\*---------------------------------------------------------------------------*/
FoamFile
{
    version     2.0;
    format      ascii;
    class       volScalarField;
    location    "3e-05";
    object      HO2;
}
// * * * * * * * * * * * * * * * * * * * * * * * * * * * * * * * * * * * * * //

dimensions      [0 0 0 0 0 0 0];

internalField   nonuniform List<scalar> 
124
(
1.71633e-06
1.71651e-06
1.71659e-06
1.71663e-06
1.71666e-06
1.71668e-06
1.7167e-06
1.71672e-06
1.71674e-06
1.71676e-06
1.71678e-06
1.7168e-06
1.71682e-06
1.71684e-06
1.71687e-06
1.71689e-06
1.71691e-06
1.71693e-06
1.71696e-06
1.71698e-06
1.717e-06
1.71703e-06
1.71705e-06
1.71708e-06
1.7171e-06
1.71712e-06
1.71715e-06
1.71717e-06
1.71719e-06
1.71722e-06
1.71724e-06
1.71726e-06
1.71728e-06
1.71731e-06
1.71733e-06
1.71735e-06
1.71737e-06
1.71739e-06
1.71741e-06
1.71743e-06
1.71745e-06
1.71747e-06
1.7175e-06
1.71752e-06
1.71754e-06
1.71755e-06
1.71757e-06
1.71759e-06
1.71761e-06
1.71763e-06
1.71765e-06
1.71767e-06
1.71768e-06
1.7177e-06
1.71772e-06
1.71774e-06
1.71775e-06
1.71777e-06
1.71779e-06
1.7178e-06
1.71782e-06
1.71783e-06
1.71785e-06
1.71786e-06
1.71787e-06
1.71789e-06
1.7179e-06
1.71791e-06
1.71793e-06
1.71794e-06
1.71795e-06
1.71796e-06
1.71797e-06
1.71798e-06
1.71799e-06
1.718e-06
1.718e-06
1.71801e-06
1.71802e-06
1.71802e-06
1.71803e-06
1.71803e-06
1.71804e-06
1.71804e-06
1.71804e-06
1.71805e-06
1.71805e-06
1.71805e-06
1.71805e-06
1.71805e-06
1.71805e-06
1.71804e-06
1.71804e-06
1.71804e-06
1.71804e-06
1.71803e-06
1.71803e-06
1.71802e-06
1.71801e-06
1.71801e-06
1.718e-06
1.71799e-06
1.71798e-06
1.71797e-06
1.71796e-06
1.71795e-06
1.71793e-06
1.71792e-06
1.71791e-06
1.7179e-06
1.71788e-06
1.71787e-06
1.71785e-06
1.71783e-06
1.71782e-06
1.7178e-06
1.71778e-06
1.71777e-06
1.71775e-06
1.71773e-06
1.71772e-06
1.7177e-06
1.71769e-06
1.71768e-06
)
;

boundaryField
{
    boundary
    {
        type            empty;
    }
    inlet
    {
        type            fixedValue;
        value           nonuniform 0();
    }
    outlet
    {
        type            zeroGradient;
    }
    procBoundary0to1
    {
        type            processor;
        value           uniform 1.71634e-06;
    }
}


// ************************************************************************* //
