/*--------------------------------*- C++ -*----------------------------------*\
  =========                 |
  \\      /  F ield         | OpenFOAM: The Open Source CFD Toolbox
   \\    /   O peration     | Website:  https://openfoam.org
    \\  /    A nd           | Version:  7
     \\/     M anipulation  |
\*---------------------------------------------------------------------------*/
FoamFile
{
    version     2.0;
    format      ascii;
    class       volScalarField;
    location    "3e-05";
    object      O;
}
// * * * * * * * * * * * * * * * * * * * * * * * * * * * * * * * * * * * * * //

dimensions      [0 0 0 0 0 0 0];

internalField   nonuniform List<scalar> 
124
(
0.00039193
0.000391935
0.000391942
0.000391948
0.000391953
0.000391957
0.00039196
0.000391962
0.000391963
0.000391964
0.000391964
0.000391965
0.000391965
0.000391965
0.000391965
0.000391965
0.000391965
0.000391964
0.000391964
0.000391964
0.000391964
0.000391964
0.000391964
0.000391964
0.000391963
0.000391963
0.000391963
0.000391963
0.000391963
0.000391963
0.000391963
0.000391963
0.000391963
0.000391962
0.000391962
0.000391962
0.000391962
0.000391962
0.000391962
0.000391961
0.000391961
0.000391961
0.000391961
0.00039196
0.00039196
0.00039196
0.00039196
0.00039196
0.000391959
0.000391959
0.000391959
0.000391959
0.000391958
0.000391958
0.000391958
0.000391957
0.000391957
0.000391957
0.000391957
0.000391956
0.000391956
0.000391956
0.000391956
0.000391955
0.000391955
0.000391955
0.000391954
0.000391954
0.000391954
0.000391954
0.000391953
0.000391953
0.000391953
0.000391952
0.000391952
0.000391952
0.000391951
0.000391951
0.000391951
0.00039195
0.00039195
0.00039195
0.000391949
0.000391949
0.000391949
0.000391949
0.000391948
0.000391948
0.000391948
0.000391947
0.000391947
0.000391947
0.000391946
0.000391946
0.000391946
0.000391946
0.000391945
0.000391945
0.000391945
0.000391944
0.000391944
0.000391944
0.000391944
0.000391943
0.000391943
0.000391943
0.000391943
0.000391942
0.000391942
0.000391942
0.000391942
0.000391941
0.000391941
0.000391941
0.000391941
0.00039194
0.00039194
0.00039194
0.00039194
0.00039194
0.00039194
0.000391939
0.000391939
0.000391939
)
;

boundaryField
{
    boundary
    {
        type            empty;
    }
    inlet
    {
        type            fixedValue;
        value           nonuniform 0();
    }
    outlet
    {
        type            zeroGradient;
    }
    procBoundary0to1
    {
        type            processor;
        value           uniform 0.000391934;
    }
}


// ************************************************************************* //
