/*--------------------------------*- C++ -*----------------------------------*\
  =========                 |
  \\      /  F ield         | OpenFOAM: The Open Source CFD Toolbox
   \\    /   O peration     | Website:  https://openfoam.org
    \\  /    A nd           | Version:  7
     \\/     M anipulation  |
\*---------------------------------------------------------------------------*/
FoamFile
{
    version     2.0;
    format      ascii;
    class       volScalarField;
    location    "3e-05";
    object      OH;
}
// * * * * * * * * * * * * * * * * * * * * * * * * * * * * * * * * * * * * * //

dimensions      [0 0 0 0 0 0 0];

internalField   nonuniform List<scalar> 
124
(
0.00569756
0.00569776
0.0056979
0.005698
0.00569807
0.00569813
0.00569817
0.00569821
0.00569824
0.00569827
0.0056983
0.00569832
0.00569835
0.00569837
0.00569839
0.00569841
0.00569844
0.00569846
0.00569848
0.0056985
0.00569853
0.00569855
0.00569857
0.00569859
0.00569861
0.00569864
0.00569866
0.00569868
0.0056987
0.00569872
0.00569874
0.00569876
0.00569878
0.0056988
0.00569882
0.00569884
0.00569886
0.00569888
0.0056989
0.00569892
0.00569894
0.00569896
0.00569898
0.005699
0.00569902
0.00569904
0.00569905
0.00569907
0.00569909
0.00569911
0.00569912
0.00569914
0.00569916
0.00569917
0.00569919
0.0056992
0.00569922
0.00569923
0.00569925
0.00569926
0.00569928
0.00569929
0.0056993
0.00569932
0.00569933
0.00569934
0.00569935
0.00569937
0.00569938
0.00569939
0.0056994
0.00569941
0.00569941
0.00569942
0.00569943
0.00569944
0.00569945
0.00569945
0.00569946
0.00569946
0.00569947
0.00569947
0.00569948
0.00569948
0.00569948
0.00569949
0.00569949
0.00569949
0.00569949
0.00569949
0.00569949
0.00569949
0.00569949
0.00569949
0.00569948
0.00569948
0.00569948
0.00569947
0.00569947
0.00569946
0.00569946
0.00569945
0.00569945
0.00569944
0.00569943
0.00569942
0.00569941
0.0056994
0.00569939
0.00569938
0.00569937
0.00569936
0.00569935
0.00569933
0.00569932
0.00569931
0.00569929
0.00569928
0.00569926
0.00569925
0.00569924
0.00569922
0.00569922
0.00569921
)
;

boundaryField
{
    boundary
    {
        type            empty;
    }
    inlet
    {
        type            fixedValue;
        value           nonuniform 0();
    }
    outlet
    {
        type            zeroGradient;
    }
    procBoundary0to1
    {
        type            processor;
        value           uniform 0.0056976;
    }
}


// ************************************************************************* //
