/*--------------------------------*- C++ -*----------------------------------*\
  =========                 |
  \\      /  F ield         | OpenFOAM: The Open Source CFD Toolbox
   \\    /   O peration     | Website:  https://openfoam.org
    \\  /    A nd           | Version:  7
     \\/     M anipulation  |
\*---------------------------------------------------------------------------*/
FoamFile
{
    version     2.0;
    format      ascii;
    class       volScalarField;
    location    "3e-05";
    object      p;
}
// * * * * * * * * * * * * * * * * * * * * * * * * * * * * * * * * * * * * * //

dimensions      [1 -1 -2 0 0 0 0];

internalField   nonuniform List<scalar> 
124
(
102007
102007
102006
102006
102005
102005
102004
102004
102003
102003
102002
102002
102001
102001
102000
102000
101999
101999
101998
101998
101997
101997
101997
101996
101996
101995
101995
101994
101994
101993
101993
101992
101992
101991
101991
101990
101990
101989
101989
101988
101988
101987
101987
101986
101986
101985
101985
101984
101984
101983
101983
101982
101982
101981
101981
101980
101980
101979
101978
101978
101977
101977
101976
101976
101975
101975
101974
101973
101973
101972
101972
101971
101970
101970
101969
101969
101968
101967
101967
101966
101965
101965
101964
101964
101963
101962
101962
101961
101960
101960
101959
101958
101958
101957
101956
101956
101955
101954
101953
101953
101952
101951
101951
101950
101949
101948
101948
101947
101946
101945
101944
101944
101943
101942
101941
101941
101940
101939
101938
101937
101936
101936
101935
101934
)
;

boundaryField
{
    boundary
    {
        type            empty;
    }
    inlet
    {
        type            zeroGradient;
    }
    outlet
    {
        type            waveTransmissive;
        gamma           1.4;
        value           uniform 101934;
    }
    procBoundary0to1
    {
        type            processor;
        value           uniform 102007;
    }
}


// ************************************************************************* //
