/*--------------------------------*- C++ -*----------------------------------*\
  =========                 |
  \\      /  F ield         | OpenFOAM: The Open Source CFD Toolbox
   \\    /   O peration     | Website:  https://openfoam.org
    \\  /    A nd           | Version:  7
     \\/     M anipulation  |
\*---------------------------------------------------------------------------*/
FoamFile
{
    version     2.0;
    format      ascii;
    class       surfaceScalarField;
    location    "3e-05";
    object      phi;
}
// * * * * * * * * * * * * * * * * * * * * * * * * * * * * * * * * * * * * * //

dimensions      [1 0 -1 0 0 0 0];

internalField   nonuniform List<scalar> 
123
(
3.24888e-06
3.24737e-06
3.24586e-06
3.24434e-06
3.24282e-06
3.24129e-06
3.23976e-06
3.23823e-06
3.23669e-06
3.23514e-06
3.2336e-06
3.23204e-06
3.23049e-06
3.22892e-06
3.22736e-06
3.22578e-06
3.2242e-06
3.22262e-06
3.22103e-06
3.21943e-06
3.21783e-06
3.21623e-06
3.21461e-06
3.21299e-06
3.21136e-06
3.20973e-06
3.20809e-06
3.20644e-06
3.20478e-06
3.20312e-06
3.20145e-06
3.19977e-06
3.19809e-06
3.19639e-06
3.19469e-06
3.19298e-06
3.19126e-06
3.18954e-06
3.1878e-06
3.18606e-06
3.1843e-06
3.18254e-06
3.18077e-06
3.17898e-06
3.17719e-06
3.17539e-06
3.17358e-06
3.17176e-06
3.16993e-06
3.16808e-06
3.16623e-06
3.16437e-06
3.1625e-06
3.16061e-06
3.15872e-06
3.15681e-06
3.15489e-06
3.15296e-06
3.15102e-06
3.14907e-06
3.1471e-06
3.14513e-06
3.14314e-06
3.14114e-06
3.13913e-06
3.1371e-06
3.13507e-06
3.13302e-06
3.13095e-06
3.12888e-06
3.12679e-06
3.12469e-06
3.12257e-06
3.12045e-06
3.11831e-06
3.11615e-06
3.11398e-06
3.1118e-06
3.10961e-06
3.1074e-06
3.10517e-06
3.10293e-06
3.10068e-06
3.09842e-06
3.09614e-06
3.09384e-06
3.09153e-06
3.0892e-06
3.08686e-06
3.08451e-06
3.08214e-06
3.07975e-06
3.07735e-06
3.07493e-06
3.0725e-06
3.07005e-06
3.06759e-06
3.06511e-06
3.06261e-06
3.0601e-06
3.05757e-06
3.05502e-06
3.05246e-06
3.04988e-06
3.04728e-06
3.04467e-06
3.04204e-06
3.03939e-06
3.03672e-06
3.03404e-06
3.03134e-06
3.02862e-06
3.02588e-06
3.02312e-06
3.02034e-06
3.01755e-06
3.01473e-06
3.0119e-06
3.00905e-06
3.00617e-06
3.00328e-06
3.00037e-06
2.99743e-06
)
;

boundaryField
{
    boundary
    {
        type            empty;
        value           nonuniform 0();
    }
    inlet
    {
        type            calculated;
        value           nonuniform 0();
    }
    outlet
    {
        type            calculated;
        value           uniform 2.99448e-06;
    }
    procBoundary0to1
    {
        type            processor;
        value           uniform -3.25039e-06;
    }
}


// ************************************************************************* //
