/*--------------------------------*- C++ -*----------------------------------*\
  =========                 |
  \\      /  F ield         | OpenFOAM: The Open Source CFD Toolbox
   \\    /   O peration     | Website:  https://openfoam.org
    \\  /    A nd           | Version:  7
     \\/     M anipulation  |
\*---------------------------------------------------------------------------*/
FoamFile
{
    version     2.0;
    format      ascii;
    class       volScalarField;
    location    "3e-05";
    object      Qdot;
}
// * * * * * * * * * * * * * * * * * * * * * * * * * * * * * * * * * * * * * //

dimensions      [1 -1 -3 0 0 0 0];

internalField   nonuniform List<scalar> 
124
(
-364939
-344788
-333582
-327491
-323734
-322321
-321926
-322131
-322694
-323468
-324368
-325340
-326351
-327384
-328426
-329472
-330516
-331553
-332566
-333589
-334613
-335633
-336920
-337926
-338927
-339923
-341265
-342253
-343238
-344223
-345211
-346193
-347170
-348142
-349110
-350074
-351034
-351990
-352941
-353887
-354826
-355758
-356685
-357609
-358529
-359444
-360180
-361082
-361978
-362867
-363749
-364624
-365491
-366350
-367201
-368043
-368877
-369700
-370513
-371316
-372106
-372881
-373638
-374389
-375132
-375865
-376587
-377525
-378231
-378951
-379632
-380290
-380931
-381556
-382166
-382759
-383338
-383900
-384447
-384977
-385492
-385990
-386473
-386939
-387388
-387819
-388233
-388630
-389009
-389371
-389716
-390045
-390353
-390637
-390867
-391110
-391346
-391567
-391774
-391964
-392139
-392297
-392437
-392562
-392672
-392527
-392606
-392662
-392704
-392732
-392746
-392745
-392731
-392701
-392657
-392601
-392534
-392459
-392659
-392584
-392519
-392481
-392507
-392664
)
;

boundaryField
{
    boundary
    {
        type            empty;
    }
    inlet
    {
        type            calculated;
        value           nonuniform 0();
    }
    outlet
    {
        type            calculated;
        value           uniform 0;
    }
    procBoundary0to1
    {
        type            processor;
        value           uniform 0;
    }
}


// ************************************************************************* //
