/*--------------------------------*- C++ -*----------------------------------*\
  =========                 |
  \\      /  F ield         | OpenFOAM: The Open Source CFD Toolbox
   \\    /   O peration     | Website:  https://openfoam.org
    \\  /    A nd           | Version:  7
     \\/     M anipulation  |
\*---------------------------------------------------------------------------*/
FoamFile
{
    version     2.0;
    format      ascii;
    class       volScalarField;
    location    "3e-05";
    object      T;
}
// * * * * * * * * * * * * * * * * * * * * * * * * * * * * * * * * * * * * * //

dimensions      [0 0 0 1 0 0 0];

internalField   nonuniform List<scalar> 
124
(
2390.16
2390.17
2390.18
2390.18
2390.19
2390.19
2390.2
2390.21
2390.21
2390.22
2390.22
2390.23
2390.24
2390.24
2390.25
2390.25
2390.26
2390.27
2390.27
2390.28
2390.28
2390.29
2390.3
2390.3
2390.31
2390.31
2390.32
2390.33
2390.33
2390.34
2390.34
2390.35
2390.36
2390.36
2390.37
2390.37
2390.38
2390.38
2390.39
2390.39
2390.4
2390.41
2390.41
2390.42
2390.42
2390.43
2390.43
2390.44
2390.44
2390.45
2390.45
2390.46
2390.46
2390.47
2390.47
2390.48
2390.48
2390.49
2390.49
2390.5
2390.5
2390.5
2390.51
2390.51
2390.52
2390.52
2390.52
2390.53
2390.53
2390.53
2390.54
2390.54
2390.54
2390.55
2390.55
2390.55
2390.56
2390.56
2390.56
2390.56
2390.56
2390.57
2390.57
2390.57
2390.57
2390.57
2390.57
2390.58
2390.58
2390.58
2390.58
2390.58
2390.58
2390.58
2390.58
2390.58
2390.58
2390.58
2390.58
2390.58
2390.58
2390.58
2390.58
2390.58
2390.57
2390.57
2390.57
2390.57
2390.57
2390.57
2390.56
2390.56
2390.56
2390.56
2390.55
2390.55
2390.55
2390.55
2390.54
2390.54
2390.54
2390.54
2390.53
2390.53
)
;

boundaryField
{
    boundary
    {
        type            empty;
    }
    inlet
    {
        type            fixedValue;
        value           nonuniform 0();
    }
    outlet
    {
        type            zeroGradient;
    }
    procBoundary0to1
    {
        type            processor;
        value           uniform 2390.16;
    }
}


// ************************************************************************* //
