/*--------------------------------*- C++ -*----------------------------------*\
  =========                 |
  \\      /  F ield         | OpenFOAM: The Open Source CFD Toolbox
   \\    /   O peration     | Website:  https://openfoam.org
    \\  /    A nd           | Version:  7
     \\/     M anipulation  |
\*---------------------------------------------------------------------------*/
FoamFile
{
    version     2.0;
    format      ascii;
    class       volVectorField;
    location    "3e-05";
    object      U;
}
// * * * * * * * * * * * * * * * * * * * * * * * * * * * * * * * * * * * * * //

dimensions      [0 1 -1 0 0 0 0];

internalField   nonuniform List<vector> 
124
(
(7.64566 0 0)
(7.63958 0 0)
(7.63574 0 0)
(7.6343 0 0)
(7.63103 0 0)
(7.62755 0 0)
(7.62378 0 0)
(7.62022 0 0)
(7.61662 0 0)
(7.61302 0 0)
(7.6094 0 0)
(7.60578 0 0)
(7.60214 0 0)
(7.5985 0 0)
(7.59484 0 0)
(7.59117 0 0)
(7.5875 0 0)
(7.58381 0 0)
(7.58011 0 0)
(7.57639 0 0)
(7.57267 0 0)
(7.56893 0 0)
(7.56517 0 0)
(7.56141 0 0)
(7.55762 0 0)
(7.55383 0 0)
(7.55001 0 0)
(7.54619 0 0)
(7.54234 0 0)
(7.53848 0 0)
(7.5346 0 0)
(7.53071 0 0)
(7.5268 0 0)
(7.52287 0 0)
(7.51892 0 0)
(7.51495 0 0)
(7.51096 0 0)
(7.50695 0 0)
(7.50293 0 0)
(7.49888 0 0)
(7.49481 0 0)
(7.49072 0 0)
(7.48661 0 0)
(7.48248 0 0)
(7.47832 0 0)
(7.47415 0 0)
(7.46995 0 0)
(7.46572 0 0)
(7.46148 0 0)
(7.4572 0 0)
(7.45291 0 0)
(7.44859 0 0)
(7.44424 0 0)
(7.43987 0 0)
(7.43548 0 0)
(7.43106 0 0)
(7.42661 0 0)
(7.42213 0 0)
(7.41763 0 0)
(7.4131 0 0)
(7.40855 0 0)
(7.40396 0 0)
(7.39935 0 0)
(7.39471 0 0)
(7.39004 0 0)
(7.38534 0 0)
(7.38061 0 0)
(7.37586 0 0)
(7.37107 0 0)
(7.36625 0 0)
(7.3614 0 0)
(7.35653 0 0)
(7.35162 0 0)
(7.34668 0 0)
(7.34171 0 0)
(7.3367 0 0)
(7.33167 0 0)
(7.3266 0 0)
(7.32151 0 0)
(7.31637 0 0)
(7.3112 0 0)
(7.306 0 0)
(7.30077 0 0)
(7.29551 0 0)
(7.29021 0 0)
(7.28487 0 0)
(7.2795 0 0)
(7.27409 0 0)
(7.26865 0 0)
(7.26318 0 0)
(7.25767 0 0)
(7.25212 0 0)
(7.24653 0 0)
(7.24091 0 0)
(7.23525 0 0)
(7.22955 0 0)
(7.22383 0 0)
(7.21806 0 0)
(7.21225 0 0)
(7.20639 0 0)
(7.20051 0 0)
(7.19459 0 0)
(7.18863 0 0)
(7.18261 0 0)
(7.17655 0 0)
(7.17047 0 0)
(7.16436 0 0)
(7.1582 0 0)
(7.15198 0 0)
(7.14573 0 0)
(7.13943 0 0)
(7.1331 0 0)
(7.12672 0 0)
(7.1203 0 0)
(7.11383 0 0)
(7.10732 0 0)
(7.10076 0 0)
(7.09416 0 0)
(7.08751 0 0)
(7.08084 0 0)
(7.07414 0 0)
(7.06734 0 0)
(7.05955 0 0)
(7.05085 0 0)
)
;

boundaryField
{
    boundary
    {
        type            empty;
    }
    inlet
    {
        type            fixedValue;
        value           nonuniform 0();
    }
    outlet
    {
        type            zeroGradient;
    }
    procBoundary0to1
    {
        type            processor;
        value           uniform (7.64969 0 0);
    }
}


// ************************************************************************* //
