/*--------------------------------*- C++ -*----------------------------------*\
  =========                 |
  \\      /  F ield         | OpenFOAM: The Open Source CFD Toolbox
   \\    /   O peration     | Website:  https://openfoam.org
    \\  /    A nd           | Version:  7
     \\/     M anipulation  |
\*---------------------------------------------------------------------------*/
FoamFile
{
    version     2.0;
    format      ascii;
    class       volScalarField;
    location    "0.00042";
    object      H2O2;
}
// * * * * * * * * * * * * * * * * * * * * * * * * * * * * * * * * * * * * * //

dimensions      [0 0 0 0 0 0 0];

internalField   nonuniform List<scalar> 
125
(
6.19207e-21
2.81506e-20
1.26453e-19
5.63434e-19
2.49344e-18
1.09686e-17
4.79966e-17
2.09055e-16
9.06936e-16
3.92111e-15
1.6904e-14
7.26981e-14
3.12029e-13
1.33711e-12
5.72241e-12
2.44654e-11
1.04518e-10
4.46252e-10
1.90453e-09
8.12561e-09
3.46544e-08
1.47653e-07
6.26937e-07
2.62807e-06
1.0526e-05
3.64103e-05
8.62072e-05
0.000120577
0.000115028
6.91493e-05
3.0403e-05
1.21731e-05
5.94571e-06
4.47481e-06
4.62166e-06
5.28415e-06
5.88596e-06
6.33924e-06
6.62052e-06
6.75344e-06
6.77333e-06
6.71284e-06
6.59806e-06
6.44822e-06
6.27703e-06
6.09411e-06
5.906e-06
5.71716e-06
5.5306e-06
5.34828e-06
5.17144e-06
5.00086e-06
4.83693e-06
4.67986e-06
4.52965e-06
4.38622e-06
4.24941e-06
4.11901e-06
3.9948e-06
3.87655e-06
3.76411e-06
3.66051e-06
3.56311e-06
3.46968e-06
3.38005e-06
3.29402e-06
3.21141e-06
3.13207e-06
3.05583e-06
2.98255e-06
2.91207e-06
2.84427e-06
2.77901e-06
2.71617e-06
2.65562e-06
2.59727e-06
2.54101e-06
2.48673e-06
2.43434e-06
2.38376e-06
2.3349e-06
2.28768e-06
2.24203e-06
2.19788e-06
2.15515e-06
2.1138e-06
2.07375e-06
2.03495e-06
1.99735e-06
1.9609e-06
1.92555e-06
1.89125e-06
1.85796e-06
1.82564e-06
1.79425e-06
1.76375e-06
1.73412e-06
1.7053e-06
1.67728e-06
1.65003e-06
1.6235e-06
1.59769e-06
1.57255e-06
1.54807e-06
1.52422e-06
1.50098e-06
1.47833e-06
1.45624e-06
1.4347e-06
1.41368e-06
1.39318e-06
1.37317e-06
1.35363e-06
1.33455e-06
1.31592e-06
1.29771e-06
1.27992e-06
1.26253e-06
1.24552e-06
1.22888e-06
1.21259e-06
1.19663e-06
1.18098e-06
1.16562e-06
1.15052e-06
)
;

boundaryField
{
    boundary
    {
        type            empty;
    }
    inlet
    {
        type            fixedValue;
        value           nonuniform 0();
    }
    outlet
    {
        type            zeroGradient;
    }
    procBoundary1to0
    {
        type            processor;
        value           uniform 1.13572e-06;
    }
    procBoundary1to3
    {
        type            processor;
        value           uniform 1.33965e-21;
    }
}


// ************************************************************************* //
