/*--------------------------------*- C++ -*----------------------------------*\
  =========                 |
  \\      /  F ield         | OpenFOAM: The Open Source CFD Toolbox
   \\    /   O peration     | Website:  https://openfoam.org
    \\  /    A nd           | Version:  7
     \\/     M anipulation  |
\*---------------------------------------------------------------------------*/
FoamFile
{
    version     2.0;
    format      ascii;
    class       volScalarField;
    location    "0.00042";
    object      HO2;
}
// * * * * * * * * * * * * * * * * * * * * * * * * * * * * * * * * * * * * * //

dimensions      [0 0 0 0 0 0 0];

internalField   nonuniform List<scalar> 
125
(
5.72448e-20
2.51691e-19
1.09836e-18
4.77097e-18
2.06429e-17
8.90023e-17
3.825e-16
1.63907e-15
7.00542e-15
2.98722e-14
1.27121e-13
5.40007e-13
2.29038e-12
9.70136e-12
4.10434e-11
1.73457e-10
7.32339e-10
3.08894e-09
1.30155e-08
5.47631e-08
2.2981e-07
9.58322e-07
3.93919e-06
1.57118e-05
5.85027e-05
0.000186166
0.000415603
0.000521595
0.000464684
0.000353683
0.000251878
0.000176636
0.000123557
8.64014e-05
6.12238e-05
4.26343e-05
3.18844e-05
2.50015e-05
2.05136e-05
1.74947e-05
1.53815e-05
1.38369e-05
1.26596e-05
1.17276e-05
1.09658e-05
1.03265e-05
9.77853e-06
9.30106e-06
8.87946e-06
8.50323e-06
8.1646e-06
7.85765e-06
7.57776e-06
7.32126e-06
7.08519e-06
6.86711e-06
6.66498e-06
6.47713e-06
6.30211e-06
6.13876e-06
5.98611e-06
5.84763e-06
5.71907e-06
5.59718e-06
5.48147e-06
5.37148e-06
5.26681e-06
5.16707e-06
5.07193e-06
4.98108e-06
4.89424e-06
4.81115e-06
4.73157e-06
4.65529e-06
4.58211e-06
4.51184e-06
4.44432e-06
4.37938e-06
4.31689e-06
4.25671e-06
4.19871e-06
4.14278e-06
4.08882e-06
4.03672e-06
3.98639e-06
3.93774e-06
3.89069e-06
3.84517e-06
3.8011e-06
3.75842e-06
3.71707e-06
3.67698e-06
3.6381e-06
3.60038e-06
3.56377e-06
3.52822e-06
3.49368e-06
3.46012e-06
3.42749e-06
3.39577e-06
3.3649e-06
3.33486e-06
3.30561e-06
3.27713e-06
3.24939e-06
3.22234e-06
3.19598e-06
3.17027e-06
3.14519e-06
3.12071e-06
3.09681e-06
3.07347e-06
3.05066e-06
3.02837e-06
3.00656e-06
2.98523e-06
2.96434e-06
2.94388e-06
2.92382e-06
2.90413e-06
2.88478e-06
2.86574e-06
2.84695e-06
2.82834e-06
2.80982e-06
)
;

boundaryField
{
    boundary
    {
        type            empty;
    }
    inlet
    {
        type            fixedValue;
        value           nonuniform 0();
    }
    outlet
    {
        type            zeroGradient;
    }
    procBoundary1to0
    {
        type            processor;
        value           uniform 2.7916e-06;
    }
    procBoundary1to3
    {
        type            processor;
        value           uniform 1.28874e-20;
    }
}


// ************************************************************************* //
