/*--------------------------------*- C++ -*----------------------------------*\
  =========                 |
  \\      /  F ield         | OpenFOAM: The Open Source CFD Toolbox
   \\    /   O peration     | Website:  https://openfoam.org
    \\  /    A nd           | Version:  7
     \\/     M anipulation  |
\*---------------------------------------------------------------------------*/
FoamFile
{
    version     2.0;
    format      ascii;
    class       volScalarField;
    location    "0.00062";
    object      H2O2;
}
// * * * * * * * * * * * * * * * * * * * * * * * * * * * * * * * * * * * * * //

dimensions      [0 0 0 0 0 0 0];

internalField   nonuniform List<scalar> 
125
(
1.98685e-52
6.37919e-52
1.26785e-51
2.08907e-51
3.10247e-51
4.30917e-51
5.71036e-51
7.30722e-51
9.10087e-51
1.10924e-50
1.32828e-50
1.56732e-50
1.8265e-50
2.10599e-50
2.40603e-50
2.72693e-50
3.06909e-50
3.43305e-50
3.81949e-50
4.22925e-50
4.66337e-50
5.1231e-50
5.6099e-50
6.12547e-50
6.67169e-50
7.25062e-50
7.86445e-50
8.51539e-50
9.2056e-50
9.93708e-50
1.07115e-49
1.15299e-49
1.2393e-49
1.33004e-49
1.42507e-49
1.52417e-49
1.62698e-49
1.73302e-49
1.84168e-49
1.95225e-49
2.06393e-49
2.17582e-49
2.28698e-49
2.39643e-49
2.50323e-49
2.60646e-49
2.70528e-49
2.79894e-49
2.88683e-49
2.96847e-49
3.04352e-49
3.1118e-49
3.1733e-49
3.22809e-49
3.27642e-49
3.3186e-49
3.35503e-49
3.38619e-49
3.41255e-49
3.43464e-49
3.45295e-49
3.468e-49
3.48023e-49
3.49008e-49
3.49793e-49
3.50414e-49
3.50899e-49
3.51276e-49
3.51566e-49
3.51786e-49
3.51953e-49
3.52078e-49
3.5217e-49
3.52239e-49
3.52289e-49
3.52326e-49
3.52352e-49
3.52372e-49
3.52386e-49
3.52397e-49
3.52404e-49
3.5241e-49
3.52415e-49
3.52419e-49
3.52423e-49
3.52426e-49
3.5243e-49
3.52433e-49
3.52436e-49
3.52439e-49
3.52443e-49
3.52447e-49
3.52451e-49
3.52455e-49
3.52459e-49
3.52464e-49
3.52469e-49
3.52474e-49
3.52479e-49
3.52485e-49
3.52491e-49
3.52498e-49
3.52505e-49
3.52512e-49
3.52519e-49
3.52527e-49
3.52535e-49
3.52544e-49
3.52553e-49
3.52562e-49
3.52572e-49
3.52582e-49
3.52592e-49
3.52603e-49
3.52615e-49
3.52627e-49
3.52639e-49
3.52652e-49
3.52665e-49
3.52678e-49
3.5269e-49
3.52695e-49
3.52673e-49
3.52539e-49
3.51965e-49
)
;

boundaryField
{
    boundary
    {
        type            empty;
    }
    inlet
    {
        type            fixedValue;
        value           uniform 0;
    }
    outlet
    {
        type            zeroGradient;
    }
    procBoundary2to3
    {
        type            processor;
        value           uniform 3.50813e-49;
    }
}


// ************************************************************************* //
