/*--------------------------------*- C++ -*----------------------------------*\
  =========                 |
  \\      /  F ield         | OpenFOAM: The Open Source CFD Toolbox
   \\    /   O peration     | Website:  https://openfoam.org
    \\  /    A nd           | Version:  7
     \\/     M anipulation  |
\*---------------------------------------------------------------------------*/
FoamFile
{
    version     2.0;
    format      ascii;
    class       volScalarField;
    location    "0.00062";
    object      OH;
}
// * * * * * * * * * * * * * * * * * * * * * * * * * * * * * * * * * * * * * //

dimensions      [0 0 0 0 0 0 0];

internalField   nonuniform List<scalar> 
125
(
9.34874e-48
1.81816e-47
2.41906e-47
2.82379e-47
3.09604e-47
3.27978e-47
3.4047e-47
3.49068e-47
3.55097e-47
3.59435e-47
3.62662e-47
3.65164e-47
3.67194e-47
3.68921e-47
3.70461e-47
3.71895e-47
3.73281e-47
3.74668e-47
3.76094e-47
3.77596e-47
3.79211e-47
3.80975e-47
3.82927e-47
3.85108e-47
3.87562e-47
3.90333e-47
3.9347e-47
3.9702e-47
4.01031e-47
4.05549e-47
4.10619e-47
4.16278e-47
4.2256e-47
4.29488e-47
4.37076e-47
4.45326e-47
4.54226e-47
4.63752e-47
4.73862e-47
4.84499e-47
4.95591e-47
5.07052e-47
5.18783e-47
5.30675e-47
5.42612e-47
5.54476e-47
5.66146e-47
5.77509e-47
5.88457e-47
5.98896e-47
6.08744e-47
6.17938e-47
6.2643e-47
6.34191e-47
6.41211e-47
6.47494e-47
6.53061e-47
6.57942e-47
6.6218e-47
6.65822e-47
6.68922e-47
6.71535e-47
6.73717e-47
6.75522e-47
6.77001e-47
6.78202e-47
6.7917e-47
6.79942e-47
6.80552e-47
6.81032e-47
6.81405e-47
6.81693e-47
6.81914e-47
6.82082e-47
6.8221e-47
6.82306e-47
6.82378e-47
6.82431e-47
6.82472e-47
6.82502e-47
6.82526e-47
6.82544e-47
6.82558e-47
6.8257e-47
6.8258e-47
6.82589e-47
6.82598e-47
6.82605e-47
6.82613e-47
6.82621e-47
6.82629e-47
6.82638e-47
6.82646e-47
6.82655e-47
6.82664e-47
6.82674e-47
6.82685e-47
6.82695e-47
6.82707e-47
6.82718e-47
6.82731e-47
6.82744e-47
6.82757e-47
6.82771e-47
6.82786e-47
6.82801e-47
6.82817e-47
6.82834e-47
6.82851e-47
6.82869e-47
6.82888e-47
6.82907e-47
6.82927e-47
6.82948e-47
6.8297e-47
6.82993e-47
6.83016e-47
6.8304e-47
6.83065e-47
6.83091e-47
6.83118e-47
6.83148e-47
6.83182e-47
6.83232e-47
6.83325e-47
)
;

boundaryField
{
    boundary
    {
        type            empty;
    }
    inlet
    {
        type            fixedValue;
        value           uniform 0;
    }
    outlet
    {
        type            zeroGradient;
    }
    procBoundary2to3
    {
        type            processor;
        value           uniform 6.83444e-47;
    }
}


// ************************************************************************* //
