/*--------------------------------*- C++ -*----------------------------------*\
  =========                 |
  \\      /  F ield         | OpenFOAM: The Open Source CFD Toolbox
   \\    /   O peration     | Website:  https://openfoam.org
    \\  /    A nd           | Version:  7
     \\/     M anipulation  |
\*---------------------------------------------------------------------------*/
FoamFile
{
    version     2.0;
    format      ascii;
    class       volScalarField;
    location    "0.00062";
    object      Qdot;
}
// * * * * * * * * * * * * * * * * * * * * * * * * * * * * * * * * * * * * * //

dimensions      [1 -1 -3 0 0 0 0];

internalField   nonuniform List<scalar> 
125
(
-2.44815e-27
-1.85387e-27
-1.72267e-27
-1.69183e-27
-1.68321e-27
-1.68001e-27
-1.67858e-27
-1.67809e-27
-1.67828e-27
-1.67904e-27
-1.68026e-27
-1.68185e-27
-1.68375e-27
-1.6859e-27
-1.68827e-27
-1.69086e-27
-1.69368e-27
-1.69676e-27
-1.70017e-27
-1.70397e-27
-1.70825e-27
-1.71311e-27
-1.71867e-27
-1.72507e-27
-1.73244e-27
-1.74093e-27
-1.75072e-27
-1.76194e-27
-1.77478e-27
-1.78937e-27
-1.80585e-27
-1.82436e-27
-1.84499e-27
-1.86781e-27
-1.89285e-27
-1.9201e-27
-1.94951e-27
-1.98097e-27
-2.01434e-27
-2.0494e-27
-2.08589e-27
-2.12353e-27
-2.16196e-27
-2.20083e-27
-2.23975e-27
-2.27832e-27
-2.31615e-27
-2.35288e-27
-2.38816e-27
-2.42171e-27
-2.45325e-27
-2.48262e-27
-2.50966e-27
-2.5343e-27
-2.55653e-27
-2.57637e-27
-2.5939e-27
-2.60923e-27
-2.6225e-27
-2.63389e-27
-2.64355e-27
-2.65169e-27
-2.65846e-27
-2.66406e-27
-2.66863e-27
-2.67234e-27
-2.67533e-27
-2.6777e-27
-2.67958e-27
-2.68105e-27
-2.6822e-27
-2.68308e-27
-2.68376e-27
-2.68428e-27
-2.68467e-27
-2.68496e-27
-2.68518e-27
-2.68535e-27
-2.68547e-27
-2.68557e-27
-2.68564e-27
-2.6857e-27
-2.68575e-27
-2.68579e-27
-2.68582e-27
-2.68585e-27
-2.68588e-27
-2.68591e-27
-2.68594e-27
-2.68597e-27
-2.68599e-27
-2.68602e-27
-2.68605e-27
-2.68609e-27
-2.68612e-27
-2.68615e-27
-2.68619e-27
-2.68623e-27
-2.68627e-27
-2.68631e-27
-2.68635e-27
-2.68639e-27
-2.68644e-27
-2.68649e-27
-2.68654e-27
-2.68659e-27
-2.68664e-27
-2.6867e-27
-2.68676e-27
-2.68682e-27
-2.68688e-27
-2.68695e-27
-2.68701e-27
-2.68708e-27
-2.68716e-27
-2.68723e-27
-2.68731e-27
-2.68739e-27
-2.68747e-27
-2.68756e-27
-2.68765e-27
-2.68775e-27
-2.68787e-27
-2.68805e-27
-2.68844e-27
)
;

boundaryField
{
    boundary
    {
        type            empty;
    }
    inlet
    {
        type            calculated;
        value           uniform 0;
    }
    outlet
    {
        type            calculated;
        value           nonuniform 0();
    }
    procBoundary2to3
    {
        type            processor;
        value           uniform 0;
    }
}


// ************************************************************************* //
