/*--------------------------------*- C++ -*----------------------------------*\
  =========                 |
  \\      /  F ield         | OpenFOAM: The Open Source CFD Toolbox
   \\    /   O peration     | Website:  https://openfoam.org
    \\  /    A nd           | Version:  7
     \\/     M anipulation  |
\*---------------------------------------------------------------------------*/
FoamFile
{
    version     2.0;
    format      ascii;
    class       volScalarField;
    location    "0.00094";
    object      H2O;
}
// * * * * * * * * * * * * * * * * * * * * * * * * * * * * * * * * * * * * * //

dimensions      [0 0 0 0 0 0 0];

internalField   nonuniform List<scalar> 
126
(
3.02241e-45
3.02248e-45
3.02254e-45
3.02261e-45
3.02268e-45
3.02275e-45
3.02283e-45
3.02292e-45
3.023e-45
3.0231e-45
3.0232e-45
3.0233e-45
3.02341e-45
3.02353e-45
3.02365e-45
3.02378e-45
3.02391e-45
3.02405e-45
3.02419e-45
3.02433e-45
3.02447e-45
3.02463e-45
3.02478e-45
3.02494e-45
3.02512e-45
3.0253e-45
3.0255e-45
3.02571e-45
3.02594e-45
3.02619e-45
3.02647e-45
3.02677e-45
3.0271e-45
3.02746e-45
3.02784e-45
3.02824e-45
3.02867e-45
3.02912e-45
3.02958e-45
3.03006e-45
3.03054e-45
3.03102e-45
3.0315e-45
3.03196e-45
3.03242e-45
3.03285e-45
3.03327e-45
3.03366e-45
3.03403e-45
3.03437e-45
3.03469e-45
3.03499e-45
3.03527e-45
3.03553e-45
3.03577e-45
3.03601e-45
3.03623e-45
3.03646e-45
3.03668e-45
3.0369e-45
3.03713e-45
3.03737e-45
3.03762e-45
3.03787e-45
3.03814e-45
3.03841e-45
3.0387e-45
3.03902e-45
3.03938e-45
3.03988e-45
3.04086e-45
3.04343e-45
3.05137e-45
3.07727e-45
3.16314e-45
3.44837e-45
4.394e-45
7.51963e-45
1.78193e-44
5.16635e-44
1.62603e-43
5.25559e-43
1.71147e-42
5.58408e-42
1.82344e-41
5.96156e-41
1.95334e-40
6.42244e-40
2.12211e-39
7.05797e-39
2.36686e-38
8.01621e-38
2.74622e-37
9.52836e-37
3.35121e-36
1.19525e-35
4.32269e-35
1.58429e-34
5.87872e-34
2.20577e-33
8.3573e-33
3.19286e-32
1.22831e-31
4.7523e-31
1.84708e-30
7.20505e-30
2.81844e-29
1.10487e-28
4.33809e-28
1.70523e-27
6.70807e-27
2.64006e-26
1.03926e-25
4.09114e-25
1.61028e-24
6.33631e-24
2.49237e-23
9.79929e-23
3.85095e-22
1.5126e-21
5.93839e-21
2.33032e-20
9.141e-20
3.58456e-19
1.40535e-18
5.50915e-18
)
;

boundaryField
{
    boundary
    {
        type            empty;
    }
    inlet
    {
        type            fixedValue;
        value           nonuniform 0();
    }
    outlet
    {
        type            zeroGradient;
    }
    procBoundary3to1
    {
        type            processor;
        value           uniform 2.17104e-17;
    }
    procBoundary3to2
    {
        type            processor;
        value           uniform 3.02584e-45;
    }
}


// ************************************************************************* //
