/*--------------------------------*- C++ -*----------------------------------*\
  =========                 |
  \\      /  F ield         | OpenFOAM: The Open Source CFD Toolbox
   \\    /   O peration     | Website:  https://openfoam.org
    \\  /    A nd           | Version:  7
     \\/     M anipulation  |
\*---------------------------------------------------------------------------*/
FoamFile
{
    version     2.0;
    format      ascii;
    class       volScalarField;
    location    "0.00094";
    object      OH;
}
// * * * * * * * * * * * * * * * * * * * * * * * * * * * * * * * * * * * * * //

dimensions      [0 0 0 0 0 0 0];

internalField   nonuniform List<scalar> 
126
(
6.91967e-47
6.91979e-47
6.91993e-47
6.92009e-47
6.92028e-47
6.92048e-47
6.9207e-47
6.92093e-47
6.92118e-47
6.92145e-47
6.92173e-47
6.92205e-47
6.92238e-47
6.92273e-47
6.9231e-47
6.92348e-47
6.92387e-47
6.92426e-47
6.92464e-47
6.92503e-47
6.9254e-47
6.92576e-47
6.9261e-47
6.92643e-47
6.92674e-47
6.92704e-47
6.92733e-47
6.92761e-47
6.92789e-47
6.92818e-47
6.92847e-47
6.92877e-47
6.92908e-47
6.92941e-47
6.92976e-47
6.93013e-47
6.93051e-47
6.93092e-47
6.93134e-47
6.93179e-47
6.93225e-47
6.93272e-47
6.9332e-47
6.93369e-47
6.93419e-47
6.9347e-47
6.93522e-47
6.93574e-47
6.93626e-47
6.93678e-47
6.93731e-47
6.93784e-47
6.93838e-47
6.93891e-47
6.93946e-47
6.94e-47
6.94055e-47
6.9411e-47
6.94166e-47
6.94222e-47
6.94279e-47
6.94336e-47
6.94393e-47
6.94451e-47
6.9451e-47
6.94573e-47
6.9465e-47
6.94772e-47
6.95049e-47
6.9585e-47
6.98412e-47
7.06872e-47
7.3499e-47
8.28348e-47
1.13727e-46
2.15545e-46
5.49772e-46
1.6425e-45
5.20101e-45
1.67451e-44
5.40563e-44
1.74214e-43
5.5983e-43
1.79324e-42
5.7257e-42
1.82251e-41
5.78386e-41
1.83034e-40
5.77667e-40
1.81851e-39
5.71103e-39
1.78952e-38
5.59558e-38
1.74625e-37
5.43976e-37
1.69172e-36
5.25306e-36
1.62887e-35
5.04431e-35
1.56032e-34
4.82132e-34
1.48834e-33
4.59055e-33
1.41477e-32
4.35708e-32
1.34099e-31
4.12478e-31
1.26807e-30
3.89656e-30
1.19685e-29
3.67498e-29
1.12817e-28
3.46307e-28
1.06321e-27
3.2658e-27
1.00413e-26
3.09273e-26
9.55221e-26
2.9631e-25
9.25163e-25
2.91626e-24
9.31784e-24
3.0331e-23
1.01185e-22
3.48083e-22
1.24147e-21
)
;

boundaryField
{
    boundary
    {
        type            empty;
    }
    inlet
    {
        type            fixedValue;
        value           nonuniform 0();
    }
    outlet
    {
        type            zeroGradient;
    }
    procBoundary3to1
    {
        type            processor;
        value           uniform 4.63109e-21;
    }
    procBoundary3to2
    {
        type            processor;
        value           uniform 6.92016e-47;
    }
}


// ************************************************************************* //
