/*--------------------------------*- C++ -*----------------------------------*\
  =========                 |
  \\      /  F ield         | OpenFOAM: The Open Source CFD Toolbox
   \\    /   O peration     | Website:  https://openfoam.org
    \\  /    A nd           | Version:  7
     \\/     M anipulation  |
\*---------------------------------------------------------------------------*/
FoamFile
{
    version     2.0;
    format      ascii;
    class       volScalarField;
    location    "0.00079";
    object      p;
}
// * * * * * * * * * * * * * * * * * * * * * * * * * * * * * * * * * * * * * //

dimensions      [1 -1 -2 0 0 0 0];

internalField   nonuniform List<scalar> 
124
(
103100
103100
103099
103099
103099
103099
103099
103099
103099
103099
103099
103099
103099
103099
103099
103099
103099
103099
103099
103099
103099
103099
103099
103099
103099
103099
103099
103099
103099
103099
103099
103099
103099
103099
103099
103099
103099
103099
103099
103099
103099
103099
103099
103099
103099
103099
103099
103099
103099
103099
103099
103099
103099
103099
103099
103099
103099
103099
103099
103099
103099
103099
103098
103098
103098
103098
103098
103098
103098
103098
103098
103098
103098
103098
103098
103098
103098
103098
103098
103098
103098
103098
103098
103098
103098
103098
103098
103098
103098
103098
103098
103098
103098
103098
103098
103098
103098
103098
103098
103098
103098
103098
103098
103098
103098
103098
103098
103098
103098
103098
103098
103098
103098
103098
103098
103098
103098
103098
103098
103098
103098
103098
103098
103098
)
;

boundaryField
{
    boundary
    {
        type            empty;
    }
    inlet
    {
        type            zeroGradient;
    }
    outlet
    {
        type            waveTransmissive;
        gamma           1.4;
        value           uniform 103098;
    }
    procBoundary0to1
    {
        type            processor;
        value           uniform 103100;
    }
}


// ************************************************************************* //
