/*--------------------------------*- C++ -*----------------------------------*\
  =========                 |
  \\      /  F ield         | OpenFOAM: The Open Source CFD Toolbox
   \\    /   O peration     | Website:  https://openfoam.org
    \\  /    A nd           | Version:  7
     \\/     M anipulation  |
\*---------------------------------------------------------------------------*/
FoamFile
{
    version     2.0;
    format      ascii;
    class       volScalarField;
    location    "0.00098";
    object      H2O2;
}
// * * * * * * * * * * * * * * * * * * * * * * * * * * * * * * * * * * * * * //

dimensions      [0 0 0 0 0 0 0];

internalField   nonuniform List<scalar> 
125
(
1.99274e-52
6.4026e-52
1.27295e-51
2.09754e-51
3.11414e-51
4.32278e-51
5.72344e-51
7.31598e-51
9.1002e-51
1.10757e-50
1.32421e-50
1.55987e-50
1.81446e-50
2.08789e-50
2.38004e-50
2.69078e-50
3.01999e-50
3.36755e-50
3.73335e-50
4.11733e-50
4.51945e-50
4.93974e-50
5.37828e-50
5.83521e-50
6.31076e-50
6.80522e-50
7.31893e-50
7.85231e-50
8.40583e-50
8.97998e-50
9.57534e-50
1.01925e-49
1.0832e-49
1.14946e-49
1.2181e-49
1.28919e-49
1.36283e-49
1.4391e-49
1.51811e-49
1.59999e-49
1.68488e-49
1.77294e-49
1.86434e-49
1.9593e-49
2.05803e-49
2.1608e-49
2.26786e-49
2.3795e-49
2.49603e-49
2.61773e-49
2.74491e-49
2.87786e-49
3.01683e-49
3.16205e-49
3.31371e-49
3.4719e-49
3.63668e-49
3.808e-49
3.98571e-49
4.16956e-49
4.35919e-49
4.55409e-49
4.75368e-49
4.95722e-49
5.16389e-49
5.37274e-49
5.58277e-49
5.79289e-49
6.00196e-49
6.20883e-49
6.41236e-49
6.61141e-49
6.8049e-49
6.99183e-49
7.1713e-49
7.34251e-49
7.50478e-49
7.65759e-49
7.80054e-49
7.9334e-49
8.05606e-49
8.16854e-49
8.27102e-49
8.36376e-49
8.44712e-49
8.52157e-49
8.58761e-49
8.64581e-49
8.69676e-49
8.74108e-49
8.77937e-49
8.81226e-49
8.84031e-49
8.86409e-49
8.88413e-49
8.9009e-49
8.91486e-49
8.9264e-49
8.9359e-49
8.94366e-49
8.94996e-49
8.95506e-49
8.95916e-49
8.96244e-49
8.96506e-49
8.96713e-49
8.96877e-49
8.97007e-49
8.97109e-49
8.9719e-49
8.97253e-49
8.97304e-49
8.97345e-49
8.97379e-49
8.97406e-49
8.9743e-49
8.97451e-49
8.97469e-49
8.97486e-49
8.97501e-49
8.97513e-49
8.97513e-49
8.97468e-49
8.97242e-49
8.96312e-49
)
;

boundaryField
{
    boundary
    {
        type            empty;
    }
    inlet
    {
        type            fixedValue;
        value           uniform 0;
    }
    outlet
    {
        type            zeroGradient;
    }
    procBoundary2to3
    {
        type            processor;
        value           uniform 8.94469e-49;
    }
}


// ************************************************************************* //
