/*--------------------------------*- C++ -*----------------------------------*\
  =========                 |
  \\      /  F ield         | OpenFOAM: The Open Source CFD Toolbox
   \\    /   O peration     | Website:  https://openfoam.org
    \\  /    A nd           | Version:  7
     \\/     M anipulation  |
\*---------------------------------------------------------------------------*/
FoamFile
{
    version     2.0;
    format      ascii;
    class       surfaceScalarField;
    location    "0.00098";
    object      phi;
}
// * * * * * * * * * * * * * * * * * * * * * * * * * * * * * * * * * * * * * //

dimensions      [1 0 -1 0 0 0 0];

internalField   nonuniform List<scalar> 
124
(
6.93085e-06
6.93077e-06
6.9307e-06
6.93062e-06
6.93053e-06
6.93045e-06
6.93035e-06
6.93026e-06
6.93017e-06
6.93008e-06
6.92998e-06
6.9299e-06
6.92981e-06
6.92973e-06
6.92965e-06
6.92958e-06
6.92952e-06
6.92946e-06
6.92941e-06
6.92937e-06
6.92934e-06
6.92931e-06
6.92929e-06
6.92928e-06
6.92927e-06
6.92926e-06
6.92926e-06
6.92925e-06
6.92924e-06
6.92922e-06
6.9292e-06
6.92917e-06
6.92913e-06
6.92907e-06
6.92901e-06
6.92892e-06
6.92882e-06
6.92871e-06
6.92857e-06
6.92841e-06
6.92823e-06
6.92803e-06
6.92781e-06
6.92756e-06
6.92728e-06
6.92698e-06
6.92664e-06
6.92627e-06
6.92586e-06
6.92541e-06
6.92493e-06
6.92439e-06
6.92382e-06
6.92319e-06
6.92252e-06
6.9218e-06
6.92102e-06
6.9202e-06
6.91933e-06
6.91841e-06
6.91744e-06
6.91643e-06
6.91538e-06
6.9143e-06
6.91319e-06
6.91205e-06
6.9109e-06
6.90973e-06
6.90856e-06
6.90739e-06
6.90623e-06
6.90509e-06
6.90397e-06
6.90287e-06
6.90181e-06
6.90078e-06
6.89979e-06
6.89885e-06
6.89796e-06
6.89712e-06
6.89633e-06
6.89559e-06
6.89491e-06
6.89427e-06
6.89369e-06
6.89315e-06
6.89266e-06
6.89222e-06
6.89181e-06
6.89145e-06
6.89112e-06
6.89083e-06
6.89056e-06
6.89032e-06
6.89011e-06
6.88992e-06
6.88975e-06
6.88959e-06
6.88945e-06
6.88932e-06
6.88921e-06
6.8891e-06
6.889e-06
6.88891e-06
6.88882e-06
6.88874e-06
6.88867e-06
6.88859e-06
6.88852e-06
6.88845e-06
6.88839e-06
6.88832e-06
6.88826e-06
6.8882e-06
6.88813e-06
6.88807e-06
6.88801e-06
6.88795e-06
6.88789e-06
6.88783e-06
6.88777e-06
6.88772e-06
6.88766e-06
6.8876e-06
)
;

boundaryField
{
    boundary
    {
        type            empty;
        value           nonuniform 0();
    }
    inlet
    {
        type            calculated;
        value           uniform -6.93094e-06;
    }
    outlet
    {
        type            calculated;
        value           nonuniform 0();
    }
    procBoundary2to3
    {
        type            processor;
        value           uniform 6.88754e-06;
    }
}


// ************************************************************************* //
