/*--------------------------------*- C++ -*----------------------------------*\
  =========                 |
  \\      /  F ield         | OpenFOAM: The Open Source CFD Toolbox
   \\    /   O peration     | Website:  https://openfoam.org
    \\  /    A nd           | Version:  7
     \\/     M anipulation  |
\*---------------------------------------------------------------------------*/
FoamFile
{
    version     2.0;
    format      ascii;
    class       volScalarField;
    location    "0.00086";
    object      H2O2;
}
// * * * * * * * * * * * * * * * * * * * * * * * * * * * * * * * * * * * * * //

dimensions      [0 0 0 0 0 0 0];

internalField   nonuniform List<scalar> 
125
(
1.27153e-19
5.38264e-19
2.27273e-18
9.58759e-18
4.04293e-17
1.70456e-16
7.18684e-16
3.0307e-15
1.27847e-14
5.39554e-14
2.27831e-13
9.62617e-13
4.06977e-12
1.72172e-11
7.28829e-11
3.08702e-10
1.3082e-09
5.54605e-09
2.35166e-08
9.96757e-08
4.21505e-07
1.76652e-06
7.16918e-06
2.61608e-05
7.08943e-05
0.000112902
0.000122229
8.34818e-05
3.94783e-05
1.58434e-05
7.06091e-06
4.65348e-06
4.50059e-06
5.02222e-06
5.73598e-06
6.23124e-06
6.55752e-06
6.72798e-06
6.77574e-06
6.73455e-06
6.63241e-06
6.49039e-06
6.32358e-06
6.14272e-06
5.95514e-06
5.76584e-06
5.57819e-06
5.39441e-06
5.21594e-06
5.04364e-06
4.878e-06
4.71925e-06
4.56744e-06
4.42248e-06
4.28422e-06
4.15242e-06
4.02684e-06
3.90722e-06
3.7933e-06
3.68485e-06
3.58167e-06
3.48653e-06
3.39702e-06
3.31109e-06
3.22855e-06
3.14925e-06
3.07301e-06
2.99969e-06
2.92915e-06
2.86126e-06
2.79589e-06
2.73292e-06
2.67224e-06
2.61373e-06
2.5573e-06
2.50284e-06
2.45028e-06
2.39951e-06
2.35046e-06
2.30306e-06
2.25722e-06
2.21288e-06
2.16997e-06
2.12843e-06
2.08821e-06
2.04923e-06
2.01146e-06
1.97484e-06
1.93932e-06
1.90487e-06
1.87142e-06
1.83895e-06
1.80742e-06
1.77679e-06
1.74702e-06
1.71808e-06
1.68994e-06
1.66256e-06
1.63593e-06
1.61001e-06
1.58477e-06
1.5602e-06
1.53626e-06
1.51294e-06
1.49021e-06
1.46806e-06
1.44645e-06
1.42538e-06
1.40482e-06
1.38476e-06
1.36519e-06
1.34607e-06
1.32741e-06
1.30918e-06
1.29137e-06
1.27397e-06
1.25696e-06
1.24034e-06
1.22408e-06
1.20819e-06
1.19265e-06
1.17745e-06
1.16259e-06
1.14807e-06
1.13389e-06
)
;

boundaryField
{
    boundary
    {
        type            empty;
    }
    inlet
    {
        type            fixedValue;
        value           nonuniform 0();
    }
    outlet
    {
        type            zeroGradient;
    }
    procBoundary1to0
    {
        type            processor;
        value           uniform 1.11998e-06;
    }
    procBoundary1to3
    {
        type            processor;
        value           uniform 2.99192e-20;
    }
}


// ************************************************************************* //
