/*--------------------------------*- C++ -*----------------------------------*\
  =========                 |
  \\      /  F ield         | OpenFOAM: The Open Source CFD Toolbox
   \\    /   O peration     | Website:  https://openfoam.org
    \\  /    A nd           | Version:  7
     \\/     M anipulation  |
\*---------------------------------------------------------------------------*/
FoamFile
{
    version     2.0;
    format      ascii;
    class       volScalarField;
    location    "0.00086";
    object      T;
}
// * * * * * * * * * * * * * * * * * * * * * * * * * * * * * * * * * * * * * //

dimensions      [0 0 0 1 0 0 0];

internalField   nonuniform List<scalar> 
125
(
301.505
301.503
301.501
301.5
301.498
301.496
301.495
301.493
301.491
301.489
301.487
301.485
301.483
301.481
301.48
301.481
301.488
301.511
301.582
301.787
302.373
304.045
308.804
322.158
357.25
434.226
560.101
712.735
866.645
1012.71
1147.91
1267.06
1364.98
1447.6
1518.03
1574.23
1619.22
1657.8
1691.28
1720.75
1747
1770.62
1792.04
1811.61
1829.6
1846.21
1861.63
1875.99
1889.41
1902
1913.83
1925
1935.54
1945.54
1955.02
1964.04
1972.62
1980.81
1988.63
1996.1
2003.24
2009.88
2016.13
2022.2
2028.06
2033.74
2039.25
2044.59
2049.77
2054.8
2059.68
2064.43
2069.06
2073.56
2077.94
2082.21
2086.37
2090.42
2094.38
2098.25
2102.02
2105.7
2109.3
2112.82
2116.27
2119.64
2122.93
2126.16
2129.32
2132.42
2135.45
2138.42
2141.34
2144.2
2147.01
2149.76
2152.46
2155.12
2157.72
2160.28
2162.8
2165.27
2167.7
2170.09
2172.45
2174.76
2177.03
2179.27
2181.48
2183.64
2185.78
2187.88
2189.95
2192
2194.01
2195.99
2197.94
2199.86
2201.76
2203.62
2205.46
2207.28
2209.07
2210.82
2212.55
)
;

boundaryField
{
    boundary
    {
        type            empty;
    }
    inlet
    {
        type            fixedValue;
        value           nonuniform 0();
    }
    outlet
    {
        type            zeroGradient;
    }
    procBoundary1to0
    {
        type            processor;
        value           uniform 2214.27;
    }
    procBoundary1to3
    {
        type            processor;
        value           uniform 301.506;
    }
}


// ************************************************************************* //
