/*--------------------------------*- C++ -*----------------------------------*\
  =========                 |
  \\      /  F ield         | OpenFOAM: The Open Source CFD Toolbox
   \\    /   O peration     | Website:  https://openfoam.org
    \\  /    A nd           | Version:  7
     \\/     M anipulation  |
\*---------------------------------------------------------------------------*/
FoamFile
{
    version     2.0;
    format      ascii;
    class       volVectorField;
    location    "0.00086";
    object      U;
}
// * * * * * * * * * * * * * * * * * * * * * * * * * * * * * * * * * * * * * //

dimensions      [0 1 -1 0 0 0 0];

internalField   nonuniform List<vector> 
125
(
(2.34432 0 0)
(2.3443 0 0)
(2.34428 0 0)
(2.34427 0 0)
(2.34425 0 0)
(2.34423 0 0)
(2.34421 0 0)
(2.34419 0 0)
(2.34418 0 0)
(2.34416 0 0)
(2.34414 0 0)
(2.34412 0 0)
(2.3441 0 0)
(2.34408 0 0)
(2.34406 0 0)
(2.34405 0 0)
(2.34407 0 0)
(2.34418 0 0)
(2.34463 0 0)
(2.34617 0 0)
(2.35097 0 0)
(2.36481 0 0)
(2.40127 0 0)
(2.48978 0 0)
(2.69438 0 0)
(3.13222 0 0)
(3.97289 0 0)
(5.12849 0 0)
(6.3671 0 0)
(7.5223 0 0)
(8.54278 0 0)
(9.41705 0 0)
(10.1426 0 0)
(10.7412 0 0)
(11.2387 0 0)
(11.6422 0 0)
(11.9633 0 0)
(12.2275 0 0)
(12.4547 0 0)
(12.6542 0 0)
(12.8311 0 0)
(12.9892 0 0)
(13.1318 0 0)
(13.2614 0 0)
(13.38 0 0)
(13.489 0 0)
(13.5899 0 0)
(13.6834 0 0)
(13.7706 0 0)
(13.8521 0 0)
(13.9286 0 0)
(14.0004 0 0)
(14.0682 0 0)
(14.1322 0 0)
(14.1928 0 0)
(14.2503 0 0)
(14.3049 0 0)
(14.3569 0 0)
(14.4065 0 0)
(14.4537 0 0)
(14.4987 0 0)
(14.5406 0 0)
(14.5799 0 0)
(14.618 0 0)
(14.6548 0 0)
(14.6904 0 0)
(14.7248 0 0)
(14.7582 0 0)
(14.7905 0 0)
(14.8218 0 0)
(14.8523 0 0)
(14.8818 0 0)
(14.9105 0 0)
(14.9384 0 0)
(14.9656 0 0)
(14.992 0 0)
(15.0177 0 0)
(15.0428 0 0)
(15.0672 0 0)
(15.091 0 0)
(15.1143 0 0)
(15.137 0 0)
(15.1591 0 0)
(15.1807 0 0)
(15.2019 0 0)
(15.2225 0 0)
(15.2427 0 0)
(15.2625 0 0)
(15.2818 0 0)
(15.3008 0 0)
(15.3193 0 0)
(15.3375 0 0)
(15.3553 0 0)
(15.3727 0 0)
(15.3898 0 0)
(15.4065 0 0)
(15.423 0 0)
(15.4391 0 0)
(15.4549 0 0)
(15.4705 0 0)
(15.4857 0 0)
(15.5007 0 0)
(15.5154 0 0)
(15.5299 0 0)
(15.5441 0 0)
(15.558 0 0)
(15.5718 0 0)
(15.5853 0 0)
(15.5985 0 0)
(15.6116 0 0)
(15.6244 0 0)
(15.6371 0 0)
(15.6495 0 0)
(15.6618 0 0)
(15.6738 0 0)
(15.6857 0 0)
(15.6974 0 0)
(15.7089 0 0)
(15.7202 0 0)
(15.7314 0 0)
(15.7424 0 0)
(15.7533 0 0)
(15.7639 0 0)
(15.7744 0 0)
(15.7848 0 0)
)
;

boundaryField
{
    boundary
    {
        type            empty;
    }
    inlet
    {
        type            fixedValue;
        value           nonuniform 0();
    }
    outlet
    {
        type            zeroGradient;
    }
    procBoundary1to0
    {
        type            processor;
        value           uniform (15.795 0 0);
    }
    procBoundary1to3
    {
        type            processor;
        value           uniform (2.34434 0 0);
    }
}


// ************************************************************************* //
