/*--------------------------------*- C++ -*----------------------------------*\
  =========                 |
  \\      /  F ield         | OpenFOAM: The Open Source CFD Toolbox
   \\    /   O peration     | Website:  https://openfoam.org
    \\  /    A nd           | Version:  7
     \\/     M anipulation  |
\*---------------------------------------------------------------------------*/
FoamFile
{
    version     2.0;
    format      ascii;
    class       volScalarField;
    location    "0.00052";
    object      Qdot;
}
// * * * * * * * * * * * * * * * * * * * * * * * * * * * * * * * * * * * * * //

dimensions      [1 -1 -3 0 0 0 0];

internalField   nonuniform List<scalar> 
124
(
1.6205e+08
1.59227e+08
1.56483e+08
1.53813e+08
1.51211e+08
1.48673e+08
1.46196e+08
1.43778e+08
1.41416e+08
1.39109e+08
1.36855e+08
1.34652e+08
1.32498e+08
1.30393e+08
1.28335e+08
1.26322e+08
1.24353e+08
1.22426e+08
1.20542e+08
1.18697e+08
1.16892e+08
1.15125e+08
1.13395e+08
1.11702e+08
1.10043e+08
1.08418e+08
1.06827e+08
1.05269e+08
1.03741e+08
1.02245e+08
1.00779e+08
9.93424e+07
9.79358e+07
9.65595e+07
9.52147e+07
9.3904e+07
9.26352e+07
9.14142e+07
9.03523e+07
8.83098e+07
8.7185e+07
8.6101e+07
8.49783e+07
8.38518e+07
8.27325e+07
8.16255e+07
8.05329e+07
7.94555e+07
7.83933e+07
7.73461e+07
7.63132e+07
7.52948e+07
7.42893e+07
7.32966e+07
7.23162e+07
7.13474e+07
7.03894e+07
6.94417e+07
6.85036e+07
6.75744e+07
6.66534e+07
6.57399e+07
6.48333e+07
6.39328e+07
6.30379e+07
6.21466e+07
6.12606e+07
6.03778e+07
5.94976e+07
5.86194e+07
5.77426e+07
5.68666e+07
5.59909e+07
5.51149e+07
5.42382e+07
5.33602e+07
5.24807e+07
5.15992e+07
5.07155e+07
4.98287e+07
4.89399e+07
4.80481e+07
4.71534e+07
4.62558e+07
4.53553e+07
4.44521e+07
4.35463e+07
4.26382e+07
4.17279e+07
4.08159e+07
3.99024e+07
3.8988e+07
3.80729e+07
3.71577e+07
3.62429e+07
3.5329e+07
3.44164e+07
3.35059e+07
3.25979e+07
3.16931e+07
3.0792e+07
2.98952e+07
2.90035e+07
2.81173e+07
2.72373e+07
2.63643e+07
2.54989e+07
2.46417e+07
2.37935e+07
2.29549e+07
2.21266e+07
2.13094e+07
2.05039e+07
1.97107e+07
1.89303e+07
1.81637e+07
1.74109e+07
1.66728e+07
1.5949e+07
1.52394e+07
1.45453e+07
1.38706e+07
1.32371e+07
1.27481e+07
)
;

boundaryField
{
    boundary
    {
        type            empty;
    }
    inlet
    {
        type            calculated;
        value           nonuniform 0();
    }
    outlet
    {
        type            calculated;
        value           uniform 0;
    }
    procBoundary0to1
    {
        type            processor;
        value           uniform 0;
    }
}


// ************************************************************************* //
