/*--------------------------------*- C++ -*----------------------------------*\
  =========                 |
  \\      /  F ield         | OpenFOAM: The Open Source CFD Toolbox
   \\    /   O peration     | Website:  https://openfoam.org
    \\  /    A nd           | Version:  7
     \\/     M anipulation  |
\*---------------------------------------------------------------------------*/
FoamFile
{
    version     2.0;
    format      ascii;
    class       volScalarField;
    location    "0.00091";
    object      H;
}
// * * * * * * * * * * * * * * * * * * * * * * * * * * * * * * * * * * * * * //

dimensions      [0 0 0 0 0 0 0];

internalField   nonuniform List<scalar> 
500
(
1.48626e-41
2.01375e-41
2.12799e-41
2.15309e-41
2.15894e-41
2.1606e-41
2.1613e-41
2.16172e-41
2.16199e-41
2.1621e-41
2.16202e-41
2.16173e-41
2.1612e-41
2.16039e-41
2.15931e-41
2.15795e-41
2.15634e-41
2.15449e-41
2.15245e-41
2.15027e-41
2.14802e-41
2.14576e-41
2.14356e-41
2.14149e-41
2.13963e-41
2.13803e-41
2.13675e-41
2.13586e-41
2.13538e-41
2.13536e-41
2.13582e-41
2.13681e-41
2.13833e-41
2.14042e-41
2.1431e-41
2.14641e-41
2.15038e-41
2.15506e-41
2.16049e-41
2.16675e-41
2.17391e-41
2.18204e-41
2.19124e-41
2.2016e-41
2.21322e-41
2.22621e-41
2.24068e-41
2.25672e-41
2.27444e-41
2.29392e-41
2.31525e-41
2.33848e-41
2.36366e-41
2.39082e-41
2.41995e-41
2.45103e-41
2.484e-41
2.51878e-41
2.55526e-41
2.59328e-41
2.63267e-41
2.67323e-41
2.71472e-41
2.7569e-41
2.79949e-41
2.84221e-41
2.88478e-41
2.9269e-41
2.96829e-41
3.00869e-41
3.04783e-41
3.08548e-41
3.12146e-41
3.15558e-41
3.18772e-41
3.21777e-41
3.24567e-41
3.27139e-41
3.29494e-41
3.31634e-41
3.33566e-41
3.35298e-41
3.36841e-41
3.38205e-41
3.39404e-41
3.4045e-41
3.41357e-41
3.42138e-41
3.42807e-41
3.43377e-41
3.43858e-41
3.44262e-41
3.446e-41
3.44881e-41
3.45112e-41
3.45302e-41
3.45458e-41
3.45584e-41
3.45686e-41
3.45768e-41
3.45834e-41
3.45887e-41
3.45929e-41
3.45963e-41
3.45989e-41
3.46011e-41
3.46028e-41
3.46042e-41
3.46053e-41
3.46063e-41
3.46071e-41
3.46078e-41
3.46085e-41
3.46091e-41
3.46096e-41
3.46102e-41
3.46107e-41
3.46112e-41
3.46118e-41
3.46123e-41
3.46128e-41
3.46134e-41
3.46139e-41
3.46143e-41
3.46142e-41
3.46141e-41
3.4615e-41
3.46159e-41
3.46168e-41
3.46178e-41
3.46188e-41
3.46199e-41
3.4621e-41
3.46223e-41
3.46237e-41
3.46252e-41
3.46268e-41
3.46284e-41
3.46301e-41
3.46318e-41
3.46336e-41
3.46353e-41
3.46369e-41
3.46386e-41
3.46401e-41
3.46415e-41
3.46428e-41
3.46441e-41
3.46453e-41
3.46464e-41
3.46474e-41
3.46485e-41
3.46495e-41
3.46506e-41
3.46517e-41
3.46528e-41
3.4654e-41
3.46553e-41
3.46567e-41
3.46581e-41
3.46597e-41
3.46613e-41
3.4663e-41
3.46648e-41
3.46667e-41
3.46686e-41
3.46706e-41
3.46726e-41
3.46746e-41
3.46767e-41
3.46788e-41
3.4681e-41
3.46832e-41
3.46853e-41
3.46875e-41
3.46898e-41
3.4692e-41
3.46943e-41
3.46966e-41
3.46989e-41
3.47012e-41
3.47036e-41
3.47059e-41
3.47083e-41
3.47107e-41
3.47131e-41
3.47155e-41
3.47179e-41
3.47204e-41
3.47228e-41
3.47252e-41
3.47276e-41
3.473e-41
3.47323e-41
3.47346e-41
3.47369e-41
3.47392e-41
3.47414e-41
3.47435e-41
3.47455e-41
3.47475e-41
3.47494e-41
3.47513e-41
3.4753e-41
3.47546e-41
3.47562e-41
3.47577e-41
3.47596e-41
3.47627e-41
3.477e-41
3.4791e-41
3.48559e-41
3.50607e-41
3.57083e-41
3.77535e-41
4.41981e-41
6.44553e-41
1.27981e-40
3.2676e-40
9.47483e-40
2.88215e-39
8.90161e-39
2.76004e-38
8.56017e-38
2.65275e-37
8.21185e-37
2.53931e-36
7.84422e-36
2.42093e-35
7.46537e-35
2.30034e-34
7.08337e-34
2.17982e-33
6.7045e-33
2.06111e-32
6.3337e-32
1.94568e-31
5.9757e-31
1.83518e-30
5.63688e-30
1.73226e-29
5.32868e-29
1.642e-28
5.0739e-28
1.5747e-27
4.91922e-27
1.55152e-26
4.96073e-26
1.61615e-25
5.39722e-25
1.85918e-24
6.67787e-24
2.48645e-23
9.62182e-23
3.86418e-22
1.60317e-21
6.83138e-21
2.97284e-20
1.31492e-19
5.89089e-19
2.66764e-18
1.22033e-17
5.64451e-17
2.64664e-16
1.26353e-15
6.1803e-15
3.12119e-14
1.64074e-13
9.29475e-13
6.21573e-12
5.42847e-11
5.30535e-10
4.94883e-09
4.61968e-08
4.17537e-07
3.4048e-06
2.2186e-05
9.80297e-05
0.000270458
0.000534483
0.000869245
0.00123251
0.00155463
0.00177929
0.00189807
0.00192884
0.00190411
0.00184826
0.00177758
0.00170189
0.00162664
0.00155462
0.00148707
0.00142438
0.00136648
0.00131309
0.00126385
0.00121837
0.00117627
0.00113721
0.00110087
0.00106699
0.00103531
0.00100563
0.000977755
0.000951521
0.000926785
0.000903416
0.000881302
0.000860342
0.000840445
0.000821532
0.000804057
0.000787758
0.0007721
0.000757043
0.000742555
0.000728601
0.000715152
0.000702181
0.00068966
0.000677566
0.000665877
0.000654572
0.000643632
0.000633038
0.000622774
0.000612824
0.000603174
0.000593808
0.000584716
0.000575883
0.0005673
0.000558955
0.000550838
0.00054294
0.000535252
0.000527764
0.00052047
0.000513361
0.000506431
0.000499672
0.000493078
0.000486644
0.000480362
0.000474228
0.000468237
0.000462382
0.000456661
0.000451067
0.000445597
0.000440247
0.000435012
0.00042989
0.000424875
0.000419965
0.000415157
0.000410448
0.000405833
0.000401311
0.000396879
0.000392534
0.000388274
0.000384096
0.000379997
0.000375977
0.000372032
0.00036816
0.00036436
0.00036063
0.000356968
0.000353373
0.000349843
0.000346378
0.000342975
0.000339634
0.000336345
0.000333101
0.000329913
0.000326777
0.000323694
0.000320662
0.000317679
0.000314745
0.000311858
0.000309017
0.000306221
0.000303469
0.00030076
0.000298094
0.000295468
0.000292882
0.000290336
0.000287828
0.000285358
0.000282924
0.000280527
0.000278165
0.000275837
0.000273543
0.000271281
0.000269053
0.000266856
0.00026469
0.000262554
0.000260449
0.000258372
0.000256324
0.000254305
0.000252313
0.000250348
0.000248409
0.000246497
0.00024461
0.000242748
0.000240911
0.000239098
0.000237308
0.000235542
0.000233799
0.000232079
0.00023038
0.000228703
0.000227047
0.000225413
0.000223799
0.000222205
0.000220631
0.000219076
0.000217541
0.000216025
0.000214527
0.000213047
0.000211586
0.000210142
0.000208715
0.000207306
0.000205913
0.000204537
0.000203177
0.000201833
0.000200505
0.000199192
0.000197895
0.000196612
0.000195345
0.000194092
0.000192854
0.000191629
0.000190419
0.000189222
0.000188039
0.00018687
0.000185713
0.00018457
0.00018344
0.000182322
0.000181217
0.000180124
0.000179043
0.000177975
0.000176918
0.000175873
0.00017484
0.000173818
0.000172808
0.000171809
0.000170821
0.000169845
0.000168879
0.000167924
0.000166979
0.000166046
0.000165123
0.00016421
0.000163308
0.000162416
0.000161534
0.000160663
0.000159802
0.000158951
0.00015811
0.00015728
0.00015646
0.000155651
0.000154852
0.000154065
0.000153289
0.000152527
0.000151777
0.000151044
0.000150327
0.000149632
0.000148961
0.000148323
0.000147725
0.000147183
0.000146717
0.000146358
0.00014615
)
;

boundaryField
{
    boundary
    {
        type            empty;
    }
    inlet
    {
        type            fixedValue;
        value           uniform 0;
    }
    outlet
    {
        type            zeroGradient;
    }
}


// ************************************************************************* //
