/*--------------------------------*- C++ -*----------------------------------*\
  =========                 |
  \\      /  F ield         | OpenFOAM: The Open Source CFD Toolbox
   \\    /   O peration     | Website:  https://openfoam.org
    \\  /    A nd           | Version:  7
     \\/     M anipulation  |
\*---------------------------------------------------------------------------*/
FoamFile
{
    version     2.0;
    format      ascii;
    class       volScalarField;
    location    "0.00091";
    object      H2;
}
// * * * * * * * * * * * * * * * * * * * * * * * * * * * * * * * * * * * * * //

dimensions      [0 0 0 0 0 0 0];

internalField   nonuniform List<scalar> 
500
(
0.0285116
0.0285116
0.0285116
0.0285116
0.0285116
0.0285116
0.0285116
0.0285116
0.0285116
0.0285116
0.0285116
0.0285116
0.0285116
0.0285116
0.0285116
0.0285116
0.0285116
0.0285116
0.0285116
0.0285116
0.0285116
0.0285116
0.0285116
0.0285116
0.0285116
0.0285116
0.0285116
0.0285116
0.0285116
0.0285116
0.0285116
0.0285116
0.0285116
0.0285116
0.0285116
0.0285116
0.0285116
0.0285116
0.0285116
0.0285116
0.0285116
0.0285116
0.0285116
0.0285116
0.0285116
0.0285116
0.0285116
0.0285116
0.0285116
0.0285116
0.0285116
0.0285116
0.0285116
0.0285116
0.0285116
0.0285116
0.0285116
0.0285116
0.0285116
0.0285116
0.0285116
0.0285116
0.0285116
0.0285116
0.0285116
0.0285116
0.0285116
0.0285116
0.0285116
0.0285116
0.0285116
0.0285116
0.0285116
0.0285116
0.0285116
0.0285116
0.0285116
0.0285116
0.0285116
0.0285116
0.0285116
0.0285116
0.0285116
0.0285116
0.0285116
0.0285116
0.0285116
0.0285116
0.0285116
0.0285116
0.0285116
0.0285116
0.0285116
0.0285116
0.0285116
0.0285116
0.0285116
0.0285116
0.0285116
0.0285116
0.0285116
0.0285116
0.0285116
0.0285116
0.0285116
0.0285116
0.0285116
0.0285116
0.0285116
0.0285116
0.0285116
0.0285116
0.0285116
0.0285116
0.0285116
0.0285116
0.0285116
0.0285116
0.0285116
0.0285116
0.0285116
0.0285116
0.0285116
0.0285116
0.0285116
0.0285116
0.0285116
0.0285116
0.0285116
0.0285116
0.0285116
0.0285116
0.0285116
0.0285116
0.0285116
0.0285116
0.0285116
0.0285116
0.0285116
0.0285116
0.0285116
0.0285116
0.0285116
0.0285116
0.0285116
0.0285116
0.0285116
0.0285116
0.0285116
0.0285116
0.0285116
0.0285116
0.0285116
0.0285116
0.0285116
0.0285116
0.0285116
0.0285116
0.0285116
0.0285116
0.0285116
0.0285116
0.0285116
0.0285116
0.0285116
0.0285116
0.0285116
0.0285116
0.0285116
0.0285116
0.0285116
0.0285116
0.0285116
0.0285116
0.0285116
0.0285116
0.0285116
0.0285116
0.0285116
0.0285116
0.0285116
0.0285116
0.0285116
0.0285116
0.0285116
0.0285116
0.0285116
0.0285116
0.0285116
0.0285116
0.0285116
0.0285116
0.0285116
0.0285116
0.0285116
0.0285116
0.0285116
0.0285116
0.0285116
0.0285116
0.0285116
0.0285116
0.0285116
0.0285116
0.0285116
0.0285116
0.0285116
0.0285116
0.0285116
0.0285116
0.0285116
0.0285116
0.0285116
0.0285116
0.0285116
0.0285116
0.0285116
0.0285116
0.0285116
0.0285116
0.0285116
0.0285116
0.0285116
0.0285116
0.0285116
0.0285116
0.0285116
0.0285116
0.0285116
0.0285116
0.0285116
0.0285116
0.0285116
0.0285116
0.0285116
0.0285116
0.0285116
0.0285116
0.0285116
0.0285116
0.0285116
0.0285116
0.0285116
0.0285116
0.0285116
0.0285116
0.0285116
0.0285116
0.0285116
0.0285116
0.0285116
0.0285116
0.0285116
0.0285116
0.0285116
0.0285116
0.0285116
0.0285116
0.0285116
0.0285116
0.0285116
0.0285115
0.0285115
0.0285113
0.0285111
0.0285105
0.0285094
0.028507
0.0285019
0.0284914
0.0284696
0.0284241
0.0283298
0.0281359
0.0277473
0.0270113
0.0257528
0.0238774
0.0214981
0.0187684
0.0157723
0.0127144
0.0099605
0.00780439
0.00624389
0.00525587
0.00463556
0.00425264
0.00401623
0.00386787
0.00377158
0.00370575
0.0036576
0.00361964
0.00358755
0.00355883
0.00353206
0.00350644
0.00348153
0.0034571
0.00343302
0.00340925
0.00338576
0.00336254
0.00333962
0.003317
0.00329469
0.0032727
0.00325105
0.00322973
0.00320876
0.00318813
0.00316848
0.0031496
0.00313097
0.0031126
0.00309449
0.00307661
0.00305899
0.0030416
0.00302446
0.00300754
0.00299087
0.00297442
0.00295819
0.00294218
0.00292639
0.00291082
0.00289545
0.00288028
0.00286532
0.00285056
0.00283598
0.0028216
0.0028074
0.00279338
0.00277954
0.00276587
0.00275237
0.00273904
0.00272588
0.00271287
0.00270003
0.00268733
0.00267479
0.0026624
0.00265015
0.00263804
0.00262607
0.00261424
0.00260254
0.00259097
0.00257953
0.00256822
0.00255703
0.00254596
0.00253501
0.00252417
0.00251345
0.00250284
0.00249234
0.00248195
0.00247166
0.00246148
0.0024514
0.00244141
0.00243153
0.00242174
0.00241205
0.00240245
0.00239294
0.00238353
0.0023742
0.00236496
0.00235581
0.00234675
0.00233775
0.00232882
0.00231996
0.00231119
0.00230248
0.00229386
0.00228531
0.00227684
0.00226844
0.00226011
0.00225185
0.00224367
0.00223556
0.00222751
0.00221954
0.00221163
0.0022038
0.00219603
0.00218832
0.00218069
0.00217312
0.00216561
0.00215817
0.00215079
0.00214348
0.00213622
0.00212903
0.00212191
0.00211484
0.00210783
0.00210088
0.00209399
0.00208716
0.00208039
0.00207367
0.00206701
0.0020604
0.00205385
0.00204735
0.00204091
0.00203451
0.00202817
0.00202189
0.00201565
0.00200946
0.00200332
0.00199723
0.00199118
0.00198518
0.00197923
0.00197333
0.00196747
0.00196165
0.00195588
0.00195016
0.00194447
0.00193883
0.00193323
0.00192767
0.00192215
0.00191667
0.00191124
0.00190584
0.00190048
0.00189516
0.00188988
0.00188464
0.00187943
0.00187426
0.00186913
0.00186404
0.00185898
0.00185396
0.00184897
0.00184402
0.0018391
0.00183422
0.00182937
0.00182456
0.00181978
0.00181504
0.00181033
0.00180566
0.00180101
0.00179641
0.00179183
0.00178729
0.00178279
0.00177831
0.00177387
0.00176947
0.0017651
0.00176076
0.00175646
0.00175219
0.00174796
0.00174376
0.0017396
0.00173547
0.00173139
0.00172733
0.00172332
0.00171935
0.00171542
0.00171152
0.00170767
0.00170387
0.00170011
0.0016964
0.00169275
0.00168915
0.00168561
0.00168214
0.00167875
0.00167546
0.00167227
0.00166921
0.0016663
0.0016636
0.00166113
0.00165897
0.00165719
0.00165588
0.00165515
)
;

boundaryField
{
    boundary
    {
        type            empty;
    }
    inlet
    {
        type            fixedValue;
        value           uniform 0.0285116;
    }
    outlet
    {
        type            zeroGradient;
    }
}


// ************************************************************************* //
