/*--------------------------------*- C++ -*----------------------------------*\
  =========                 |
  \\      /  F ield         | OpenFOAM: The Open Source CFD Toolbox
   \\    /   O peration     | Website:  https://openfoam.org
    \\  /    A nd           | Version:  7
     \\/     M anipulation  |
\*---------------------------------------------------------------------------*/
FoamFile
{
    version     2.0;
    format      ascii;
    class       volScalarField;
    location    "0.00091";
    object      H2O;
}
// * * * * * * * * * * * * * * * * * * * * * * * * * * * * * * * * * * * * * //

dimensions      [0 0 0 0 0 0 0];

internalField   nonuniform List<scalar> 
500
(
7.88506e-48
2.27872e-47
4.09999e-47
6.14503e-47
8.34125e-47
1.06397e-46
1.3007e-46
1.54208e-46
1.78653e-46
2.03298e-46
2.28065e-46
2.52898e-46
2.77758e-46
3.02616e-46
3.27452e-46
3.52255e-46
3.77022e-46
4.01755e-46
4.26464e-46
4.51164e-46
4.75873e-46
5.00616e-46
5.25419e-46
5.5031e-46
5.75316e-46
6.00467e-46
6.2579e-46
6.51311e-46
6.77055e-46
7.03046e-46
7.29309e-46
7.55868e-46
7.82749e-46
8.09984e-46
8.37607e-46
8.65659e-46
8.94189e-46
9.23253e-46
9.52918e-46
9.83259e-46
1.01436e-45
1.04632e-45
1.07923e-45
1.1132e-45
1.14835e-45
1.18478e-45
1.22261e-45
1.26195e-45
1.30288e-45
1.34549e-45
1.38985e-45
1.43598e-45
1.48392e-45
1.53364e-45
1.58508e-45
1.63817e-45
1.69278e-45
1.74875e-45
1.80588e-45
1.86393e-45
1.92264e-45
1.98172e-45
2.04085e-45
2.0997e-45
2.15794e-45
2.21524e-45
2.27125e-45
2.32566e-45
2.37819e-45
2.42857e-45
2.47657e-45
2.52199e-45
2.56468e-45
2.60454e-45
2.6415e-45
2.67553e-45
2.70665e-45
2.73492e-45
2.76041e-45
2.78325e-45
2.80357e-45
2.82151e-45
2.83726e-45
2.85099e-45
2.86287e-45
2.87308e-45
2.8818e-45
2.8892e-45
2.89544e-45
2.90066e-45
2.90501e-45
2.9086e-45
2.91154e-45
2.91395e-45
2.91591e-45
2.91748e-45
2.91875e-45
2.91976e-45
2.92056e-45
2.92119e-45
2.92169e-45
2.92208e-45
2.92239e-45
2.92263e-45
2.92282e-45
2.92297e-45
2.92309e-45
2.92318e-45
2.92326e-45
2.92333e-45
2.92339e-45
2.92344e-45
2.92349e-45
2.92354e-45
2.92358e-45
2.92363e-45
2.92367e-45
2.92371e-45
2.92376e-45
2.92381e-45
2.92385e-45
2.92386e-45
2.92377e-45
2.92331e-45
2.92147e-45
2.91805e-45
2.91812e-45
2.91819e-45
2.91826e-45
2.91833e-45
2.91841e-45
2.9185e-45
2.91859e-45
2.91868e-45
2.91879e-45
2.91889e-45
2.91901e-45
2.91912e-45
2.91925e-45
2.91937e-45
2.9195e-45
2.91964e-45
2.91977e-45
2.91991e-45
2.92006e-45
2.92021e-45
2.92036e-45
2.92052e-45
2.9207e-45
2.92089e-45
2.92109e-45
2.92132e-45
2.92157e-45
2.92184e-45
2.92214e-45
2.92247e-45
2.92282e-45
2.9232e-45
2.92361e-45
2.92405e-45
2.9245e-45
2.92497e-45
2.92544e-45
2.92593e-45
2.92641e-45
2.92689e-45
2.92735e-45
2.9278e-45
2.92824e-45
2.92864e-45
2.92903e-45
2.92938e-45
2.92971e-45
2.93002e-45
2.9303e-45
2.93056e-45
2.9308e-45
2.93103e-45
2.93125e-45
2.93146e-45
2.93167e-45
2.93187e-45
2.93208e-45
2.9323e-45
2.93253e-45
2.93276e-45
2.93301e-45
2.93327e-45
2.93353e-45
2.93381e-45
2.9341e-45
2.93441e-45
2.93472e-45
2.93506e-45
2.9355e-45
2.93624e-45
2.93805e-45
2.94347e-45
2.9612e-45
3.02052e-45
3.21991e-45
3.88895e-45
6.12678e-45
1.35864e-44
3.83719e-44
1.20489e-43
3.919e-43
1.28735e-42
4.23846e-42
1.39623e-41
4.60284e-41
1.51986e-40
5.03302e-40
1.67391e-39
5.60035e-39
1.88805e-38
6.42482e-38
2.21025e-37
7.69713e-37
2.71602e-36
9.7155e-36
3.52298e-35
1.29434e-34
4.8137e-34
1.81e-33
6.8715e-33
2.63017e-32
1.01364e-31
3.92837e-31
1.52927e-30
5.97439e-30
2.34042e-29
9.18768e-29
3.61241e-28
1.42194e-27
5.60151e-27
2.20774e-26
8.70379e-26
3.43163e-25
1.35287e-24
5.33228e-24
2.10099e-23
8.27455e-23
3.2572e-22
1.28144e-21
5.03842e-21
1.97982e-20
7.77496e-20
3.0516e-19
1.19712e-18
4.6943e-18
1.85019e-17
7.27001e-17
2.85084e-16
1.11745e-15
4.3803e-15
1.71744e-14
6.73612e-14
2.64312e-13
1.03758e-12
4.07509e-12
1.60125e-11
6.29482e-11
2.47567e-10
9.74013e-10
3.83334e-09
1.50904e-08
5.94161e-08
2.3396e-07
9.21155e-07
3.62516e-06
1.42474e-05
5.57805e-05
0.000216033
0.000811791
0.00282192
0.00830453
0.0191031
0.0344312
0.0532105
0.0758607
0.101611
0.127016
0.148256
0.165328
0.176503
0.184036
0.189111
0.192604
0.1951
0.196969
0.198442
0.19966
0.200708
0.201639
0.202486
0.203271
0.204005
0.204697
0.205354
0.20598
0.206577
0.207149
0.207697
0.208223
0.208729
0.209215
0.209684
0.210135
0.210571
0.210992
0.211398
0.211778
0.212141
0.212494
0.212839
0.213175
0.213504
0.213824
0.214138
0.214444
0.214744
0.215037
0.215325
0.215606
0.215882
0.216152
0.216417
0.216676
0.216931
0.217182
0.217427
0.217668
0.217905
0.218138
0.218367
0.218592
0.218813
0.21903
0.219244
0.219455
0.219662
0.219866
0.220066
0.220264
0.220459
0.22065
0.220839
0.221026
0.221209
0.22139
0.221568
0.221744
0.221917
0.222088
0.222257
0.222423
0.222587
0.222749
0.222909
0.223067
0.223223
0.223376
0.223528
0.223678
0.223826
0.223972
0.224116
0.224258
0.224399
0.224538
0.224675
0.22481
0.224944
0.225076
0.225206
0.225335
0.225463
0.225589
0.225714
0.225838
0.22596
0.22608
0.2262
0.226318
0.226435
0.226551
0.226665
0.226778
0.22689
0.227001
0.227111
0.22722
0.227328
0.227434
0.22754
0.227644
0.227748
0.227851
0.227952
0.228053
0.228153
0.228252
0.22835
0.228448
0.228544
0.22864
0.228734
0.228828
0.228922
0.229014
0.229106
0.229197
0.229287
0.229376
0.229465
0.229553
0.22964
0.229726
0.229812
0.229897
0.229982
0.230065
0.230149
0.230231
0.230313
0.230394
0.230474
0.230554
0.230633
0.230711
0.230789
0.230867
0.230943
0.231019
0.231095
0.231169
0.231244
0.231317
0.23139
0.231463
0.231534
0.231606
0.231676
0.231747
0.231816
0.231885
0.231954
0.232022
0.232089
0.232156
0.232223
0.232289
0.232354
0.232419
0.232483
0.232547
0.232611
0.232674
0.232736
0.232798
0.23286
0.232921
0.232981
0.233042
0.233101
0.233161
0.233219
0.233278
0.233336
0.233394
0.233451
0.233508
0.233564
0.23362
0.233676
0.233731
0.233786
0.233841
0.233895
0.23395
0.234003
0.234057
0.23411
0.234163
0.234216
0.234269
0.234321
0.234373
0.234425
0.234477
0.234528
0.234579
0.23463
0.23468
0.234728
0.234775
0.234819
0.234856
0.234881
)
;

boundaryField
{
    boundary
    {
        type            empty;
    }
    inlet
    {
        type            fixedValue;
        value           uniform 0;
    }
    outlet
    {
        type            zeroGradient;
    }
}


// ************************************************************************* //
