/*--------------------------------*- C++ -*----------------------------------*\
  =========                 |
  \\      /  F ield         | OpenFOAM: The Open Source CFD Toolbox
   \\    /   O peration     | Website:  https://openfoam.org
    \\  /    A nd           | Version:  7
     \\/     M anipulation  |
\*---------------------------------------------------------------------------*/
FoamFile
{
    version     2.0;
    format      ascii;
    class       volScalarField;
    location    "0.00091";
    object      HO2;
}
// * * * * * * * * * * * * * * * * * * * * * * * * * * * * * * * * * * * * * //

dimensions      [0 0 0 0 0 0 0];

internalField   nonuniform List<scalar> 
500
(
5.59347e-38
1.27307e-37
1.98953e-37
2.70668e-37
3.42403e-37
4.1414e-37
4.85866e-37
5.57566e-37
6.29219e-37
7.00804e-37
7.72293e-37
8.43661e-37
9.14883e-37
9.85939e-37
1.05681e-36
1.1275e-36
1.19801e-36
1.26835e-36
1.33856e-36
1.40867e-36
1.47874e-36
1.54881e-36
1.61896e-36
1.68925e-36
1.75974e-36
1.8305e-36
1.9016e-36
1.97309e-36
2.04503e-36
2.11747e-36
2.19045e-36
2.26403e-36
2.33826e-36
2.4132e-36
2.48892e-36
2.56549e-36
2.64303e-36
2.72163e-36
2.80144e-36
2.8826e-36
2.96528e-36
3.04968e-36
3.13599e-36
3.22444e-36
3.31523e-36
3.40859e-36
3.50474e-36
3.60386e-36
3.70613e-36
3.81169e-36
3.92063e-36
4.033e-36
4.14877e-36
4.26785e-36
4.39009e-36
4.51523e-36
4.64297e-36
4.77291e-36
4.90456e-36
5.03738e-36
5.17077e-36
5.30407e-36
5.43659e-36
5.56763e-36
5.69646e-36
5.82238e-36
5.94472e-36
6.06284e-36
6.17617e-36
6.28421e-36
6.38652e-36
6.48278e-36
6.57273e-36
6.65623e-36
6.73322e-36
6.80371e-36
6.86782e-36
6.92573e-36
6.97768e-36
7.02396e-36
7.06491e-36
7.1009e-36
7.13232e-36
7.15956e-36
7.18302e-36
7.20308e-36
7.22014e-36
7.23453e-36
7.2466e-36
7.25666e-36
7.26499e-36
7.27185e-36
7.27745e-36
7.28201e-36
7.28569e-36
7.28864e-36
7.291e-36
7.29288e-36
7.29436e-36
7.29553e-36
7.29645e-36
7.29717e-36
7.29773e-36
7.29817e-36
7.29852e-36
7.29879e-36
7.29901e-36
7.29919e-36
7.29933e-36
7.29946e-36
7.29957e-36
7.29967e-36
7.29976e-36
7.29985e-36
7.29993e-36
7.30002e-36
7.3001e-36
7.30019e-36
7.30028e-36
7.30037e-36
7.30045e-36
7.30048e-36
7.30031e-36
7.29935e-36
7.29527e-36
7.28722e-36
7.28735e-36
7.28748e-36
7.28762e-36
7.28777e-36
7.28793e-36
7.2881e-36
7.28827e-36
7.28846e-36
7.28866e-36
7.28887e-36
7.28909e-36
7.28932e-36
7.28956e-36
7.2898e-36
7.29006e-36
7.29031e-36
7.29057e-36
7.29084e-36
7.29111e-36
7.29138e-36
7.29166e-36
7.29195e-36
7.29226e-36
7.29258e-36
7.29294e-36
7.29332e-36
7.29374e-36
7.2942e-36
7.29471e-36
7.29527e-36
7.29587e-36
7.29653e-36
7.29723e-36
7.29797e-36
7.29876e-36
7.29956e-36
7.30039e-36
7.30122e-36
7.30205e-36
7.30287e-36
7.30366e-36
7.30442e-36
7.30513e-36
7.3058e-36
7.30643e-36
7.307e-36
7.30753e-36
7.30802e-36
7.30848e-36
7.30891e-36
7.30933e-36
7.30974e-36
7.31015e-36
7.31058e-36
7.31104e-36
7.31152e-36
7.31204e-36
7.3126e-36
7.3132e-36
7.31385e-36
7.31453e-36
7.31525e-36
7.31601e-36
7.31679e-36
7.31759e-36
7.31841e-36
7.31923e-36
7.32005e-36
7.32086e-36
7.32166e-36
7.32244e-36
7.3232e-36
7.32392e-36
7.32462e-36
7.32527e-36
7.32589e-36
7.32647e-36
7.32701e-36
7.3275e-36
7.32795e-36
7.32836e-36
7.32873e-36
7.32906e-36
7.32937e-36
7.3297e-36
7.33019e-36
7.33131e-36
7.3345e-36
7.34438e-36
7.37556e-36
7.47414e-36
7.78533e-36
8.76531e-36
1.18444e-35
2.14995e-35
5.17226e-35
1.46194e-34
4.41175e-34
1.36164e-33
4.23345e-33
1.31978e-32
4.12165e-32
1.28993e-31
4.04965e-31
1.27717e-30
4.05376e-30
1.29784e-29
4.20234e-29
1.38028e-28
4.6133e-28
1.57367e-27
5.49205e-27
1.96393e-26
7.19815e-26
2.70153e-25
1.03612e-24
4.04977e-24
1.6082e-23
6.46876e-23
2.62833e-22
1.07622e-21
4.43255e-21
1.83357e-20
7.60935e-20
3.16553e-19
1.32677e-18
5.5515e-18
2.321e-17
9.70871e-17
4.06398e-16
1.70229e-15
7.13461e-15
2.99178e-14
1.25509e-13
5.26704e-13
2.21089e-12
9.28185e-12
3.89694e-11
1.636e-10
6.86675e-10
2.88107e-09
1.20807e-08
5.0598e-08
2.11417e-07
8.78208e-07
3.59868e-06
1.43379e-05
5.35719e-05
0.000172783
0.000399085
0.000520829
0.000471688
0.000362167
0.00025867
0.000181483
0.000126922
8.8584e-05
6.2392e-05
4.39053e-05
3.27147e-05
2.55501e-05
2.08883e-05
1.77617e-05
1.55804e-05
1.39914e-05
1.27835e-05
1.18294e-05
1.10506e-05
1.03977e-05
9.83858e-06
9.35167e-06
8.92204e-06
8.53898e-06
8.19458e-06
7.8828e-06
7.59893e-06
7.33921e-06
7.10058e-06
6.88049e-06
6.67683e-06
6.48778e-06
6.31182e-06
6.14763e-06
5.99411e-06
5.8503e-06
5.71547e-06
5.59275e-06
5.47845e-06
5.36977e-06
5.26628e-06
5.16763e-06
5.07346e-06
4.98349e-06
4.89743e-06
4.81503e-06
4.73608e-06
4.66035e-06
4.58766e-06
4.51783e-06
4.45069e-06
4.38611e-06
4.32393e-06
4.26403e-06
4.20628e-06
4.15058e-06
4.09683e-06
4.04492e-06
3.99476e-06
3.94627e-06
3.89938e-06
3.854e-06
3.81006e-06
3.76751e-06
3.72628e-06
3.6863e-06
3.64754e-06
3.60993e-06
3.57342e-06
3.53798e-06
3.50355e-06
3.4701e-06
3.43758e-06
3.40597e-06
3.37522e-06
3.34531e-06
3.31619e-06
3.28785e-06
3.26025e-06
3.23337e-06
3.20718e-06
3.18166e-06
3.15678e-06
3.13252e-06
3.10887e-06
3.08579e-06
3.06328e-06
3.04131e-06
3.01987e-06
2.99894e-06
2.9785e-06
2.95855e-06
2.93905e-06
2.92001e-06
2.90141e-06
2.88324e-06
2.86548e-06
2.84813e-06
2.83118e-06
2.81463e-06
2.79848e-06
2.78268e-06
2.76715e-06
2.75194e-06
2.73706e-06
2.7225e-06
2.70824e-06
2.69428e-06
2.6806e-06
2.66721e-06
2.65408e-06
2.64122e-06
2.62862e-06
2.61627e-06
2.60415e-06
2.59227e-06
2.58062e-06
2.56919e-06
2.55797e-06
2.54696e-06
2.53615e-06
2.52554e-06
2.51511e-06
2.50487e-06
2.49481e-06
2.48492e-06
2.47521e-06
2.46565e-06
2.45626e-06
2.44703e-06
2.43794e-06
2.429e-06
2.42021e-06
2.41156e-06
2.40305e-06
2.39467e-06
2.38642e-06
2.3783e-06
2.37031e-06
2.36244e-06
2.35469e-06
2.34706e-06
2.33955e-06
2.33215e-06
2.32486e-06
2.31768e-06
2.31061e-06
2.30365e-06
2.29678e-06
2.29003e-06
2.28337e-06
2.27681e-06
2.27034e-06
2.26398e-06
2.2577e-06
2.25152e-06
2.24542e-06
2.23942e-06
2.2335e-06
2.22767e-06
2.22192e-06
2.21625e-06
2.21067e-06
2.20516e-06
2.19973e-06
2.19437e-06
2.1891e-06
2.18389e-06
2.17876e-06
2.1737e-06
2.1687e-06
2.16378e-06
2.15893e-06
2.15414e-06
2.14941e-06
2.14475e-06
2.14015e-06
2.13561e-06
2.13114e-06
2.12672e-06
2.12237e-06
2.11807e-06
2.11383e-06
2.10964e-06
2.10551e-06
2.10144e-06
2.09741e-06
2.09344e-06
2.08952e-06
2.08566e-06
2.08184e-06
2.07807e-06
2.07434e-06
2.07066e-06
2.06703e-06
2.06344e-06
2.05989e-06
2.05639e-06
2.05292e-06
2.04949e-06
2.0461e-06
2.04275e-06
2.03943e-06
2.03614e-06
2.03288e-06
2.02964e-06
2.02644e-06
2.02326e-06
2.0201e-06
2.01696e-06
2.01384e-06
2.01073e-06
2.00764e-06
2.00456e-06
2.00149e-06
1.99843e-06
1.99538e-06
1.99233e-06
1.9893e-06
1.98628e-06
1.98331e-06
1.98041e-06
1.97766e-06
1.97525e-06
1.97353e-06
)
;

boundaryField
{
    boundary
    {
        type            empty;
    }
    inlet
    {
        type            fixedValue;
        value           uniform 0;
    }
    outlet
    {
        type            zeroGradient;
    }
}


// ************************************************************************* //
