/*--------------------------------*- C++ -*----------------------------------*\
  =========                 |
  \\      /  F ield         | OpenFOAM: The Open Source CFD Toolbox
   \\    /   O peration     | Website:  https://openfoam.org
    \\  /    A nd           | Version:  7
     \\/     M anipulation  |
\*---------------------------------------------------------------------------*/
FoamFile
{
    version     2.0;
    format      ascii;
    class       volScalarField;
    location    "0.00091";
    object      O;
}
// * * * * * * * * * * * * * * * * * * * * * * * * * * * * * * * * * * * * * //

dimensions      [0 0 0 0 0 0 0];

internalField   nonuniform List<scalar> 
500
(
1.57774e-47
3.76461e-47
5.96401e-47
8.16459e-47
1.03637e-46
1.25604e-46
1.47541e-46
1.69443e-46
1.91301e-46
2.13106e-46
2.34851e-46
2.56525e-46
2.78121e-46
2.99632e-46
3.21055e-46
3.42389e-46
3.63637e-46
3.84807e-46
4.05911e-46
4.26962e-46
4.47981e-46
4.68988e-46
4.90007e-46
5.11064e-46
5.32182e-46
5.53388e-46
5.74706e-46
5.96161e-46
6.17776e-46
6.39573e-46
6.61577e-46
6.83811e-46
7.063e-46
7.29074e-46
7.52165e-46
7.75609e-46
7.9945e-46
8.23735e-46
8.48519e-46
8.73865e-46
8.99839e-46
9.26516e-46
9.53973e-46
9.82294e-46
1.01156e-45
1.04186e-45
1.07326e-45
1.10585e-45
1.1397e-45
1.17485e-45
1.21134e-45
1.24921e-45
1.28845e-45
1.32905e-45
1.37096e-45
1.41411e-45
1.45841e-45
1.50373e-45
1.54993e-45
1.59682e-45
1.64421e-45
1.69189e-45
1.73962e-45
1.78715e-45
1.83424e-45
1.88064e-45
1.92609e-45
1.97035e-45
2.01321e-45
2.05446e-45
2.09391e-45
2.1314e-45
2.16682e-45
2.20006e-45
2.23106e-45
2.25978e-45
2.28622e-45
2.3104e-45
2.33238e-45
2.35221e-45
2.37e-45
2.38586e-45
2.3999e-45
2.41224e-45
2.42303e-45
2.4324e-45
2.44049e-45
2.44742e-45
2.45332e-45
2.45832e-45
2.46253e-45
2.46605e-45
2.46897e-45
2.47139e-45
2.47338e-45
2.475e-45
2.47631e-45
2.47738e-45
2.47823e-45
2.47892e-45
2.47946e-45
2.47989e-45
2.48023e-45
2.48051e-45
2.48072e-45
2.48089e-45
2.48102e-45
2.48113e-45
2.48122e-45
2.4813e-45
2.48136e-45
2.48141e-45
2.48146e-45
2.48151e-45
2.48155e-45
2.48159e-45
2.48163e-45
2.48167e-45
2.48171e-45
2.48174e-45
2.48175e-45
2.48172e-45
2.48154e-45
2.48094e-45
2.47912e-45
2.47649e-45
2.47654e-45
2.4766e-45
2.47667e-45
2.47673e-45
2.4768e-45
2.47688e-45
2.47696e-45
2.47704e-45
2.47713e-45
2.47723e-45
2.47733e-45
2.47743e-45
2.47755e-45
2.47766e-45
2.47779e-45
2.47792e-45
2.47805e-45
2.4782e-45
2.47835e-45
2.47851e-45
2.47869e-45
2.47887e-45
2.47908e-45
2.47929e-45
2.47953e-45
2.47979e-45
2.48007e-45
2.48036e-45
2.48068e-45
2.48102e-45
2.48137e-45
2.48174e-45
2.48212e-45
2.48251e-45
2.4829e-45
2.4833e-45
2.48369e-45
2.48408e-45
2.48446e-45
2.48482e-45
2.48517e-45
2.48551e-45
2.48583e-45
2.48613e-45
2.48642e-45
2.48669e-45
2.48694e-45
2.48719e-45
2.48742e-45
2.48764e-45
2.48785e-45
2.48806e-45
2.48826e-45
2.48846e-45
2.48866e-45
2.48886e-45
2.48906e-45
2.48926e-45
2.48947e-45
2.48968e-45
2.4899e-45
2.49012e-45
2.49036e-45
2.49065e-45
2.49107e-45
2.49199e-45
2.49459e-45
2.503e-45
2.53129e-45
2.62734e-45
2.95326e-45
4.05525e-45
7.76509e-45
2.01974e-44
6.16713e-44
1.99406e-43
6.54812e-43
2.15407e-42
7.06903e-42
2.31153e-41
7.52938e-41
2.44306e-40
7.89703e-40
2.5433e-39
8.16189e-39
2.61038e-38
8.32142e-38
2.64445e-37
8.37885e-37
2.64734e-36
8.34214e-36
2.62215e-35
8.22274e-35
2.5729e-34
8.0342e-34
2.50405e-33
7.79091e-33
2.42013e-32
7.50684e-32
2.32541e-31
7.19477e-31
2.22363e-30
6.86563e-30
2.11793e-29
6.5282e-29
2.01074e-28
6.18909e-28
1.90382e-27
5.8529e-27
1.79835e-26
5.52257e-26
1.69504e-25
5.19984e-25
1.59431e-24
4.88574e-24
1.49645e-23
4.58109e-23
1.40171e-22
4.28687e-22
1.31047e-21
4.0044e-21
1.22319e-20
3.73532e-20
1.14042e-19
3.48136e-19
1.06748e-18
3.26768e-18
9.98491e-18
3.04984e-17
9.3162e-17
2.84646e-16
8.6997e-16
2.65982e-15
8.13487e-15
2.48885e-14
7.61707e-14
2.33189e-13
7.14071e-13
2.18714e-12
6.70031e-12
2.05298e-11
6.29127e-11
1.92822e-10
5.91151e-10
1.81407e-09
5.58899e-09
1.75063e-08
5.84005e-08
2.35366e-07
1.33022e-06
9.26849e-06
5.23851e-05
0.000225171
0.000754119
0.00179081
0.00314095
0.00442794
0.00539896
0.00602289
0.00633298
0.00644394
0.00642909
0.00633939
0.00620799
0.00605545
0.00589416
0.00573141
0.00557131
0.00541615
0.00526706
0.00512455
0.00498872
0.00485946
0.00473654
0.00461968
0.00450855
0.00440283
0.00430217
0.00420627
0.00411481
0.00402753
0.00394414
0.0038644
0.0037881
0.00371503
0.00364503
0.00357999
0.00351854
0.00345913
0.00340165
0.00334599
0.00329207
0.0032398
0.0031891
0.00313989
0.00309211
0.0030457
0.00300059
0.00295673
0.00291407
0.00287255
0.00283214
0.00279277
0.00275442
0.00271704
0.0026806
0.00264505
0.00261037
0.00257652
0.00254348
0.00251121
0.00247968
0.00244888
0.00241877
0.00238933
0.00236053
0.00233237
0.00230481
0.00227784
0.00225143
0.00222557
0.00220025
0.00217544
0.00215114
0.00212731
0.00210396
0.00208107
0.00205862
0.0020366
0.002015
0.0019938
0.00197301
0.0019526
0.00193256
0.0019129
0.00189358
0.00187462
0.00185599
0.0018377
0.00181972
0.00180206
0.00178471
0.00176766
0.0017509
0.00173443
0.00171824
0.00170234
0.0016867
0.00167134
0.00165626
0.00164141
0.00162673
0.00161229
0.00159808
0.00158409
0.00157032
0.00155676
0.00154341
0.00153027
0.00151732
0.00150456
0.001492
0.00147962
0.00146741
0.00145539
0.00144353
0.00143185
0.00142033
0.00140896
0.00139776
0.00138671
0.0013758
0.00136505
0.00135443
0.00134396
0.00133362
0.00132342
0.00131335
0.00130341
0.00129359
0.0012839
0.00127433
0.00126488
0.00125555
0.00124633
0.00123723
0.00122824
0.00121936
0.00121059
0.00120192
0.00119336
0.0011849
0.00117654
0.00116829
0.00116013
0.00115207
0.0011441
0.00113623
0.00112846
0.00112077
0.00111318
0.00110567
0.00109825
0.00109092
0.00108367
0.00107651
0.00106943
0.00106243
0.00105551
0.00104868
0.00104192
0.00103523
0.00102862
0.00102209
0.00101563
0.00100924
0.00100293
0.000996679
0.000990503
0.000984395
0.000978354
0.000972381
0.000966473
0.00096063
0.00095485
0.000949134
0.00094348
0.000937888
0.000932356
0.000926884
0.000921472
0.000916118
0.000910822
0.000905583
0.0009004
0.000895272
0.0008902
0.000885182
0.000880217
0.000875306
0.000870446
0.000865638
0.00086088
0.000856173
0.000851515
0.000846906
0.000842345
0.000837831
0.000833363
0.000828942
0.000824565
0.000820233
0.000815945
0.0008117
0.000807497
0.000803337
0.000799218
0.00079514
0.000791103
0.000787107
0.000783153
0.00077924
0.000775372
0.000771549
0.000767777
0.000764061
0.000760412
0.000756845
0.000753384
0.000750068
0.00074696
0.000744165
0.000741866
0.000740396
)
;

boundaryField
{
    boundary
    {
        type            empty;
    }
    inlet
    {
        type            fixedValue;
        value           uniform 0;
    }
    outlet
    {
        type            zeroGradient;
    }
}


// ************************************************************************* //
