/*--------------------------------*- C++ -*----------------------------------*\
  =========                 |
  \\      /  F ield         | OpenFOAM: The Open Source CFD Toolbox
   \\    /   O peration     | Website:  https://openfoam.org
    \\  /    A nd           | Version:  7
     \\/     M anipulation  |
\*---------------------------------------------------------------------------*/
FoamFile
{
    version     2.0;
    format      ascii;
    class       volScalarField;
    location    "0.00091";
    object      O2;
}
// * * * * * * * * * * * * * * * * * * * * * * * * * * * * * * * * * * * * * //

dimensions      [0 0 0 0 0 0 0];

internalField   nonuniform List<scalar> 
500
(
0.226269
0.226269
0.226269
0.226269
0.226269
0.226269
0.226269
0.226269
0.226269
0.226269
0.226269
0.226269
0.226269
0.226269
0.226269
0.226269
0.226269
0.226269
0.226269
0.226269
0.226269
0.226269
0.226269
0.226269
0.226269
0.226269
0.226269
0.226269
0.226269
0.226269
0.226269
0.226269
0.226269
0.226269
0.226269
0.226269
0.226269
0.226269
0.226269
0.226269
0.226269
0.226269
0.226269
0.226269
0.226269
0.226269
0.226269
0.226269
0.226269
0.226269
0.226269
0.226269
0.226269
0.226269
0.226269
0.226269
0.226269
0.226269
0.226269
0.226269
0.226269
0.226269
0.226269
0.226269
0.226269
0.226269
0.226269
0.226269
0.226269
0.226269
0.226269
0.226269
0.226269
0.226269
0.226269
0.226269
0.226269
0.226269
0.226269
0.226269
0.226269
0.226269
0.226269
0.226269
0.226269
0.226269
0.226269
0.226269
0.226269
0.226269
0.226269
0.226269
0.226269
0.226269
0.226269
0.226269
0.226269
0.226269
0.226269
0.226269
0.226269
0.226269
0.226269
0.226269
0.226269
0.226269
0.226269
0.226269
0.226269
0.226269
0.226269
0.226269
0.226269
0.226269
0.226269
0.226269
0.226269
0.226269
0.226269
0.226269
0.226269
0.226269
0.226269
0.226269
0.226269
0.226269
0.226269
0.226269
0.226269
0.226269
0.226269
0.226269
0.226269
0.226269
0.226269
0.226269
0.226269
0.226269
0.226269
0.226269
0.226269
0.226269
0.226269
0.226269
0.226269
0.226269
0.226269
0.226269
0.226269
0.226269
0.226269
0.226269
0.226269
0.226269
0.226269
0.226269
0.226269
0.226269
0.226269
0.226269
0.226269
0.226269
0.226269
0.226269
0.226269
0.226269
0.226269
0.226269
0.226269
0.226269
0.226269
0.226269
0.226269
0.226269
0.226269
0.226269
0.226269
0.226269
0.226269
0.226269
0.226269
0.226269
0.226269
0.226269
0.226269
0.226269
0.226269
0.226269
0.226269
0.226269
0.226269
0.226269
0.226269
0.226269
0.226269
0.226269
0.226269
0.226269
0.226269
0.226269
0.226269
0.226269
0.226269
0.226269
0.226269
0.226269
0.226269
0.226269
0.226269
0.226269
0.226269
0.226269
0.226269
0.226269
0.226269
0.226269
0.226269
0.226269
0.226269
0.226269
0.226269
0.226269
0.226269
0.226269
0.226269
0.226269
0.226269
0.226269
0.226269
0.226269
0.226269
0.226269
0.226269
0.226269
0.226269
0.226269
0.226269
0.226269
0.226269
0.226269
0.226269
0.226269
0.226269
0.226269
0.226269
0.226269
0.226269
0.226269
0.226269
0.226269
0.226269
0.226269
0.226269
0.226269
0.226269
0.226269
0.226269
0.226269
0.226269
0.226269
0.226269
0.226269
0.226269
0.226269
0.226269
0.226269
0.226269
0.22627
0.226271
0.226273
0.226276
0.226278
0.226261
0.22615
0.225667
0.224019
0.219593
0.210581
0.197678
0.181388
0.160501
0.135406
0.109722
0.0877676
0.0696563
0.0577061
0.0495823
0.044098
0.0403468
0.0377083
0.0357804
0.0343092
0.0331362
0.0321627
0.0313271
0.0305903
0.0299272
0.0293217
0.0287626
0.0282424
0.0277556
0.0272981
0.0268666
0.0264585
0.0260716
0.0257041
0.0253543
0.0250208
0.0247024
0.024398
0.0241066
0.0238278
0.0235691
0.0233233
0.0230853
0.0228545
0.0226307
0.0224133
0.0222021
0.0219968
0.0217969
0.0216023
0.0214128
0.021228
0.0210478
0.0208719
0.0207002
0.0205325
0.0203686
0.0202083
0.0200516
0.0198983
0.0197482
0.0196012
0.0194572
0.0193162
0.0191779
0.0190423
0.0189093
0.0187788
0.0186508
0.0185251
0.0184017
0.0182804
0.0181613
0.0180443
0.0179292
0.0178161
0.0177049
0.0175955
0.0174879
0.017382
0.0172778
0.0171753
0.0170743
0.016975
0.0168771
0.0167807
0.0166858
0.0165923
0.0165002
0.0164094
0.01632
0.0162318
0.016145
0.0160594
0.015975
0.0158918
0.0158098
0.0157289
0.0156492
0.0155707
0.0154932
0.0154169
0.0153418
0.0152678
0.0151949
0.0151225
0.0150511
0.0149806
0.014911
0.0148423
0.0147745
0.0147075
0.0146413
0.0145759
0.0145113
0.0144475
0.0143844
0.014322
0.0142603
0.0141993
0.014139
0.0140793
0.0140202
0.0139618
0.0139039
0.0138466
0.0137899
0.0137337
0.0136781
0.013623
0.0135683
0.0135142
0.0134606
0.0134075
0.0133548
0.0133026
0.0132508
0.0131995
0.0131487
0.0130982
0.0130482
0.0129986
0.0129495
0.0129007
0.0128524
0.0128045
0.012757
0.0127099
0.0126631
0.0126168
0.0125709
0.0125254
0.0124802
0.0124355
0.0123911
0.0123471
0.0123035
0.0122602
0.0122174
0.0121748
0.0121327
0.0120909
0.0120495
0.0120084
0.0119677
0.0119273
0.0118872
0.0118475
0.0118081
0.0117691
0.0117304
0.011692
0.0116539
0.0116162
0.0115787
0.0115416
0.0115048
0.0114682
0.011432
0.0113961
0.0113605
0.0113252
0.0112901
0.0112553
0.0112209
0.0111867
0.0111528
0.0111191
0.0110858
0.0110527
0.0110198
0.0109872
0.0109549
0.0109228
0.010891
0.0108594
0.0108281
0.010797
0.0107661
0.0107354
0.0107049
0.0106747
0.0106446
0.0106147
0.010585
0.0105555
0.0105261
0.0104969
0.0104678
0.0104389
0.0104101
0.0103813
0.0103527
0.0103241
0.0102956
0.0102672
0.0102387
0.0102103
0.0101819
0.0101534
0.0101249
0.0100964
0.010068
0.0100397
0.010012
0.00998562
0.00996223
0.00994582
)
;

boundaryField
{
    boundary
    {
        type            empty;
    }
    inlet
    {
        type            fixedValue;
        value           uniform 0.226269;
    }
    outlet
    {
        type            zeroGradient;
    }
}


// ************************************************************************* //
