/*--------------------------------*- C++ -*----------------------------------*\
  =========                 |
  \\      /  F ield         | OpenFOAM: The Open Source CFD Toolbox
   \\    /   O peration     | Website:  https://openfoam.org
    \\  /    A nd           | Version:  7
     \\/     M anipulation  |
\*---------------------------------------------------------------------------*/
FoamFile
{
    version     2.0;
    format      ascii;
    class       surfaceScalarField;
    location    "0.00091";
    object      phi;
}
// * * * * * * * * * * * * * * * * * * * * * * * * * * * * * * * * * * * * * //

dimensions      [1 0 -1 0 0 0 0];

internalField   nonuniform List<scalar> 
499
(
6.9307e-06
6.93054e-06
6.93039e-06
6.93024e-06
6.93009e-06
6.92994e-06
6.92979e-06
6.92965e-06
6.92951e-06
6.92937e-06
6.92924e-06
6.92912e-06
6.929e-06
6.9289e-06
6.9288e-06
6.92872e-06
6.92864e-06
6.92857e-06
6.92852e-06
6.92846e-06
6.92842e-06
6.92837e-06
6.92833e-06
6.92828e-06
6.92822e-06
6.92816e-06
6.92809e-06
6.92801e-06
6.92791e-06
6.9278e-06
6.92767e-06
6.92753e-06
6.92737e-06
6.92719e-06
6.92699e-06
6.92677e-06
6.92653e-06
6.92627e-06
6.92598e-06
6.92567e-06
6.92533e-06
6.92496e-06
6.92455e-06
6.92411e-06
6.92364e-06
6.92312e-06
6.92256e-06
6.92195e-06
6.92129e-06
6.92058e-06
6.91981e-06
6.919e-06
6.91813e-06
6.9172e-06
6.91623e-06
6.9152e-06
6.91413e-06
6.91301e-06
6.91186e-06
6.91068e-06
6.90946e-06
6.90823e-06
6.90699e-06
6.90574e-06
6.90449e-06
6.90326e-06
6.90204e-06
6.90084e-06
6.89968e-06
6.89855e-06
6.89746e-06
6.89642e-06
6.89543e-06
6.89449e-06
6.89361e-06
6.89278e-06
6.89201e-06
6.8913e-06
6.89064e-06
6.89003e-06
6.88948e-06
6.88897e-06
6.88851e-06
6.8881e-06
6.88772e-06
6.88738e-06
6.88707e-06
6.88679e-06
6.88654e-06
6.88632e-06
6.88611e-06
6.88593e-06
6.88575e-06
6.8856e-06
6.88545e-06
6.88532e-06
6.88519e-06
6.88508e-06
6.88497e-06
6.88486e-06
6.88476e-06
6.88466e-06
6.88457e-06
6.88448e-06
6.88439e-06
6.8843e-06
6.88422e-06
6.88414e-06
6.88406e-06
6.88398e-06
6.8839e-06
6.88382e-06
6.88374e-06
6.88367e-06
6.88359e-06
6.88352e-06
6.88345e-06
6.88338e-06
6.88331e-06
6.88324e-06
6.88317e-06
6.8831e-06
6.88303e-06
6.88297e-06
6.8829e-06
6.88283e-06
6.88277e-06
6.8827e-06
6.88264e-06
6.88258e-06
6.88252e-06
6.88246e-06
6.8824e-06
6.88234e-06
6.88228e-06
6.88223e-06
6.88217e-06
6.88211e-06
6.88206e-06
6.882e-06
6.88195e-06
6.8819e-06
6.88184e-06
6.88179e-06
6.88174e-06
6.88169e-06
6.88164e-06
6.8816e-06
6.88155e-06
6.8815e-06
6.88146e-06
6.88141e-06
6.88137e-06
6.88133e-06
6.88128e-06
6.88124e-06
6.8812e-06
6.88116e-06
6.88112e-06
6.88108e-06
6.88103e-06
6.88099e-06
6.88095e-06
6.88091e-06
6.88088e-06
6.88084e-06
6.8808e-06
6.88076e-06
6.88072e-06
6.88068e-06
6.88065e-06
6.88061e-06
6.88057e-06
6.88054e-06
6.8805e-06
6.88046e-06
6.88043e-06
6.88039e-06
6.88036e-06
6.88032e-06
6.88029e-06
6.88025e-06
6.88022e-06
6.88019e-06
6.88015e-06
6.88012e-06
6.88009e-06
6.88006e-06
6.88002e-06
6.87999e-06
6.87996e-06
6.87993e-06
6.8799e-06
6.87987e-06
6.87984e-06
6.8798e-06
6.87977e-06
6.87975e-06
6.87972e-06
6.87969e-06
6.87966e-06
6.87963e-06
6.8796e-06
6.87957e-06
6.87955e-06
6.87952e-06
6.87949e-06
6.87947e-06
6.87944e-06
6.87942e-06
6.87939e-06
6.87937e-06
6.87935e-06
6.87932e-06
6.8793e-06
6.87928e-06
6.87926e-06
6.87924e-06
6.87922e-06
6.8792e-06
6.87918e-06
6.87916e-06
6.87914e-06
6.87912e-06
6.87911e-06
6.87909e-06
6.87908e-06
6.87906e-06
6.87905e-06
6.87904e-06
6.87903e-06
6.87902e-06
6.87901e-06
6.879e-06
6.87899e-06
6.87898e-06
6.87898e-06
6.87897e-06
6.87897e-06
6.87897e-06
6.87896e-06
6.87896e-06
6.87896e-06
6.87897e-06
6.87897e-06
6.87897e-06
6.87898e-06
6.87899e-06
6.87899e-06
6.879e-06
6.87901e-06
6.87903e-06
6.87904e-06
6.87905e-06
6.87907e-06
6.87908e-06
6.8791e-06
6.87912e-06
6.87914e-06
6.87916e-06
6.87919e-06
6.87921e-06
6.87923e-06
6.87926e-06
6.87929e-06
6.87931e-06
6.87935e-06
6.87939e-06
6.87946e-06
6.87964e-06
6.88012e-06
6.88151e-06
6.88557e-06
6.89705e-06
6.9262e-06
6.9822e-06
7.04974e-06
7.10307e-06
7.13785e-06
7.16061e-06
7.17626e-06
7.18703e-06
7.19355e-06
7.19811e-06
7.20257e-06
7.20644e-06
7.20945e-06
7.21188e-06
7.2139e-06
7.21561e-06
7.21706e-06
7.21831e-06
7.21937e-06
7.22028e-06
7.22105e-06
7.22169e-06
7.22224e-06
7.22269e-06
7.22306e-06
7.22338e-06
7.22364e-06
7.22388e-06
7.22409e-06
7.22428e-06
7.22447e-06
7.22464e-06
7.22482e-06
7.22499e-06
7.22517e-06
7.22534e-06
7.22551e-06
7.22568e-06
7.22584e-06
7.22599e-06
7.22615e-06
7.2263e-06
7.22644e-06
7.22658e-06
7.22672e-06
7.22685e-06
7.22698e-06
7.22711e-06
7.22723e-06
7.22734e-06
7.22745e-06
7.22756e-06
7.22766e-06
7.22776e-06
7.22786e-06
7.22795e-06
7.22805e-06
7.22813e-06
7.22822e-06
7.2283e-06
7.22838e-06
7.22846e-06
7.22854e-06
7.22862e-06
7.22869e-06
7.22876e-06
7.22883e-06
7.2289e-06
7.22897e-06
7.22904e-06
7.22911e-06
7.22917e-06
7.22924e-06
7.2293e-06
7.22937e-06
7.22943e-06
7.22949e-06
7.22955e-06
7.22962e-06
7.22968e-06
7.22974e-06
7.2298e-06
7.22986e-06
7.22991e-06
7.22997e-06
7.23003e-06
7.23009e-06
7.23014e-06
7.2302e-06
7.23025e-06
7.23031e-06
7.23036e-06
7.23041e-06
7.23046e-06
7.23051e-06
7.23056e-06
7.23061e-06
7.23066e-06
7.2307e-06
7.23074e-06
7.23079e-06
7.23083e-06
7.23087e-06
7.23091e-06
7.23094e-06
7.23098e-06
7.23102e-06
7.23105e-06
7.23108e-06
7.23112e-06
7.23115e-06
7.23118e-06
7.23121e-06
7.23124e-06
7.23127e-06
7.23129e-06
7.23132e-06
7.23135e-06
7.23138e-06
7.23141e-06
7.23144e-06
7.23146e-06
7.23149e-06
7.23152e-06
7.23155e-06
7.23158e-06
7.23161e-06
7.23165e-06
7.23168e-06
7.23171e-06
7.23174e-06
7.23178e-06
7.23181e-06
7.23184e-06
7.23188e-06
7.23191e-06
7.23195e-06
7.23198e-06
7.23202e-06
7.23205e-06
7.23209e-06
7.23212e-06
7.23216e-06
7.23219e-06
7.23223e-06
7.23226e-06
7.23229e-06
7.23233e-06
7.23236e-06
7.23239e-06
7.23242e-06
7.23245e-06
7.23248e-06
7.23251e-06
7.23253e-06
7.23256e-06
7.23259e-06
7.23261e-06
7.23264e-06
7.23266e-06
7.23268e-06
7.2327e-06
7.23272e-06
7.23274e-06
7.23276e-06
7.23278e-06
7.2328e-06
7.23281e-06
7.23283e-06
7.23284e-06
7.23285e-06
7.23287e-06
7.23288e-06
7.23289e-06
7.2329e-06
7.23291e-06
7.23291e-06
7.23292e-06
7.23293e-06
7.23293e-06
7.23293e-06
7.23294e-06
7.23294e-06
7.23294e-06
7.23293e-06
7.23293e-06
7.23293e-06
7.23292e-06
7.23291e-06
7.2329e-06
7.23289e-06
7.23288e-06
7.23287e-06
7.23285e-06
7.23283e-06
7.23281e-06
7.23279e-06
7.23277e-06
7.23274e-06
7.23271e-06
7.23268e-06
7.23265e-06
7.23262e-06
7.23258e-06
7.23254e-06
7.2325e-06
7.23246e-06
7.23241e-06
7.23236e-06
7.23231e-06
7.23226e-06
7.2322e-06
7.23215e-06
7.23209e-06
7.23202e-06
7.23196e-06
7.23189e-06
7.23182e-06
7.23175e-06
7.23167e-06
7.23159e-06
7.23151e-06
7.23143e-06
7.23135e-06
7.23127e-06
)
;

boundaryField
{
    boundary
    {
        type            empty;
        value           nonuniform 0();
    }
    inlet
    {
        type            calculated;
        value           uniform -6.93086e-06;
    }
    outlet
    {
        type            calculated;
        value           uniform 7.23118e-06;
    }
}


// ************************************************************************* //
