/*--------------------------------*- C++ -*----------------------------------*\
  =========                 |
  \\      /  F ield         | OpenFOAM: The Open Source CFD Toolbox
   \\    /   O peration     | Website:  https://openfoam.org
    \\  /    A nd           | Version:  7
     \\/     M anipulation  |
\*---------------------------------------------------------------------------*/
FoamFile
{
    version     2.0;
    format      ascii;
    class       volScalarField;
    location    "0.00091";
    object      Qdot;
}
// * * * * * * * * * * * * * * * * * * * * * * * * * * * * * * * * * * * * * //

dimensions      [1 -1 -3 0 0 0 0];

internalField   nonuniform List<scalar> 
500
(
-2.45266e-27
-1.86343e-27
-1.73675e-27
-1.70979e-27
-1.70431e-27
-1.70344e-27
-1.70351e-27
-1.70374e-27
-1.70392e-27
-1.704e-27
-1.70394e-27
-1.70372e-27
-1.7033e-27
-1.70268e-27
-1.70185e-27
-1.7008e-27
-1.69955e-27
-1.69813e-27
-1.69656e-27
-1.69488e-27
-1.69315e-27
-1.69142e-27
-1.68973e-27
-1.68815e-27
-1.68673e-27
-1.68552e-27
-1.68455e-27
-1.68388e-27
-1.68353e-27
-1.68353e-27
-1.6839e-27
-1.68466e-27
-1.68584e-27
-1.68744e-27
-1.6895e-27
-1.69202e-27
-1.69505e-27
-1.69861e-27
-1.70275e-27
-1.70751e-27
-1.71295e-27
-1.71913e-27
-1.72611e-27
-1.73398e-27
-1.74281e-27
-1.75267e-27
-1.76365e-27
-1.77583e-27
-1.78928e-27
-1.80406e-27
-1.82024e-27
-1.83785e-27
-1.85694e-27
-1.87752e-27
-1.89959e-27
-1.92311e-27
-1.94806e-27
-1.97436e-27
-2.00192e-27
-2.03063e-27
-2.06035e-27
-2.09092e-27
-2.12218e-27
-2.15392e-27
-2.18594e-27
-2.21803e-27
-2.24997e-27
-2.28154e-27
-2.31253e-27
-2.34273e-27
-2.37197e-27
-2.40007e-27
-2.42687e-27
-2.45227e-27
-2.47615e-27
-2.49846e-27
-2.51914e-27
-2.53818e-27
-2.55559e-27
-2.57139e-27
-2.58563e-27
-2.59838e-27
-2.60972e-27
-2.61974e-27
-2.62852e-27
-2.63618e-27
-2.64281e-27
-2.64851e-27
-2.65339e-27
-2.65753e-27
-2.66102e-27
-2.66396e-27
-2.66641e-27
-2.66843e-27
-2.67011e-27
-2.67148e-27
-2.6726e-27
-2.6735e-27
-2.67424e-27
-2.67483e-27
-2.6753e-27
-2.67568e-27
-2.67598e-27
-2.67621e-27
-2.67641e-27
-2.67656e-27
-2.67668e-27
-2.67678e-27
-2.67686e-27
-2.67693e-27
-2.67699e-27
-2.67704e-27
-2.67709e-27
-2.67713e-27
-2.67717e-27
-2.67721e-27
-2.67725e-27
-2.67729e-27
-2.67733e-27
-2.67737e-27
-2.67741e-27
-2.67745e-27
-2.67749e-27
-2.67752e-27
-2.67753e-27
-2.6775e-27
-2.67756e-27
-2.67763e-27
-2.6777e-27
-2.67777e-27
-2.67784e-27
-2.67792e-27
-2.678e-27
-2.6781e-27
-2.6782e-27
-2.67831e-27
-2.67842e-27
-2.67855e-27
-2.67867e-27
-2.6788e-27
-2.67893e-27
-2.67905e-27
-2.67918e-27
-2.67929e-27
-2.67941e-27
-2.67951e-27
-2.67961e-27
-2.6797e-27
-2.67978e-27
-2.67986e-27
-2.67994e-27
-2.68001e-27
-2.68009e-27
-2.68016e-27
-2.68024e-27
-2.68032e-27
-2.68041e-27
-2.6805e-27
-2.6806e-27
-2.68071e-27
-2.68082e-27
-2.68094e-27
-2.68107e-27
-2.6812e-27
-2.68134e-27
-2.68148e-27
-2.68162e-27
-2.68177e-27
-2.68192e-27
-2.68208e-27
-2.68223e-27
-2.68239e-27
-2.68255e-27
-2.68271e-27
-2.68287e-27
-2.68303e-27
-2.6832e-27
-2.68336e-27
-2.68353e-27
-2.6837e-27
-2.68387e-27
-2.68405e-27
-2.68422e-27
-2.68439e-27
-2.68457e-27
-2.68475e-27
-2.68493e-27
-2.6851e-27
-2.68528e-27
-2.68546e-27
-2.68564e-27
-2.68581e-27
-2.68599e-27
-2.68616e-27
-2.68633e-27
-2.6865e-27
-2.68667e-27
-2.68683e-27
-2.68698e-27
-2.68714e-27
-2.68728e-27
-2.68742e-27
-2.68755e-27
-2.68768e-27
-2.68779e-27
-2.68786e-27
-2.68785e-27
-2.6876e-27
-2.68655e-27
-2.68299e-27
-2.67142e-27
-2.63433e-27
-2.51616e-27
-2.14107e-27
-9.54146e-28
2.79118e-27
1.45788e-26
5.15874e-26
1.67515e-25
5.29884e-25
1.66035e-24
5.18058e-24
1.61242e-23
5.00934e-23
1.55387e-22
4.81352e-22
1.48931e-21
4.60293e-21
1.42121e-20
4.38428e-20
1.35143e-19
4.16275e-19
1.28141e-18
3.94226e-18
1.21221e-17
3.72576e-17
1.14469e-16
3.51585e-16
1.07969e-15
3.31566e-15
1.01848e-14
3.13047e-14
9.6336e-14
2.97065e-13
9.19017e-13
2.85736e-12
8.95038e-12
2.8341e-11
9.1117e-11
2.9906e-10
1.00823e-09
3.53117e-09
1.28055e-08
4.82503e-08
1.89033e-07
7.67548e-07
3.21276e-06
1.37793e-05
6.0215e-05
0.000266795
0.00119449
0.00539054
0.0244871
0.111927
0.5151
2.39097
11.2293
55.386
298.32
1898.29
14123.1
112507
1.01217e+06
9.62619e+06
8.99985e+07
7.21627e+08
3.64821e+09
9.33099e+09
1.30737e+10
1.38734e+10
1.39285e+10
1.38577e+10
1.31572e+10
1.15922e+10
9.63144e+09
7.86817e+09
6.46739e+09
5.3896e+09
4.56987e+09
3.94055e+09
3.44885e+09
3.05693e+09
2.7384e+09
2.47481e+09
2.2533e+09
2.06461e+09
1.90202e+09
1.76054e+09
1.63637e+09
1.5266e+09
1.42893e+09
1.34152e+09
1.26291e+09
1.19187e+09
1.12741e+09
1.0687e+09
1.01503e+09
9.65813e+08
9.20546e+08
8.78804e+08
8.40232e+08
8.04579e+08
7.72426e+08
7.42921e+08
7.15132e+08
6.88995e+08
6.64366e+08
6.41107e+08
6.1912e+08
5.98307e+08
5.78579e+08
5.5986e+08
5.42077e+08
5.25167e+08
5.09071e+08
4.93734e+08
4.79107e+08
4.65144e+08
4.51806e+08
4.39051e+08
4.26847e+08
4.15159e+08
4.03959e+08
3.93218e+08
3.82909e+08
3.7301e+08
3.63498e+08
3.54352e+08
3.45553e+08
3.37082e+08
3.28923e+08
3.21059e+08
3.13478e+08
3.06163e+08
2.99103e+08
2.92285e+08
2.85699e+08
2.79332e+08
2.73176e+08
2.6722e+08
2.61456e+08
2.55875e+08
2.50469e+08
2.4523e+08
2.40153e+08
2.35229e+08
2.30453e+08
2.25818e+08
2.21319e+08
2.1695e+08
2.12706e+08
2.08582e+08
2.04575e+08
2.00678e+08
1.96888e+08
1.93202e+08
1.89615e+08
1.86123e+08
1.82724e+08
1.79413e+08
1.76189e+08
1.73048e+08
1.69987e+08
1.67006e+08
1.64104e+08
1.61282e+08
1.58528e+08
1.55827e+08
1.53186e+08
1.50609e+08
1.48093e+08
1.45635e+08
1.43234e+08
1.40889e+08
1.38597e+08
1.36357e+08
1.34166e+08
1.32025e+08
1.2993e+08
1.27881e+08
1.25877e+08
1.23915e+08
1.21995e+08
1.20115e+08
1.18275e+08
1.16473e+08
1.14708e+08
1.12979e+08
1.11286e+08
1.09626e+08
1.07999e+08
1.06404e+08
1.04841e+08
1.03308e+08
1.01805e+08
1.00331e+08
9.88849e+07
9.74662e+07
9.60742e+07
9.47082e+07
9.33676e+07
9.20518e+07
9.07598e+07
8.94916e+07
8.82463e+07
8.70234e+07
8.58224e+07
8.46427e+07
8.34838e+07
8.23453e+07
8.12267e+07
8.01275e+07
7.90472e+07
7.79855e+07
7.69419e+07
7.5916e+07
7.49073e+07
7.39156e+07
7.29404e+07
7.19817e+07
7.10385e+07
7.01107e+07
6.91981e+07
6.83004e+07
6.74171e+07
6.6548e+07
6.56927e+07
6.48511e+07
6.40227e+07
6.32074e+07
6.24047e+07
6.16146e+07
6.08367e+07
6.00707e+07
5.93165e+07
5.85738e+07
5.78425e+07
5.71213e+07
5.6412e+07
5.57131e+07
5.50246e+07
5.43462e+07
5.36778e+07
5.30192e+07
5.23702e+07
5.17307e+07
5.11005e+07
5.04795e+07
4.98668e+07
4.92635e+07
4.86688e+07
4.80825e+07
4.75044e+07
4.69346e+07
4.63727e+07
4.58187e+07
4.52725e+07
4.47339e+07
4.42027e+07
4.36789e+07
4.31623e+07
4.26529e+07
4.21504e+07
4.16548e+07
4.11659e+07
4.06837e+07
4.0208e+07
3.97388e+07
3.92759e+07
3.88192e+07
3.83686e+07
3.79241e+07
3.74855e+07
3.70528e+07
3.66258e+07
3.62045e+07
3.57887e+07
3.53785e+07
3.49738e+07
3.45743e+07
3.41798e+07
3.37905e+07
3.34059e+07
3.30258e+07
3.26495e+07
3.22763e+07
3.19061e+07
3.15402e+07
3.119e+07
3.0921e+07
)
;

boundaryField
{
    boundary
    {
        type            empty;
    }
    inlet
    {
        type            calculated;
        value           uniform 0;
    }
    outlet
    {
        type            calculated;
        value           uniform 0;
    }
}


// ************************************************************************* //
