/*--------------------------------*- C++ -*----------------------------------*\
  =========                 |
  \\      /  F ield         | OpenFOAM: The Open Source CFD Toolbox
   \\    /   O peration     | Website:  https://openfoam.org
    \\  /    A nd           | Version:  7
     \\/     M anipulation  |
\*---------------------------------------------------------------------------*/
FoamFile
{
    version     2.0;
    format      ascii;
    class       volVectorField;
    location    "0.00091";
    object      U;
}
// * * * * * * * * * * * * * * * * * * * * * * * * * * * * * * * * * * * * * //

dimensions      [0 1 -1 0 0 0 0];

internalField   nonuniform List<vector> 
500
(
(2.34892 0 0)
(2.34887 0 0)
(2.34882 0 0)
(2.34878 0 0)
(2.34873 0 0)
(2.34869 0 0)
(2.34864 0 0)
(2.3486 0 0)
(2.34855 0 0)
(2.34851 0 0)
(2.34846 0 0)
(2.34842 0 0)
(2.34837 0 0)
(2.34832 0 0)
(2.34828 0 0)
(2.34823 0 0)
(2.34818 0 0)
(2.34814 0 0)
(2.34809 0 0)
(2.34805 0 0)
(2.34801 0 0)
(2.34796 0 0)
(2.34792 0 0)
(2.34788 0 0)
(2.34784 0 0)
(2.34781 0 0)
(2.34777 0 0)
(2.34773 0 0)
(2.3477 0 0)
(2.34766 0 0)
(2.34763 0 0)
(2.34759 0 0)
(2.34756 0 0)
(2.34753 0 0)
(2.34749 0 0)
(2.34746 0 0)
(2.34743 0 0)
(2.3474 0 0)
(2.34737 0 0)
(2.34734 0 0)
(2.34731 0 0)
(2.34728 0 0)
(2.34726 0 0)
(2.34723 0 0)
(2.34721 0 0)
(2.34719 0 0)
(2.34717 0 0)
(2.34715 0 0)
(2.34713 0 0)
(2.34711 0 0)
(2.34709 0 0)
(2.34707 0 0)
(2.34706 0 0)
(2.34704 0 0)
(2.34702 0 0)
(2.347 0 0)
(2.34698 0 0)
(2.34695 0 0)
(2.34693 0 0)
(2.3469 0 0)
(2.34687 0 0)
(2.34684 0 0)
(2.34681 0 0)
(2.34677 0 0)
(2.34673 0 0)
(2.34669 0 0)
(2.34664 0 0)
(2.3466 0 0)
(2.34655 0 0)
(2.3465 0 0)
(2.34644 0 0)
(2.34639 0 0)
(2.34634 0 0)
(2.34628 0 0)
(2.34623 0 0)
(2.34617 0 0)
(2.34612 0 0)
(2.34606 0 0)
(2.34601 0 0)
(2.34596 0 0)
(2.3459 0 0)
(2.34585 0 0)
(2.3458 0 0)
(2.34576 0 0)
(2.34571 0 0)
(2.34567 0 0)
(2.34562 0 0)
(2.34558 0 0)
(2.34554 0 0)
(2.3455 0 0)
(2.34546 0 0)
(2.34543 0 0)
(2.34539 0 0)
(2.34535 0 0)
(2.34532 0 0)
(2.34529 0 0)
(2.34525 0 0)
(2.34522 0 0)
(2.34519 0 0)
(2.34516 0 0)
(2.34513 0 0)
(2.3451 0 0)
(2.34507 0 0)
(2.34504 0 0)
(2.34501 0 0)
(2.34498 0 0)
(2.34496 0 0)
(2.34493 0 0)
(2.3449 0 0)
(2.34488 0 0)
(2.34485 0 0)
(2.34482 0 0)
(2.3448 0 0)
(2.34477 0 0)
(2.34475 0 0)
(2.34472 0 0)
(2.3447 0 0)
(2.34467 0 0)
(2.34465 0 0)
(2.34463 0 0)
(2.3446 0 0)
(2.34458 0 0)
(2.34456 0 0)
(2.34453 0 0)
(2.34451 0 0)
(2.34449 0 0)
(2.34447 0 0)
(2.34445 0 0)
(2.34442 0 0)
(2.3444 0 0)
(2.34438 0 0)
(2.34436 0 0)
(2.34435 0 0)
(2.34433 0 0)
(2.34431 0 0)
(2.34429 0 0)
(2.34427 0 0)
(2.34425 0 0)
(2.34424 0 0)
(2.34422 0 0)
(2.3442 0 0)
(2.34418 0 0)
(2.34417 0 0)
(2.34415 0 0)
(2.34413 0 0)
(2.34412 0 0)
(2.3441 0 0)
(2.34409 0 0)
(2.34407 0 0)
(2.34406 0 0)
(2.34404 0 0)
(2.34403 0 0)
(2.34401 0 0)
(2.344 0 0)
(2.34399 0 0)
(2.34397 0 0)
(2.34396 0 0)
(2.34394 0 0)
(2.34393 0 0)
(2.34392 0 0)
(2.34391 0 0)
(2.34389 0 0)
(2.34388 0 0)
(2.34387 0 0)
(2.34386 0 0)
(2.34384 0 0)
(2.34383 0 0)
(2.34382 0 0)
(2.34381 0 0)
(2.3438 0 0)
(2.34379 0 0)
(2.34378 0 0)
(2.34377 0 0)
(2.34375 0 0)
(2.34374 0 0)
(2.34373 0 0)
(2.34372 0 0)
(2.34371 0 0)
(2.3437 0 0)
(2.34369 0 0)
(2.34368 0 0)
(2.34367 0 0)
(2.34366 0 0)
(2.34365 0 0)
(2.34364 0 0)
(2.34363 0 0)
(2.34362 0 0)
(2.34362 0 0)
(2.34361 0 0)
(2.3436 0 0)
(2.34359 0 0)
(2.34358 0 0)
(2.34357 0 0)
(2.34356 0 0)
(2.34355 0 0)
(2.34354 0 0)
(2.34353 0 0)
(2.34353 0 0)
(2.34352 0 0)
(2.34351 0 0)
(2.3435 0 0)
(2.34349 0 0)
(2.34348 0 0)
(2.34348 0 0)
(2.34347 0 0)
(2.34346 0 0)
(2.34345 0 0)
(2.34344 0 0)
(2.34344 0 0)
(2.34343 0 0)
(2.34342 0 0)
(2.34341 0 0)
(2.34341 0 0)
(2.3434 0 0)
(2.34339 0 0)
(2.34338 0 0)
(2.34338 0 0)
(2.34337 0 0)
(2.34336 0 0)
(2.34335 0 0)
(2.34335 0 0)
(2.34334 0 0)
(2.34333 0 0)
(2.34332 0 0)
(2.34332 0 0)
(2.34331 0 0)
(2.3433 0 0)
(2.3433 0 0)
(2.34329 0 0)
(2.34328 0 0)
(2.34327 0 0)
(2.34327 0 0)
(2.34326 0 0)
(2.34325 0 0)
(2.34325 0 0)
(2.34324 0 0)
(2.34323 0 0)
(2.34323 0 0)
(2.34322 0 0)
(2.34321 0 0)
(2.34321 0 0)
(2.3432 0 0)
(2.34319 0 0)
(2.34319 0 0)
(2.34318 0 0)
(2.34317 0 0)
(2.34317 0 0)
(2.34316 0 0)
(2.34315 0 0)
(2.34315 0 0)
(2.34314 0 0)
(2.34313 0 0)
(2.34313 0 0)
(2.34312 0 0)
(2.34311 0 0)
(2.34311 0 0)
(2.3431 0 0)
(2.3431 0 0)
(2.34309 0 0)
(2.34308 0 0)
(2.34308 0 0)
(2.34307 0 0)
(2.34306 0 0)
(2.34305 0 0)
(2.34305 0 0)
(2.34304 0 0)
(2.34304 0 0)
(2.34308 0 0)
(2.34325 0 0)
(2.34385 0 0)
(2.34584 0 0)
(2.35192 0 0)
(2.36911 0 0)
(2.41349 0 0)
(2.51993 0 0)
(2.76322 0 0)
(3.27936 0 0)
(4.20654 0 0)
(5.4025 0 0)
(6.63399 0 0)
(7.76313 0 0)
(8.75354 0 0)
(9.59918 0 0)
(10.3039 0 0)
(10.8806 0 0)
(11.3435 0 0)
(11.7138 0 0)
(12.0181 0 0)
(12.276 0 0)
(12.4991 0 0)
(12.6947 0 0)
(12.8681 0 0)
(13.0235 0 0)
(13.1639 0 0)
(13.2917 0 0)
(13.4087 0 0)
(13.5164 0 0)
(13.616 0 0)
(13.7084 0 0)
(13.7946 0 0)
(13.8752 0 0)
(13.9507 0 0)
(14.0218 0 0)
(14.0888 0 0)
(14.1521 0 0)
(14.212 0 0)
(14.2689 0 0)
(14.323 0 0)
(14.3744 0 0)
(14.4235 0 0)
(14.4703 0 0)
(14.5149 0 0)
(14.5565 0 0)
(14.5954 0 0)
(14.6332 0 0)
(14.6697 0 0)
(14.7051 0 0)
(14.7392 0 0)
(14.7724 0 0)
(14.8045 0 0)
(14.8356 0 0)
(14.8659 0 0)
(14.8952 0 0)
(14.9238 0 0)
(14.9515 0 0)
(14.9785 0 0)
(15.0048 0 0)
(15.0304 0 0)
(15.0553 0 0)
(15.0796 0 0)
(15.1033 0 0)
(15.1264 0 0)
(15.149 0 0)
(15.1711 0 0)
(15.1926 0 0)
(15.2136 0 0)
(15.2342 0 0)
(15.2543 0 0)
(15.274 0 0)
(15.2933 0 0)
(15.3121 0 0)
(15.3306 0 0)
(15.3487 0 0)
(15.3664 0 0)
(15.3838 0 0)
(15.4008 0 0)
(15.4175 0 0)
(15.4339 0 0)
(15.45 0 0)
(15.4657 0 0)
(15.4812 0 0)
(15.4964 0 0)
(15.5114 0 0)
(15.526 0 0)
(15.5404 0 0)
(15.5546 0 0)
(15.5685 0 0)
(15.5822 0 0)
(15.5956 0 0)
(15.6089 0 0)
(15.6219 0 0)
(15.6347 0 0)
(15.6473 0 0)
(15.6597 0 0)
(15.6719 0 0)
(15.684 0 0)
(15.6958 0 0)
(15.7075 0 0)
(15.719 0 0)
(15.7303 0 0)
(15.7414 0 0)
(15.7524 0 0)
(15.7633 0 0)
(15.7739 0 0)
(15.7844 0 0)
(15.7947 0 0)
(15.8049 0 0)
(15.815 0 0)
(15.8249 0 0)
(15.8348 0 0)
(15.8445 0 0)
(15.854 0 0)
(15.8635 0 0)
(15.8728 0 0)
(15.882 0 0)
(15.8911 0 0)
(15.9 0 0)
(15.9089 0 0)
(15.9176 0 0)
(15.9263 0 0)
(15.9348 0 0)
(15.9432 0 0)
(15.9515 0 0)
(15.9597 0 0)
(15.9679 0 0)
(15.9759 0 0)
(15.9838 0 0)
(15.9917 0 0)
(15.9994 0 0)
(16.0071 0 0)
(16.0146 0 0)
(16.0221 0 0)
(16.0295 0 0)
(16.0368 0 0)
(16.0441 0 0)
(16.0512 0 0)
(16.0583 0 0)
(16.0653 0 0)
(16.0722 0 0)
(16.079 0 0)
(16.0858 0 0)
(16.0925 0 0)
(16.0992 0 0)
(16.1057 0 0)
(16.1122 0 0)
(16.1186 0 0)
(16.125 0 0)
(16.1313 0 0)
(16.1375 0 0)
(16.1437 0 0)
(16.1498 0 0)
(16.1558 0 0)
(16.1618 0 0)
(16.1677 0 0)
(16.1736 0 0)
(16.1794 0 0)
(16.1851 0 0)
(16.1908 0 0)
(16.1965 0 0)
(16.2021 0 0)
(16.2076 0 0)
(16.2131 0 0)
(16.2185 0 0)
(16.2239 0 0)
(16.2292 0 0)
(16.2344 0 0)
(16.2397 0 0)
(16.2448 0 0)
(16.2499 0 0)
(16.255 0 0)
(16.2601 0 0)
(16.265 0 0)
(16.27 0 0)
(16.2749 0 0)
(16.2797 0 0)
(16.2845 0 0)
(16.2893 0 0)
(16.294 0 0)
(16.2987 0 0)
(16.3033 0 0)
(16.3079 0 0)
(16.3124 0 0)
(16.3169 0 0)
(16.3214 0 0)
(16.3258 0 0)
(16.3302 0 0)
(16.3346 0 0)
(16.3389 0 0)
(16.3432 0 0)
(16.3474 0 0)
(16.3516 0 0)
(16.3558 0 0)
(16.36 0 0)
(16.3641 0 0)
(16.3681 0 0)
(16.3722 0 0)
(16.3762 0 0)
(16.3801 0 0)
(16.384 0 0)
(16.3879 0 0)
(16.3918 0 0)
(16.3957 0 0)
(16.3995 0 0)
(16.4032 0 0)
(16.407 0 0)
(16.4107 0 0)
(16.4144 0 0)
(16.418 0 0)
(16.4216 0 0)
(16.4252 0 0)
(16.4288 0 0)
(16.4323 0 0)
(16.4358 0 0)
(16.4393 0 0)
(16.4428 0 0)
(16.4462 0 0)
(16.4496 0 0)
(16.453 0 0)
(16.4564 0 0)
(16.4597 0 0)
(16.4631 0 0)
(16.4664 0 0)
(16.4697 0 0)
(16.473 0 0)
(16.4763 0 0)
(16.4796 0 0)
(16.4828 0 0)
(16.4858 0 0)
(16.4885 0 0)
(16.4903 0 0)
)
;

boundaryField
{
    boundary
    {
        type            empty;
    }
    inlet
    {
        type            fixedValue;
        value           uniform (2.34893 0 0);
    }
    outlet
    {
        type            zeroGradient;
    }
}


// ************************************************************************* //
