/*--------------------------------*- C++ -*----------------------------------*\
  =========                 |
  \\      /  F ield         | OpenFOAM: The Open Source CFD Toolbox
   \\    /   O peration     | Website:  https://openfoam.org
    \\  /    A nd           | Version:  7
     \\/     M anipulation  |
\*---------------------------------------------------------------------------*/
FoamFile
{
    version     2.0;
    format      ascii;
    class       volScalarField;
    location    "0.00045";
    object      H;
}
// * * * * * * * * * * * * * * * * * * * * * * * * * * * * * * * * * * * * * //

dimensions      [0 0 0 0 0 0 0];

internalField   nonuniform List<scalar> 
500
(
1.48698e-41
2.01616e-41
2.13256e-41
2.16007e-41
2.1685e-41
2.1729e-41
2.17656e-41
2.18027e-41
2.18429e-41
2.18881e-41
2.194e-41
2.20007e-41
2.20724e-41
2.21576e-41
2.22593e-41
2.23806e-41
2.25247e-41
2.26953e-41
2.28957e-41
2.31293e-41
2.3399e-41
2.37073e-41
2.40561e-41
2.44463e-41
2.48777e-41
2.53491e-41
2.58579e-41
2.64003e-41
2.6971e-41
2.75637e-41
2.8171e-41
2.87848e-41
2.93966e-41
2.99979e-41
3.05804e-41
3.11366e-41
3.16601e-41
3.21457e-41
3.25896e-41
3.29897e-41
3.3345e-41
3.36563e-41
3.39251e-41
3.4154e-41
3.43465e-41
3.45061e-41
3.46367e-41
3.47423e-41
3.48266e-41
3.4893e-41
3.49448e-41
3.49846e-41
3.5015e-41
3.50378e-41
3.50548e-41
3.50673e-41
3.50764e-41
3.5083e-41
3.50877e-41
3.50911e-41
3.50935e-41
3.50951e-41
3.50963e-41
3.50972e-41
3.50978e-41
3.50983e-41
3.50987e-41
3.5099e-41
3.50993e-41
3.50995e-41
3.50998e-41
3.51e-41
3.51003e-41
3.51005e-41
3.51008e-41
3.51011e-41
3.51014e-41
3.51017e-41
3.5102e-41
3.51023e-41
3.51027e-41
3.51031e-41
3.51035e-41
3.51039e-41
3.51044e-41
3.51048e-41
3.51053e-41
3.51058e-41
3.51063e-41
3.51069e-41
3.51075e-41
3.51081e-41
3.51087e-41
3.51094e-41
3.51101e-41
3.51108e-41
3.51116e-41
3.51123e-41
3.51132e-41
3.5114e-41
3.51149e-41
3.51158e-41
3.51167e-41
3.51177e-41
3.51187e-41
3.51198e-41
3.51208e-41
3.5122e-41
3.51231e-41
3.51243e-41
3.51256e-41
3.51268e-41
3.51281e-41
3.51295e-41
3.51309e-41
3.51323e-41
3.51338e-41
3.51353e-41
3.51369e-41
3.51385e-41
3.51401e-41
3.51418e-41
3.51436e-41
3.51453e-41
3.51467e-41
3.51482e-41
3.51508e-41
3.51533e-41
3.51554e-41
3.51573e-41
3.51592e-41
3.51611e-41
3.5163e-41
3.5165e-41
3.51671e-41
3.51692e-41
3.51714e-41
3.51735e-41
3.51757e-41
3.51779e-41
3.51802e-41
3.51824e-41
3.51846e-41
3.51869e-41
3.51892e-41
3.51915e-41
3.51938e-41
3.51962e-41
3.51985e-41
3.5201e-41
3.52034e-41
3.5206e-41
3.52085e-41
3.52112e-41
3.52138e-41
3.52165e-41
3.52193e-41
3.5222e-41
3.52248e-41
3.52276e-41
3.52303e-41
3.5233e-41
3.52357e-41
3.52383e-41
3.52409e-41
3.52434e-41
3.52458e-41
3.52482e-41
3.52504e-41
3.52526e-41
3.52546e-41
3.52566e-41
3.52584e-41
3.52601e-41
3.52616e-41
3.52631e-41
3.52644e-41
3.52655e-41
3.52665e-41
3.52674e-41
3.5268e-41
3.52685e-41
3.52688e-41
3.52689e-41
3.52688e-41
3.52685e-41
3.52679e-41
3.52671e-41
3.5266e-41
3.52647e-41
3.52631e-41
3.52613e-41
3.52591e-41
3.52566e-41
3.52538e-41
3.52507e-41
3.52472e-41
3.52434e-41
3.52392e-41
3.52346e-41
3.52296e-41
3.52242e-41
3.52184e-41
3.52121e-41
3.52054e-41
3.51983e-41
3.51907e-41
3.51826e-41
3.5174e-41
3.51649e-41
3.51553e-41
3.51452e-41
3.51346e-41
3.51235e-41
3.51121e-41
3.51017e-41
3.50968e-41
3.51173e-41
3.52457e-41
3.5823e-41
3.82435e-41
4.81565e-41
8.82247e-41
2.48482e-40
8.83124e-40
3.37194e-39
1.30373e-38
5.02083e-38
1.91774e-37
7.25702e-37
2.72001e-36
1.00975e-35
3.71284e-35
1.35233e-34
4.87966e-34
1.74457e-33
6.18091e-33
2.17056e-32
7.55709e-32
2.60934e-31
8.93835e-31
3.03901e-30
1.02615e-29
3.44387e-29
1.15006e-28
3.82763e-28
1.27246e-27
4.23825e-27
1.42005e-26
4.81053e-26
1.65777e-25
5.83438e-25
2.10679e-24
7.83382e-24
3.01103e-23
1.19688e-22
4.90928e-22
2.06964e-21
8.92564e-21
3.92e-20
1.74666e-19
7.87506e-19
3.5877e-18
1.65146e-17
7.69157e-17
3.63553e-16
1.75226e-15
8.66791e-15
4.43392e-14
2.36236e-13
1.38153e-12
9.7305e-12
8.61916e-11
8.54138e-10
7.9956e-09
7.43479e-08
6.62415e-07
5.21332e-06
3.17234e-05
0.000126531
0.000319803
0.00060069
0.000945613
0.00130544
0.00160913
0.00180957
0.0019087
0.0019242
0.00189043
0.00183
0.00175753
0.00168165
0.00160706
0.0015361
0.00146976
0.0014083
0.00135157
0.00129928
0.00125105
0.00120648
0.00116521
0.0011269
0.00109125
0.00105798
0.00102687
0.000997702
0.000970299
0.000944499
0.000920161
0.000897162
0.000875391
0.000854749
0.000835724
0.000818018
0.000801042
0.000784752
0.000769105
0.000754062
0.000739588
0.00072565
0.000712218
0.000699262
0.000686759
0.000674682
0.00066301
0.000651723
0.0006408
0.000630224
0.000619977
0.000610045
0.000600413
0.000591066
0.000581993
0.00057318
0.000564616
0.000556291
0.000548195
0.000540318
0.000532651
0.000525186
0.000517914
0.000510829
0.000503922
0.000497187
0.000490619
0.00048421
0.000477954
0.000471848
0.000465884
0.000460058
0.000454367
0.000448804
0.000443365
0.000438048
0.000432847
0.00042776
0.000422782
0.000417911
0.000413143
0.000408475
0.000403905
0.000399429
0.000395046
0.000390752
0.000386546
0.000382424
0.000378387
0.00037443
0.000370554
0.000366755
0.000363033
0.000359386
0.000355812
0.00035231
0.000348877
0.000345512
0.000342194
0.000338931
0.000335726
0.000332577
0.000329486
0.00032645
0.00032347
0.000320544
0.00031767
0.000314849
0.000312079
0.000309358
0.000306687
0.000304063
0.000301486
0.000298955
0.00029647
0.000294028
0.000291629
0.000289273
0.000286958
0.000284683
0.000282448
0.000280251
0.000278092
0.00027597
0.000273883
0.000271831
0.000269813
0.000267828
0.000265875
0.000263953
0.00026206
0.000260196
0.00025836
0.000256549
0.000254765
0.000253004
0.000251265
0.000249549
0.000247852
0.000246175
0.000244515
0.000242871
0.000241242
0.000239626
0.000238022
0.000236428
0.000234843
0.000233265
0.000231694
0.000230126
0.000228562
0.000226999
0.000225436
0.000223872
0.000222305
0.000220733
0.000219156
0.000217573
0.000215981
0.00021438
0.000212769
0.000211147
0.000209512
0.000207865
0.000206203
0.000204528
0.000202837
0.000201131
0.000199409
0.00019767
0.000195916
0.000194144
0.000192357
0.000190552
0.000188731
0.000186894
0.000185041
0.000183173
0.000181289
0.00017939
0.000177478
0.000175551
0.000173612
0.000171661
0.000169697
0.000167724
0.00016574
0.000163748
0.000161747
0.00015974
0.000157726
0.000155708
0.000153686
0.000151662
0.000149637
0.000147612
0.00014559
0.00014357
0.000141556
0.000139549
0.000137549
0.000135561
0.000133584
0.000131622
0.000129677
0.00012775
0.000125845
0.000123964
0.000122109
0.000120286
0.000118497
0.000116747
0.000115043
0.000113391
0.000111802
0.000110288
0.000108866
0.000107558
0.000106396
0.000105421
0.00010469
0.000104277
)
;

boundaryField
{
    boundary
    {
        type            empty;
    }
    inlet
    {
        type            fixedValue;
        value           uniform 0;
    }
    outlet
    {
        type            zeroGradient;
    }
}


// ************************************************************************* //
