/*--------------------------------*- C++ -*----------------------------------*\
  =========                 |
  \\      /  F ield         | OpenFOAM: The Open Source CFD Toolbox
   \\    /   O peration     | Website:  https://openfoam.org
    \\  /    A nd           | Version:  7
     \\/     M anipulation  |
\*---------------------------------------------------------------------------*/
FoamFile
{
    version     2.0;
    format      ascii;
    class       volScalarField;
    location    "0.00045";
    object      H2;
}
// * * * * * * * * * * * * * * * * * * * * * * * * * * * * * * * * * * * * * //

dimensions      [0 0 0 0 0 0 0];

internalField   nonuniform List<scalar> 
500
(
0.0285116
0.0285116
0.0285116
0.0285116
0.0285116
0.0285116
0.0285116
0.0285116
0.0285116
0.0285116
0.0285116
0.0285116
0.0285116
0.0285116
0.0285116
0.0285116
0.0285116
0.0285116
0.0285116
0.0285116
0.0285116
0.0285116
0.0285116
0.0285116
0.0285116
0.0285116
0.0285116
0.0285116
0.0285116
0.0285116
0.0285116
0.0285116
0.0285116
0.0285116
0.0285116
0.0285116
0.0285116
0.0285116
0.0285116
0.0285116
0.0285116
0.0285116
0.0285116
0.0285116
0.0285116
0.0285116
0.0285116
0.0285116
0.0285116
0.0285116
0.0285116
0.0285116
0.0285116
0.0285116
0.0285116
0.0285116
0.0285116
0.0285116
0.0285116
0.0285116
0.0285116
0.0285116
0.0285116
0.0285116
0.0285116
0.0285116
0.0285116
0.0285116
0.0285116
0.0285116
0.0285116
0.0285116
0.0285116
0.0285116
0.0285116
0.0285116
0.0285116
0.0285116
0.0285116
0.0285116
0.0285116
0.0285116
0.0285116
0.0285116
0.0285116
0.0285116
0.0285116
0.0285116
0.0285116
0.0285116
0.0285116
0.0285116
0.0285116
0.0285116
0.0285116
0.0285116
0.0285116
0.0285116
0.0285116
0.0285116
0.0285116
0.0285116
0.0285116
0.0285116
0.0285116
0.0285116
0.0285116
0.0285116
0.0285116
0.0285116
0.0285116
0.0285116
0.0285116
0.0285116
0.0285116
0.0285116
0.0285116
0.0285116
0.0285116
0.0285116
0.0285116
0.0285116
0.0285116
0.0285116
0.0285116
0.0285116
0.0285116
0.0285116
0.0285116
0.0285116
0.0285116
0.0285116
0.0285116
0.0285116
0.0285116
0.0285116
0.0285116
0.0285116
0.0285116
0.0285116
0.0285116
0.0285116
0.0285116
0.0285116
0.0285116
0.0285116
0.0285116
0.0285116
0.0285116
0.0285116
0.0285116
0.0285116
0.0285116
0.0285116
0.0285116
0.0285116
0.0285116
0.0285116
0.0285116
0.0285116
0.0285116
0.0285116
0.0285116
0.0285116
0.0285116
0.0285116
0.0285116
0.0285116
0.0285116
0.0285116
0.0285116
0.0285116
0.0285116
0.0285116
0.0285116
0.0285116
0.0285116
0.0285116
0.0285116
0.0285116
0.0285116
0.0285116
0.0285116
0.0285116
0.0285116
0.0285116
0.0285116
0.0285116
0.0285116
0.0285116
0.0285116
0.0285116
0.0285116
0.0285116
0.0285116
0.0285116
0.0285116
0.0285116
0.0285116
0.0285116
0.0285116
0.0285116
0.0285116
0.0285116
0.0285116
0.0285116
0.0285116
0.0285116
0.0285116
0.0285116
0.0285116
0.0285116
0.0285116
0.0285116
0.0285116
0.0285116
0.0285116
0.0285116
0.0285116
0.0285116
0.0285116
0.0285116
0.0285116
0.0285116
0.0285116
0.0285116
0.0285116
0.0285116
0.0285116
0.0285116
0.0285116
0.0285116
0.0285116
0.0285116
0.0285116
0.0285116
0.0285116
0.0285116
0.0285116
0.0285116
0.0285116
0.0285116
0.0285116
0.0285116
0.0285116
0.0285116
0.0285116
0.0285116
0.0285116
0.0285116
0.0285116
0.0285116
0.0285116
0.0285116
0.0285116
0.0285116
0.0285116
0.0285116
0.0285116
0.0285116
0.0285116
0.0285116
0.0285116
0.0285115
0.0285114
0.0285113
0.028511
0.0285104
0.028509
0.0285062
0.0285004
0.0284882
0.0284627
0.0284097
0.0282995
0.0280737
0.0276244
0.0267886
0.0253978
0.0233964
0.0209332
0.0181404
0.0151107
0.0120911
0.00945528
0.00745095
0.0059707
0.00508326
0.00453016
0.00418972
0.00397934
0.00384664
0.00375962
0.00369917
0.00365403
0.00361765
0.00358625
0.00355768
0.00353072
0.00350471
0.00347931
0.00345432
0.00342968
0.00340535
0.00338134
0.00335765
0.0033343
0.0033113
0.00328866
0.00326641
0.00324453
0.00322304
0.00320259
0.00318296
0.00316363
0.00314458
0.00312582
0.00310733
0.00308912
0.00307118
0.00305351
0.00303609
0.00301893
0.00300202
0.00298536
0.00296893
0.00295274
0.00293677
0.00292103
0.0029055
0.00289019
0.00287508
0.00286017
0.00284546
0.00283094
0.0028166
0.00280245
0.00278848
0.00277469
0.00276107
0.00274761
0.00273433
0.00272121
0.00270824
0.00269544
0.00268279
0.0026703
0.00265796
0.00264576
0.00263372
0.00262182
0.00261006
0.00259844
0.00258696
0.00257563
0.00256442
0.00255336
0.00254242
0.00253162
0.00252096
0.00251042
0.00250002
0.00248974
0.0024796
0.00246959
0.00245971
0.00244996
0.00244035
0.00243088
0.00242155
0.00241236
0.00240333
0.00239445
0.00238575
0.00237724
0.00236895
0.00236063
0.00235223
0.00234396
0.00233583
0.00232784
0.00231999
0.00231227
0.00230469
0.00229725
0.00228995
0.00228279
0.00227578
0.00226891
0.0022622
0.00225564
0.00224924
0.002243
0.00223692
0.00223101
0.00222527
0.0022197
0.00221432
0.00220911
0.00220409
0.00219927
0.00219463
0.0021902
0.00218596
0.00218194
0.00217812
0.00217451
0.00217113
0.00216796
0.00216501
0.00216229
0.0021598
0.00215754
0.00215551
0.0021537
0.00215213
0.00215079
0.00214967
0.00214878
0.00214812
0.00214767
0.00214743
0.0021474
0.00214756
0.00214792
0.00214845
0.00214915
0.00215001
0.002151
0.00215212
0.00215335
0.00215467
0.00215606
0.0021575
0.00215897
0.00216044
0.00216189
0.00216329
0.00216462
0.00216585
0.00216694
0.00216788
0.00216864
0.00216917
0.00216945
0.00216946
0.00216916
0.00216852
0.00216751
0.0021661
0.00216427
0.00216199
0.00215923
0.00215598
0.0021522
0.00214787
0.00214299
0.00213753
0.00213148
0.00212483
0.00211756
0.00210968
0.00210118
0.00209205
0.0020823
0.00207193
0.00206095
0.00204936
0.00203719
0.00202445
0.00201114
0.0019973
0.00198294
0.00196809
0.00195278
0.00193703
0.00192087
0.00190434
0.00188746
0.00187029
0.00185285
0.00183517
0.00181731
0.0017993
0.0017812
0.00176303
0.00174486
0.00172673
0.00170872
0.00169087
0.00167329
0.00165605
0.00163928
0.00162313
0.0016078
0.00159354
0.00158071
0.0015698
0.00156147
0.00155665
)
;

boundaryField
{
    boundary
    {
        type            empty;
    }
    inlet
    {
        type            fixedValue;
        value           uniform 0.0285116;
    }
    outlet
    {
        type            zeroGradient;
    }
}


// ************************************************************************* //
