/*--------------------------------*- C++ -*----------------------------------*\
  =========                 |
  \\      /  F ield         | OpenFOAM: The Open Source CFD Toolbox
   \\    /   O peration     | Website:  https://openfoam.org
    \\  /    A nd           | Version:  7
     \\/     M anipulation  |
\*---------------------------------------------------------------------------*/
FoamFile
{
    version     2.0;
    format      ascii;
    class       volScalarField;
    location    "0.00045";
    object      H2O;
}
// * * * * * * * * * * * * * * * * * * * * * * * * * * * * * * * * * * * * * //

dimensions      [0 0 0 0 0 0 0];

internalField   nonuniform List<scalar> 
500
(
7.90472e-48
2.28584e-47
4.11562e-47
6.17323e-47
8.38707e-47
1.07096e-46
1.31098e-46
1.55681e-46
1.8073e-46
2.06188e-46
2.32044e-46
2.58322e-46
2.85074e-46
3.12382e-46
3.40348e-46
3.69094e-46
3.98753e-46
4.2947e-46
4.61385e-46
4.94629e-46
5.29307e-46
5.65494e-46
6.03214e-46
6.42434e-46
6.83053e-46
7.24899e-46
7.67723e-46
8.11208e-46
8.54974e-46
8.98595e-46
9.41613e-46
9.83561e-46
1.02398e-45
1.06246e-45
1.09862e-45
1.13216e-45
1.16288e-45
1.19062e-45
1.21534e-45
1.23707e-45
1.25592e-45
1.27204e-45
1.28565e-45
1.29699e-45
1.3063e-45
1.31385e-45
1.31989e-45
1.32466e-45
1.32839e-45
1.33125e-45
1.33343e-45
1.33507e-45
1.33629e-45
1.33718e-45
1.33783e-45
1.33829e-45
1.33862e-45
1.33885e-45
1.33901e-45
1.33912e-45
1.3392e-45
1.33925e-45
1.33928e-45
1.33931e-45
1.33933e-45
1.33934e-45
1.33935e-45
1.33936e-45
1.33936e-45
1.33937e-45
1.33938e-45
1.33938e-45
1.33939e-45
1.3394e-45
1.33941e-45
1.33941e-45
1.33942e-45
1.33943e-45
1.33944e-45
1.33946e-45
1.33947e-45
1.33948e-45
1.3395e-45
1.33951e-45
1.33953e-45
1.33954e-45
1.33956e-45
1.33958e-45
1.3396e-45
1.33962e-45
1.33964e-45
1.33967e-45
1.33969e-45
1.33972e-45
1.33974e-45
1.33977e-45
1.3398e-45
1.33983e-45
1.33986e-45
1.3399e-45
1.33993e-45
1.33997e-45
1.34001e-45
1.34005e-45
1.34009e-45
1.34013e-45
1.34018e-45
1.34023e-45
1.34027e-45
1.34032e-45
1.34038e-45
1.34043e-45
1.34049e-45
1.34054e-45
1.3406e-45
1.34066e-45
1.34073e-45
1.34079e-45
1.34086e-45
1.34092e-45
1.34099e-45
1.34103e-45
1.34099e-45
1.3406e-45
1.33891e-45
1.33575e-45
1.33611e-45
1.33659e-45
1.33721e-45
1.33795e-45
1.33876e-45
1.3396e-45
1.34041e-45
1.34113e-45
1.34173e-45
1.3422e-45
1.34253e-45
1.34275e-45
1.34287e-45
1.34291e-45
1.34289e-45
1.34282e-45
1.34272e-45
1.3426e-45
1.34247e-45
1.34233e-45
1.34221e-45
1.3421e-45
1.34202e-45
1.34197e-45
1.34196e-45
1.342e-45
1.34207e-45
1.3422e-45
1.34236e-45
1.34256e-45
1.34278e-45
1.34303e-45
1.3433e-45
1.34357e-45
1.34385e-45
1.34412e-45
1.34437e-45
1.34462e-45
1.34485e-45
1.34506e-45
1.34526e-45
1.34543e-45
1.34559e-45
1.34574e-45
1.34586e-45
1.34598e-45
1.34608e-45
1.34617e-45
1.34625e-45
1.34632e-45
1.34638e-45
1.34643e-45
1.34647e-45
1.3465e-45
1.34653e-45
1.34654e-45
1.34655e-45
1.34654e-45
1.34653e-45
1.3465e-45
1.34647e-45
1.34642e-45
1.34636e-45
1.34629e-45
1.3462e-45
1.3461e-45
1.34599e-45
1.34586e-45
1.34572e-45
1.34556e-45
1.34539e-45
1.34519e-45
1.34498e-45
1.34476e-45
1.34451e-45
1.34424e-45
1.34396e-45
1.34366e-45
1.34339e-45
1.34332e-45
1.34427e-45
1.35018e-45
1.37961e-45
1.51914e-45
2.17009e-45
5.17855e-45
1.89773e-44
8.18426e-44
3.66548e-43
1.64948e-42
7.40854e-42
3.32008e-41
1.48654e-40
6.66278e-40
2.99615e-39
1.35499e-38
6.17683e-38
2.84381e-37
1.32407e-36
6.23741e-36
2.9715e-35
1.42968e-34
6.9329e-34
3.38018e-33
1.65269e-32
8.0832e-32
3.94569e-31
1.91847e-30
9.27604e-30
4.45417e-29
2.12184e-28
1.00197e-27
4.68758e-27
2.17188e-26
9.96401e-26
4.52619e-25
2.03598e-24
9.07086e-24
4.00379e-23
1.75135e-22
7.59431e-22
3.26546e-21
1.39274e-20
5.89379e-20
2.47549e-19
1.04298e-18
4.33785e-18
1.78648e-17
7.31026e-17
2.97566e-16
1.20572e-15
4.86584e-15
1.95679e-14
7.84532e-14
3.13725e-13
1.2518e-12
4.98565e-12
1.98268e-11
7.87492e-11
3.12472e-10
1.23891e-09
4.90917e-09
1.9444e-08
7.69884e-08
3.04754e-07
1.20597e-06
4.7691e-06
1.88269e-05
7.3956e-05
0.000286495
0.0010683
0.00362302
0.0101678
0.0221118
0.03821
0.0577633
0.0811857
0.107092
0.131627
0.15122
0.168412
0.178653
0.185535
0.19019
0.193419
0.195751
0.197518
0.198924
0.200095
0.201109
0.202012
0.202835
0.203595
0.204307
0.204978
0.205614
0.20622
0.206798
0.207351
0.207882
0.208392
0.208883
0.209356
0.209812
0.210252
0.210677
0.211074
0.211454
0.211823
0.212184
0.212536
0.21288
0.213216
0.213544
0.213865
0.214179
0.214486
0.214787
0.215082
0.215371
0.215654
0.215932
0.216204
0.216471
0.216733
0.21699
0.217242
0.217489
0.217732
0.217971
0.218205
0.218436
0.218662
0.218885
0.219103
0.219318
0.21953
0.219738
0.219943
0.220145
0.220343
0.220539
0.220731
0.220921
0.221108
0.221292
0.221474
0.221653
0.221829
0.222004
0.222176
0.222345
0.222513
0.222678
0.222841
0.223003
0.223162
0.223319
0.223475
0.223629
0.223781
0.223932
0.224081
0.224228
0.224375
0.22452
0.224664
0.224807
0.22495
0.225092
0.225233
0.225372
0.225509
0.225646
0.225781
0.225916
0.22605
0.226184
0.226317
0.22645
0.226582
0.226714
0.226846
0.226978
0.22711
0.227242
0.227374
0.227506
0.227639
0.227772
0.227906
0.228041
0.228176
0.228312
0.228449
0.228587
0.228726
0.228867
0.229009
0.229152
0.229297
0.229443
0.229591
0.229741
0.229892
0.230045
0.2302
0.230357
0.230516
0.230677
0.230839
0.231004
0.23117
0.231337
0.231507
0.231677
0.231849
0.232023
0.232197
0.232372
0.232548
0.232724
0.232901
0.233078
0.233254
0.23343
0.233606
0.233781
0.233955
0.234127
0.234298
0.234468
0.234636
0.234801
0.234965
0.235126
0.235284
0.23544
0.235594
0.235744
0.235892
0.236036
0.236178
0.236316
0.236452
0.236584
0.236714
0.23684
0.236964
0.237084
0.237202
0.237317
0.237429
0.237538
0.237645
0.237748
0.23785
0.237949
0.238045
0.238139
0.23823
0.238319
0.238406
0.238491
0.238573
0.238652
0.23873
0.238805
0.238878
0.238948
0.239016
0.239082
0.239146
0.239207
0.239265
0.239321
0.239375
0.239427
0.239475
0.239522
0.239566
0.239607
0.239646
0.239683
0.239717
0.239749
0.239778
0.239805
0.239828
0.239849
0.239867
0.239882
0.239892
0.239899
)
;

boundaryField
{
    boundary
    {
        type            empty;
    }
    inlet
    {
        type            fixedValue;
        value           uniform 0;
    }
    outlet
    {
        type            zeroGradient;
    }
}


// ************************************************************************* //
