/*--------------------------------*- C++ -*----------------------------------*\
  =========                 |
  \\      /  F ield         | OpenFOAM: The Open Source CFD Toolbox
   \\    /   O peration     | Website:  https://openfoam.org
    \\  /    A nd           | Version:  7
     \\/     M anipulation  |
\*---------------------------------------------------------------------------*/
FoamFile
{
    version     2.0;
    format      ascii;
    class       volScalarField;
    location    "0.00045";
    object      H2O2;
}
// * * * * * * * * * * * * * * * * * * * * * * * * * * * * * * * * * * * * * //

dimensions      [0 0 0 0 0 0 0];

internalField   nonuniform List<scalar> 
500
(
1.99989e-52
6.43041e-52
1.27949e-51
2.11014e-51
3.13591e-51
4.35809e-51
5.7784e-51
7.39929e-51
9.22407e-51
1.12572e-50
1.35044e-50
1.59734e-50
1.86733e-50
2.16158e-50
2.4814e-50
2.82835e-50
3.20406e-50
3.61026e-50
4.04859e-50
4.52049e-50
5.02702e-50
5.56865e-50
6.14504e-50
6.7549e-50
7.39579e-50
8.06404e-50
8.75472e-50
9.46169e-50
1.01777e-49
1.08949e-49
1.16046e-49
1.22983e-49
1.29675e-49
1.36046e-49
1.4203e-49
1.47571e-49
1.52631e-49
1.57187e-49
1.6123e-49
1.64768e-49
1.6782e-49
1.70414e-49
1.7259e-49
1.74389e-49
1.75856e-49
1.77035e-49
1.77972e-49
1.78705e-49
1.79271e-49
1.79703e-49
1.80029e-49
1.80271e-49
1.80449e-49
1.80578e-49
1.80671e-49
1.80736e-49
1.80782e-49
1.80815e-49
1.80837e-49
1.80852e-49
1.80862e-49
1.80869e-49
1.80873e-49
1.80877e-49
1.80879e-49
1.80881e-49
1.80882e-49
1.80883e-49
1.80884e-49
1.80885e-49
1.80886e-49
1.80887e-49
1.80888e-49
1.80889e-49
1.80891e-49
1.80892e-49
1.80893e-49
1.80895e-49
1.80896e-49
1.80898e-49
1.809e-49
1.80902e-49
1.80904e-49
1.80906e-49
1.80909e-49
1.80911e-49
1.80914e-49
1.80917e-49
1.8092e-49
1.80923e-49
1.80926e-49
1.8093e-49
1.80933e-49
1.80937e-49
1.80941e-49
1.80945e-49
1.8095e-49
1.80955e-49
1.80959e-49
1.80964e-49
1.8097e-49
1.80975e-49
1.80981e-49
1.80987e-49
1.80993e-49
1.81e-49
1.81006e-49
1.81013e-49
1.8102e-49
1.81028e-49
1.81036e-49
1.81044e-49
1.81052e-49
1.8106e-49
1.81069e-49
1.81078e-49
1.81087e-49
1.81097e-49
1.81107e-49
1.81117e-49
1.81126e-49
1.8113e-49
1.81115e-49
1.81022e-49
1.80615e-49
1.79807e-49
1.79849e-49
1.79908e-49
1.79989e-49
1.80093e-49
1.8022e-49
1.80365e-49
1.80519e-49
1.80672e-49
1.80813e-49
1.80931e-49
1.8102e-49
1.81077e-49
1.81103e-49
1.81101e-49
1.81076e-49
1.81035e-49
1.80984e-49
1.8093e-49
1.80877e-49
1.8083e-49
1.80793e-49
1.80768e-49
1.80757e-49
1.8076e-49
1.80777e-49
1.80808e-49
1.8085e-49
1.80904e-49
1.80966e-49
1.81034e-49
1.81107e-49
1.81182e-49
1.81257e-49
1.81331e-49
1.81401e-49
1.81468e-49
1.8153e-49
1.81586e-49
1.81638e-49
1.81683e-49
1.81724e-49
1.81759e-49
1.8179e-49
1.81817e-49
1.8184e-49
1.81861e-49
1.81878e-49
1.81894e-49
1.81907e-49
1.81918e-49
1.81928e-49
1.81936e-49
1.81943e-49
1.81948e-49
1.81952e-49
1.81954e-49
1.81955e-49
1.81955e-49
1.81953e-49
1.8195e-49
1.81945e-49
1.81938e-49
1.81929e-49
1.81919e-49
1.81907e-49
1.81892e-49
1.81876e-49
1.81857e-49
1.81837e-49
1.81813e-49
1.81788e-49
1.8176e-49
1.81729e-49
1.81695e-49
1.81659e-49
1.8162e-49
1.81578e-49
1.81533e-49
1.81485e-49
1.81433e-49
1.8138e-49
1.81329e-49
1.81321e-49
1.81635e-49
1.84198e-49
2.02205e-49
3.25137e-49
1.15367e-48
6.6795e-48
4.31577e-47
2.81494e-46
1.82256e-45
1.16823e-44
7.40956e-44
4.64931e-43
2.88574e-42
1.7715e-41
1.07544e-40
6.45551e-40
3.83108e-39
2.24751e-38
1.30321e-37
7.4681e-37
4.22897e-36
2.36616e-35
1.30798e-34
7.14287e-34
3.85341e-33
2.0536e-32
1.08118e-31
5.62381e-31
2.89047e-30
1.4682e-29
7.37186e-29
3.65972e-28
1.79685e-27
8.72754e-27
4.19476e-26
1.99564e-25
9.40048e-25
4.3858e-24
2.02738e-23
9.28927e-23
4.22072e-22
1.90267e-21
8.60183e-21
3.83743e-20
1.6956e-19
7.446e-19
3.25349e-18
1.41551e-17
6.13566e-17
2.65112e-16
1.14242e-15
4.91177e-15
2.10785e-14
9.03193e-14
3.86539e-13
1.65269e-12
7.06123e-12
3.01539e-11
1.28724e-10
5.49404e-10
2.34474e-09
1.00065e-08
4.26953e-08
1.81972e-07
7.72215e-07
3.22522e-06
1.27495e-05
4.24537e-05
9.29327e-05
0.000123116
0.000109837
6.24503e-05
2.6713e-05
1.07876e-05
5.55356e-06
4.43382e-06
4.68615e-06
5.38739e-06
5.96854e-06
6.39342e-06
6.6485e-06
6.76044e-06
6.76471e-06
6.69318e-06
6.57084e-06
6.41604e-06
6.2418e-06
6.0572e-06
5.86842e-06
5.67965e-06
5.49369e-06
5.31237e-06
5.13682e-06
4.96772e-06
4.80542e-06
4.65006e-06
4.50162e-06
4.35996e-06
4.22489e-06
4.09619e-06
3.97361e-06
3.85692e-06
3.74593e-06
3.64363e-06
3.54742e-06
3.45509e-06
3.36647e-06
3.28135e-06
3.19958e-06
3.12098e-06
3.04541e-06
2.97273e-06
2.90278e-06
2.83546e-06
2.77062e-06
2.70815e-06
2.64795e-06
2.5899e-06
2.53391e-06
2.47987e-06
2.42772e-06
2.37734e-06
2.32868e-06
2.28165e-06
2.23617e-06
2.19219e-06
2.14963e-06
2.10843e-06
2.06854e-06
2.0299e-06
1.99245e-06
1.95614e-06
1.92094e-06
1.88678e-06
1.85363e-06
1.82145e-06
1.7902e-06
1.75984e-06
1.73034e-06
1.70165e-06
1.67376e-06
1.64663e-06
1.62023e-06
1.59453e-06
1.56951e-06
1.54514e-06
1.5214e-06
1.49826e-06
1.47571e-06
1.45373e-06
1.43229e-06
1.41137e-06
1.39096e-06
1.37104e-06
1.35159e-06
1.33261e-06
1.31406e-06
1.29594e-06
1.27824e-06
1.26094e-06
1.24402e-06
1.22748e-06
1.2113e-06
1.19547e-06
1.17997e-06
1.1648e-06
1.14994e-06
1.13537e-06
1.12109e-06
1.1071e-06
1.09338e-06
1.07994e-06
1.06677e-06
1.05385e-06
1.04117e-06
1.02874e-06
1.01653e-06
1.00455e-06
9.9279e-07
9.81238e-07
9.69888e-07
9.58736e-07
9.47772e-07
9.36992e-07
9.26388e-07
9.15955e-07
9.05686e-07
8.95574e-07
8.85613e-07
8.75798e-07
8.66122e-07
8.56579e-07
8.47162e-07
8.37865e-07
8.28682e-07
8.19607e-07
8.10632e-07
8.01751e-07
7.92959e-07
7.84247e-07
7.75609e-07
7.67039e-07
7.58529e-07
7.50072e-07
7.41663e-07
7.33292e-07
7.24955e-07
7.16643e-07
7.08351e-07
7.00072e-07
6.91798e-07
6.83525e-07
6.75246e-07
6.66956e-07
6.58649e-07
6.50321e-07
6.41967e-07
6.33584e-07
6.25168e-07
6.16717e-07
6.08229e-07
5.99702e-07
5.91137e-07
5.82533e-07
5.73892e-07
5.65216e-07
5.56507e-07
5.47771e-07
5.39011e-07
5.30234e-07
5.21446e-07
5.12654e-07
5.03866e-07
4.95092e-07
4.86341e-07
4.77622e-07
4.68948e-07
4.60327e-07
4.51772e-07
4.43294e-07
4.34905e-07
4.26615e-07
4.18436e-07
4.10379e-07
4.02454e-07
3.9467e-07
3.87038e-07
3.79566e-07
3.72262e-07
3.65133e-07
3.58185e-07
3.51423e-07
3.44853e-07
3.38477e-07
3.32299e-07
3.26319e-07
3.20539e-07
3.1496e-07
3.09579e-07
3.04396e-07
2.99409e-07
2.94614e-07
2.90008e-07
2.85587e-07
2.81347e-07
2.77283e-07
2.7339e-07
2.69662e-07
2.66094e-07
2.6268e-07
2.59414e-07
2.5629e-07
2.53303e-07
2.50446e-07
2.47715e-07
2.45104e-07
2.42608e-07
2.40222e-07
2.37942e-07
2.35766e-07
2.33692e-07
2.31718e-07
2.29845e-07
2.28076e-07
2.26419e-07
2.24882e-07
2.23482e-07
2.22241e-07
2.21192e-07
2.20382e-07
2.19892e-07
)
;

boundaryField
{
    boundary
    {
        type            empty;
    }
    inlet
    {
        type            fixedValue;
        value           uniform 0;
    }
    outlet
    {
        type            zeroGradient;
    }
}


// ************************************************************************* //
