/*--------------------------------*- C++ -*----------------------------------*\
  =========                 |
  \\      /  F ield         | OpenFOAM: The Open Source CFD Toolbox
   \\    /   O peration     | Website:  https://openfoam.org
    \\  /    A nd           | Version:  7
     \\/     M anipulation  |
\*---------------------------------------------------------------------------*/
FoamFile
{
    version     2.0;
    format      ascii;
    class       volScalarField;
    location    "0.00045";
    object      HO2;
}
// * * * * * * * * * * * * * * * * * * * * * * * * * * * * * * * * * * * * * //

dimensions      [0 0 0 0 0 0 0];

internalField   nonuniform List<scalar> 
500
(
5.60322e-38
1.27602e-37
1.99536e-37
2.71637e-37
3.43873e-37
4.16254e-37
4.88815e-37
5.61606e-37
6.34697e-37
7.08183e-37
7.82181e-37
8.56839e-37
9.3234e-37
1.0089e-36
1.08676e-36
1.1662e-36
1.24751e-36
1.331e-36
1.41695e-36
1.50561e-36
1.59717e-36
1.69172e-36
1.78924e-36
1.88957e-36
1.9924e-36
2.09724e-36
2.20344e-36
2.31021e-36
2.41661e-36
2.52165e-36
2.62426e-36
2.72339e-36
2.81805e-36
2.90736e-36
2.99055e-36
3.06706e-36
3.13651e-36
3.19871e-36
3.25369e-36
3.30162e-36
3.34286e-36
3.37786e-36
3.40717e-36
3.43138e-36
3.45113e-36
3.46702e-36
3.47965e-36
3.48955e-36
3.49721e-36
3.50307e-36
3.5075e-36
3.5108e-36
3.51324e-36
3.51502e-36
3.5163e-36
3.51721e-36
3.51785e-36
3.5183e-36
3.51861e-36
3.51882e-36
3.51897e-36
3.51907e-36
3.51914e-36
3.51919e-36
3.51922e-36
3.51924e-36
3.51926e-36
3.51928e-36
3.5193e-36
3.51931e-36
3.51933e-36
3.51934e-36
3.51936e-36
3.51937e-36
3.51939e-36
3.51941e-36
3.51943e-36
3.51945e-36
3.51948e-36
3.5195e-36
3.51953e-36
3.51956e-36
3.51959e-36
3.51962e-36
3.51965e-36
3.51969e-36
3.51972e-36
3.51976e-36
3.51981e-36
3.51985e-36
3.5199e-36
3.51994e-36
3.52e-36
3.52005e-36
3.52011e-36
3.52016e-36
3.52023e-36
3.52029e-36
3.52036e-36
3.52043e-36
3.5205e-36
3.52058e-36
3.52066e-36
3.52074e-36
3.52082e-36
3.52091e-36
3.52101e-36
3.5211e-36
3.5212e-36
3.5213e-36
3.52141e-36
3.52152e-36
3.52163e-36
3.52175e-36
3.52187e-36
3.522e-36
3.52212e-36
3.52226e-36
3.52239e-36
3.52253e-36
3.52266e-36
3.52274e-36
3.52264e-36
3.52176e-36
3.51778e-36
3.50987e-36
3.51039e-36
3.51112e-36
3.51207e-36
3.51326e-36
3.51468e-36
3.51625e-36
3.51785e-36
3.51939e-36
3.52072e-36
3.52178e-36
3.52249e-36
3.52286e-36
3.5229e-36
3.52266e-36
3.52221e-36
3.52163e-36
3.52099e-36
3.52035e-36
3.51977e-36
3.51931e-36
3.51899e-36
3.51884e-36
3.51886e-36
3.51906e-36
3.51943e-36
3.51995e-36
3.5206e-36
3.52135e-36
3.52218e-36
3.52306e-36
3.52397e-36
3.52489e-36
3.52579e-36
3.52665e-36
3.52748e-36
3.52825e-36
3.52896e-36
3.5296e-36
3.53019e-36
3.53071e-36
3.53118e-36
3.53159e-36
3.53196e-36
3.53228e-36
3.53256e-36
3.53281e-36
3.53302e-36
3.53321e-36
3.53338e-36
3.53353e-36
3.53365e-36
3.53376e-36
3.53385e-36
3.53392e-36
3.53397e-36
3.534e-36
3.53402e-36
3.53401e-36
3.53399e-36
3.53394e-36
3.53387e-36
3.53378e-36
3.53366e-36
3.53352e-36
3.53336e-36
3.53316e-36
3.53294e-36
3.53269e-36
3.53241e-36
3.53209e-36
3.53174e-36
3.53136e-36
3.53094e-36
3.53049e-36
3.53e-36
3.52947e-36
3.5289e-36
3.52828e-36
3.52763e-36
3.52693e-36
3.52618e-36
3.52539e-36
3.52455e-36
3.52367e-36
3.52273e-36
3.52174e-36
3.5207e-36
3.51961e-36
3.51847e-36
3.51728e-36
3.51604e-36
3.51481e-36
3.51378e-36
3.51379e-36
3.51838e-36
3.54218e-36
3.64556e-36
4.07482e-36
5.8261e-36
1.28937e-35
4.11617e-35
1.53308e-34
5.94922e-34
2.32248e-33
9.04308e-33
3.50784e-32
1.35687e-31
5.24319e-31
2.02858e-30
7.87878e-30
3.08035e-29
1.21559e-28
4.85331e-28
1.96371e-27
8.05816e-27
3.35285e-26
1.41291e-25
6.01927e-25
2.58665e-24
1.11864e-23
4.85783e-23
2.11427e-22
9.20767e-22
4.00748e-21
1.74152e-20
7.62044e-20
3.30792e-19
1.42764e-18
6.14129e-18
2.63479e-17
1.12771e-16
4.81624e-16
2.05291e-15
8.73525e-15
3.71121e-14
1.57461e-13
6.67305e-13
2.82512e-12
1.19499e-11
5.05075e-11
2.13326e-10
9.00411e-10
3.79785e-09
1.60056e-08
6.73515e-08
2.82539e-07
1.1768e-06
4.82109e-06
1.90842e-05
6.99068e-05
0.000214597
0.000444446
0.000520116
0.000450364
0.000337938
0.000239715
0.000168072
0.000117612
8.2441e-05
5.88356e-05
4.07043e-05
3.06416e-05
2.41908e-05
1.99669e-05
1.71093e-05
1.5096e-05
1.3615e-05
1.24796e-05
1.15764e-05
1.08352e-05
1.02114e-05
9.67572e-06
9.2083e-06
8.79526e-06
8.42655e-06
8.09467e-06
7.79388e-06
7.51968e-06
7.26848e-06
7.03735e-06
6.82388e-06
6.62605e-06
6.44217e-06
6.27082e-06
6.11081e-06
5.96121e-06
5.8254e-06
5.69919e-06
5.57942e-06
5.46559e-06
5.35727e-06
5.25406e-06
5.15559e-06
5.06154e-06
4.97162e-06
4.88557e-06
4.80315e-06
4.72413e-06
4.64831e-06
4.57552e-06
4.50557e-06
4.43831e-06
4.37359e-06
4.31129e-06
4.25127e-06
4.19341e-06
4.13762e-06
4.08378e-06
4.03181e-06
3.9816e-06
3.93308e-06
3.88616e-06
3.84078e-06
3.79686e-06
3.75433e-06
3.71314e-06
3.67322e-06
3.63451e-06
3.59697e-06
3.56054e-06
3.52517e-06
3.49083e-06
3.45746e-06
3.42503e-06
3.3935e-06
3.36283e-06
3.333e-06
3.30396e-06
3.27568e-06
3.24815e-06
3.22132e-06
3.19517e-06
3.16967e-06
3.14481e-06
3.12056e-06
3.0969e-06
3.07379e-06
3.05124e-06
3.0292e-06
3.00768e-06
2.98664e-06
2.96606e-06
2.94594e-06
2.92624e-06
2.90695e-06
2.88806e-06
2.86952e-06
2.85133e-06
2.83344e-06
2.8158e-06
2.79849e-06
2.78161e-06
2.76505e-06
2.74878e-06
2.73278e-06
2.71704e-06
2.70155e-06
2.68629e-06
2.67124e-06
2.65639e-06
2.64173e-06
2.62723e-06
2.61289e-06
2.59868e-06
2.58459e-06
2.57061e-06
2.55671e-06
2.54289e-06
2.52912e-06
2.51538e-06
2.50166e-06
2.48794e-06
2.4742e-06
2.46043e-06
2.4466e-06
2.43269e-06
2.41869e-06
2.40458e-06
2.39035e-06
2.37596e-06
2.36141e-06
2.34668e-06
2.33174e-06
2.3166e-06
2.30123e-06
2.28562e-06
2.26975e-06
2.25362e-06
2.23722e-06
2.22054e-06
2.20358e-06
2.18634e-06
2.16881e-06
2.15099e-06
2.1329e-06
2.11454e-06
2.09592e-06
2.07706e-06
2.05796e-06
2.03866e-06
2.01917e-06
1.99953e-06
1.97975e-06
1.95987e-06
1.93993e-06
1.91996e-06
1.9e-06
1.88009e-06
1.86027e-06
1.8406e-06
1.82111e-06
1.80185e-06
1.78288e-06
1.76424e-06
1.74598e-06
1.72814e-06
1.71078e-06
1.69395e-06
1.67769e-06
1.66204e-06
1.64704e-06
1.63274e-06
1.61918e-06
1.60638e-06
1.59438e-06
1.58321e-06
1.57288e-06
1.56342e-06
1.55485e-06
1.54716e-06
1.54038e-06
1.53449e-06
1.52949e-06
1.52539e-06
1.52215e-06
1.51976e-06
1.51821e-06
1.51746e-06
1.51747e-06
1.51823e-06
1.51968e-06
1.52178e-06
1.5245e-06
1.52778e-06
1.53157e-06
1.53583e-06
1.5405e-06
1.54555e-06
1.5509e-06
1.55652e-06
1.56237e-06
1.56838e-06
1.57453e-06
1.58076e-06
1.58704e-06
1.59334e-06
1.59962e-06
1.60585e-06
1.612e-06
1.61806e-06
1.62399e-06
1.6298e-06
1.63545e-06
1.64093e-06
1.64624e-06
1.65137e-06
1.6563e-06
1.66102e-06
1.66552e-06
1.66976e-06
1.67371e-06
1.67727e-06
1.68027e-06
1.68226e-06
)
;

boundaryField
{
    boundary
    {
        type            empty;
    }
    inlet
    {
        type            fixedValue;
        value           uniform 0;
    }
    outlet
    {
        type            zeroGradient;
    }
}


// ************************************************************************* //
