/*--------------------------------*- C++ -*----------------------------------*\
  =========                 |
  \\      /  F ield         | OpenFOAM: The Open Source CFD Toolbox
   \\    /   O peration     | Website:  https://openfoam.org
    \\  /    A nd           | Version:  7
     \\/     M anipulation  |
\*---------------------------------------------------------------------------*/
FoamFile
{
    version     2.0;
    format      ascii;
    class       volScalarField;
    location    "0.00045";
    object      N2;
}
// * * * * * * * * * * * * * * * * * * * * * * * * * * * * * * * * * * * * * //

dimensions      [0 0 0 0 0 0 0];

internalField   nonuniform List<scalar> 
500
(
0.745219
0.745219
0.745219
0.745219
0.745219
0.745219
0.745219
0.745219
0.745219
0.745219
0.745219
0.745219
0.745219
0.745219
0.745219
0.745219
0.745219
0.745219
0.745219
0.745219
0.745219
0.745219
0.745219
0.745219
0.745219
0.745219
0.745219
0.745219
0.745219
0.745219
0.74522
0.74522
0.74522
0.74522
0.74522
0.74522
0.74522
0.74522
0.74522
0.74522
0.74522
0.74522
0.74522
0.74522
0.74522
0.74522
0.74522
0.74522
0.74522
0.74522
0.74522
0.74522
0.74522
0.74522
0.74522
0.74522
0.74522
0.74522
0.74522
0.74522
0.74522
0.74522
0.74522
0.74522
0.74522
0.74522
0.74522
0.74522
0.74522
0.74522
0.74522
0.74522
0.74522
0.74522
0.74522
0.74522
0.74522
0.74522
0.74522
0.74522
0.74522
0.74522
0.74522
0.74522
0.74522
0.74522
0.74522
0.74522
0.74522
0.74522
0.74522
0.74522
0.74522
0.74522
0.74522
0.74522
0.74522
0.74522
0.74522
0.74522
0.74522
0.74522
0.74522
0.74522
0.74522
0.74522
0.74522
0.74522
0.74522
0.74522
0.74522
0.74522
0.74522
0.74522
0.74522
0.74522
0.74522
0.74522
0.74522
0.74522
0.74522
0.74522
0.74522
0.74522
0.74522
0.74522
0.74522
0.74522
0.74522
0.74522
0.74522
0.74522
0.74522
0.74522
0.74522
0.74522
0.74522
0.74522
0.74522
0.74522
0.74522
0.74522
0.74522
0.74522
0.74522
0.74522
0.74522
0.74522
0.74522
0.74522
0.74522
0.74522
0.74522
0.74522
0.74522
0.74522
0.74522
0.74522
0.74522
0.74522
0.74522
0.74522
0.74522
0.74522
0.74522
0.74522
0.74522
0.74522
0.74522
0.74522
0.74522
0.74522
0.74522
0.74522
0.74522
0.74522
0.74522
0.74522
0.74522
0.74522
0.74522
0.74522
0.74522
0.74522
0.74522
0.74522
0.74522
0.74522
0.74522
0.74522
0.74522
0.74522
0.74522
0.74522
0.74522
0.74522
0.74522
0.74522
0.74522
0.74522
0.74522
0.74522
0.74522
0.74522
0.74522
0.74522
0.74522
0.74522
0.74522
0.74522
0.74522
0.74522
0.74522
0.74522
0.74522
0.74522
0.74522
0.74522
0.74522
0.74522
0.74522
0.74522
0.74522
0.74522
0.74522
0.74522
0.74522
0.74522
0.74522
0.74522
0.74522
0.74522
0.74522
0.74522
0.74522
0.74522
0.74522
0.74522
0.74522
0.74522
0.74522
0.74522
0.74522
0.74522
0.74522
0.74522
0.74522
0.74522
0.74522
0.74522
0.74522
0.74522
0.74522
0.74522
0.74522
0.74522
0.74522
0.74522
0.74522
0.74522
0.74522
0.74522
0.74522
0.74522
0.74522
0.74522
0.74522
0.74522
0.745221
0.745223
0.745228
0.745236
0.745254
0.745289
0.745354
0.74546
0.745587
0.745616
0.745416
0.745045
0.744537
0.74398
0.743638
0.743672
0.743946
0.744125
0.744731
0.744956
0.745114
0.745216
0.745279
0.745317
0.745339
0.74535
0.745356
0.745357
0.745356
0.745354
0.74535
0.745346
0.745342
0.745337
0.745333
0.745328
0.745324
0.74532
0.745315
0.745311
0.745308
0.745304
0.745301
0.745298
0.745295
0.745292
0.74529
0.745288
0.745286
0.745284
0.745282
0.745281
0.74528
0.745279
0.745277
0.745277
0.745276
0.745275
0.745274
0.745273
0.745273
0.745272
0.745271
0.745271
0.74527
0.745269
0.745268
0.745268
0.745267
0.745266
0.745265
0.745264
0.745263
0.745263
0.745262
0.745261
0.74526
0.745259
0.745258
0.745258
0.745257
0.745256
0.745255
0.745254
0.745254
0.745253
0.745252
0.745251
0.745251
0.74525
0.745249
0.745248
0.745247
0.745247
0.745246
0.745245
0.745244
0.745243
0.745242
0.745241
0.74524
0.745238
0.745237
0.745235
0.745233
0.745231
0.745229
0.745226
0.745224
0.745222
0.74522
0.745217
0.745215
0.745212
0.74521
0.745207
0.745204
0.745201
0.745198
0.745195
0.745191
0.745188
0.745185
0.745181
0.745178
0.745174
0.745171
0.745167
0.745164
0.745161
0.745157
0.745154
0.745151
0.745149
0.745146
0.745144
0.745142
0.745141
0.745139
0.745138
0.745138
0.745138
0.745138
0.745139
0.745141
0.745143
0.745146
0.745149
0.745153
0.745157
0.745163
0.745169
0.745176
0.745184
0.745192
0.745201
0.745212
0.745222
0.745234
0.745247
0.74526
0.745274
0.745289
0.745304
0.74532
0.745336
0.745353
0.74537
0.745387
0.745404
0.745421
0.745438
0.745454
0.745471
0.745486
0.745501
0.745515
0.745528
0.74554
0.745551
0.74556
0.745568
0.745575
0.74558
0.745583
0.745584
0.745584
0.745581
0.745577
0.745571
0.745564
0.745554
0.745543
0.74553
0.745515
0.745499
0.745481
0.745462
0.745443
0.745422
0.7454
0.745377
0.745354
0.745331
0.745307
0.745284
0.74526
0.745237
0.745214
0.745192
0.74517
0.745149
0.74513
0.745111
0.745093
0.745077
0.745062
0.745048
0.745036
0.745025
0.745015
0.745007
0.745
0.744994
0.744989
0.744985
0.744981
0.744978
0.744976
0.744973
0.744969
0.744966
)
;

boundaryField
{
    boundary
    {
        type            empty;
    }
    inlet
    {
        type            fixedValue;
        value           uniform 0.74522;
    }
    outlet
    {
        type            zeroGradient;
    }
}


// ************************************************************************* //
