/*--------------------------------*- C++ -*----------------------------------*\
  =========                 |
  \\      /  F ield         | OpenFOAM: The Open Source CFD Toolbox
   \\    /   O peration     | Website:  https://openfoam.org
    \\  /    A nd           | Version:  7
     \\/     M anipulation  |
\*---------------------------------------------------------------------------*/
FoamFile
{
    version     2.0;
    format      ascii;
    class       volScalarField;
    location    "0.00045";
    object      O;
}
// * * * * * * * * * * * * * * * * * * * * * * * * * * * * * * * * * * * * * //

dimensions      [0 0 0 0 0 0 0];

internalField   nonuniform List<scalar> 
500
(
1.58089e-47
3.77533e-47
5.98636e-47
8.20321e-47
1.04242e-46
1.26498e-46
1.48819e-46
1.71227e-46
1.93756e-46
2.16449e-46
2.39357e-46
2.62545e-46
2.8609e-46
3.1008e-46
3.34615e-46
3.59805e-46
3.85767e-46
4.12617e-46
4.40467e-46
4.69418e-46
4.99548e-46
5.30908e-46
5.6351e-46
5.97318e-46
6.32248e-46
6.68158e-46
7.04852e-46
7.42079e-46
7.79541e-46
8.16904e-46
8.53807e-46
8.89883e-46
9.24765e-46
9.58113e-46
9.89622e-46
1.01903e-45
1.04615e-45
1.07085e-45
1.09305e-45
1.11276e-45
1.13003e-45
1.14497e-45
1.15774e-45
1.1685e-45
1.17746e-45
1.18483e-45
1.19081e-45
1.19561e-45
1.19941e-45
1.20239e-45
1.20469e-45
1.20644e-45
1.20777e-45
1.20876e-45
1.20949e-45
1.21003e-45
1.21041e-45
1.21069e-45
1.21089e-45
1.21102e-45
1.21112e-45
1.21118e-45
1.21123e-45
1.21126e-45
1.21128e-45
1.2113e-45
1.21131e-45
1.21132e-45
1.21133e-45
1.21134e-45
1.21134e-45
1.21135e-45
1.21136e-45
1.21136e-45
1.21137e-45
1.21138e-45
1.21139e-45
1.2114e-45
1.21141e-45
1.21142e-45
1.21143e-45
1.21144e-45
1.21145e-45
1.21147e-45
1.21148e-45
1.2115e-45
1.21151e-45
1.21153e-45
1.21155e-45
1.21157e-45
1.21159e-45
1.21161e-45
1.21163e-45
1.21166e-45
1.21168e-45
1.21171e-45
1.21173e-45
1.21176e-45
1.21179e-45
1.21182e-45
1.21186e-45
1.21189e-45
1.21192e-45
1.21196e-45
1.212e-45
1.21204e-45
1.21208e-45
1.21212e-45
1.21217e-45
1.21221e-45
1.21226e-45
1.21231e-45
1.21236e-45
1.21241e-45
1.21246e-45
1.21252e-45
1.21257e-45
1.21263e-45
1.21269e-45
1.21275e-45
1.21281e-45
1.21285e-45
1.21281e-45
1.21244e-45
1.21099e-45
1.20889e-45
1.2098e-45
1.2108e-45
1.21174e-45
1.21253e-45
1.2131e-45
1.21347e-45
1.21367e-45
1.21377e-45
1.21381e-45
1.21384e-45
1.21386e-45
1.21389e-45
1.21392e-45
1.21396e-45
1.214e-45
1.21404e-45
1.21407e-45
1.2141e-45
1.21413e-45
1.21416e-45
1.21419e-45
1.21422e-45
1.21426e-45
1.21431e-45
1.21436e-45
1.21444e-45
1.21452e-45
1.21463e-45
1.21475e-45
1.21488e-45
1.21503e-45
1.21519e-45
1.21536e-45
1.21553e-45
1.21571e-45
1.21589e-45
1.21607e-45
1.21624e-45
1.21641e-45
1.21656e-45
1.21671e-45
1.21685e-45
1.21698e-45
1.2171e-45
1.21721e-45
1.21731e-45
1.2174e-45
1.21748e-45
1.21755e-45
1.21761e-45
1.21767e-45
1.21771e-45
1.21775e-45
1.21778e-45
1.2178e-45
1.21781e-45
1.21782e-45
1.21781e-45
1.2178e-45
1.21778e-45
1.21775e-45
1.2177e-45
1.21765e-45
1.21758e-45
1.21751e-45
1.21742e-45
1.21731e-45
1.2172e-45
1.21707e-45
1.21693e-45
1.21677e-45
1.21659e-45
1.21641e-45
1.21621e-45
1.21603e-45
1.21599e-45
1.21674e-45
1.22135e-45
1.24457e-45
1.35634e-45
1.88586e-45
4.36823e-45
1.58988e-44
6.89792e-44
3.11141e-43
1.40595e-42
6.31058e-42
2.80813e-41
1.23825e-40
5.40965e-40
2.34134e-39
1.00383e-38
4.26316e-38
1.79329e-37
7.47116e-37
3.08264e-36
1.2596e-35
5.09681e-35
2.04221e-34
8.10263e-34
3.18318e-33
1.23822e-32
4.76907e-32
1.81873e-31
6.8676e-31
2.56778e-30
9.50698e-30
3.48566e-29
1.26567e-28
4.55183e-28
1.62157e-27
5.72299e-27
2.00131e-26
6.93543e-26
2.38215e-25
8.11083e-25
2.73793e-24
9.16436e-24
3.04213e-23
1.00175e-22
3.27343e-22
1.06206e-21
3.4237e-21
1.0974e-20
3.49983e-20
1.11953e-19
3.55423e-19
1.12031e-18
3.51509e-18
1.09894e-17
3.4252e-17
1.06477e-16
3.30251e-16
1.02235e-15
3.15981e-15
9.75325e-15
3.0073e-14
9.26492e-14
2.85253e-13
8.77849e-13
2.70071e-12
8.30742e-12
2.55527e-11
7.86018e-11
2.41819e-10
7.4419e-10
2.29275e-09
7.09858e-09
2.24525e-08
7.69888e-08
3.30841e-07
2.00821e-06
1.38559e-05
7.29568e-05
0.000299958
0.000935457
0.00206622
0.00343264
0.00466597
0.00556371
0.0061234
0.00637025
0.00643918
0.00639795
0.00629235
0.00615185
0.00599463
0.00583154
0.00566887
0.00551013
0.00535715
0.00521081
0.00507137
0.00493879
0.00481285
0.00469323
0.00457958
0.00447152
0.00436869
0.00427074
0.00417735
0.00408821
0.00400304
0.0039216
0.00384365
0.00376902
0.00369972
0.00363425
0.003571
0.00350981
0.00345059
0.00339323
0.00333764
0.00328374
0.00323144
0.00318068
0.00313138
0.00308349
0.00303696
0.00299171
0.0029477
0.00290489
0.00286322
0.00282265
0.00278314
0.00274465
0.00270715
0.00267058
0.00263493
0.00260016
0.00256624
0.00253313
0.0025008
0.00246924
0.00243841
0.00240828
0.00237883
0.00235005
0.00232189
0.00229436
0.00226741
0.00224104
0.00221523
0.00218995
0.00216519
0.00214093
0.00211716
0.00209387
0.00207103
0.00204864
0.00202668
0.00200514
0.00198401
0.00196327
0.00194291
0.00192293
0.00190332
0.00188405
0.00186513
0.00184655
0.00182829
0.00181035
0.00179272
0.00177538
0.00175833
0.00174156
0.00172506
0.0017088
0.00169278
0.00167698
0.00166141
0.00164609
0.001631
0.00161614
0.00160149
0.00158704
0.00157278
0.00155871
0.00154482
0.0015311
0.00151754
0.00150414
0.00149088
0.00147776
0.00146478
0.00145191
0.00143917
0.00142652
0.00141398
0.00140153
0.00138915
0.00137685
0.00136461
0.00135243
0.00134029
0.00132819
0.00131612
0.00130407
0.00129203
0.00128
0.00126796
0.00125591
0.00124384
0.00123175
0.00121962
0.00120746
0.00119525
0.001183
0.0011707
0.00115834
0.00114592
0.00113345
0.00112092
0.00110833
0.00109568
0.00108298
0.00107023
0.00105744
0.0010446
0.00103174
0.00101884
0.00100593
0.000993016
0.000980103
0.000967207
0.000954337
0.000941508
0.000928733
0.000916025
0.000903398
0.000890867
0.000878446
0.000866148
0.000853988
0.00084198
0.000830135
0.000818467
0.000806988
0.000795709
0.000784639
0.000773788
0.000763164
0.000752774
0.000742624
0.000732719
0.000723062
0.000713655
0.0007045
0.000695597
0.000686944
0.000678539
0.000670379
0.00066246
0.000654777
0.000647322
0.00064009
0.000633074
0.000626265
0.000619655
0.000613234
0.000606995
0.000600927
0.000595022
0.000589271
0.000583663
0.00057819
0.000572844
0.000567617
0.000562499
0.000557485
0.000552567
0.000547739
0.000542996
0.000538332
0.000533745
0.000529229
0.000524784
0.000520408
0.000516099
0.000511859
0.00050769
0.000503594
0.000499577
0.000495646
0.000491811
0.000488088
0.000484496
0.000481061
0.000477819
0.00047482
0.000472128
0.000469832
0.000468055
0.000466987
)
;

boundaryField
{
    boundary
    {
        type            empty;
    }
    inlet
    {
        type            fixedValue;
        value           uniform 0;
    }
    outlet
    {
        type            zeroGradient;
    }
}


// ************************************************************************* //
