/*--------------------------------*- C++ -*----------------------------------*\
  =========                 |
  \\      /  F ield         | OpenFOAM: The Open Source CFD Toolbox
   \\    /   O peration     | Website:  https://openfoam.org
    \\  /    A nd           | Version:  7
     \\/     M anipulation  |
\*---------------------------------------------------------------------------*/
FoamFile
{
    version     2.0;
    format      ascii;
    class       volScalarField;
    location    "0.00045";
    object      O2;
}
// * * * * * * * * * * * * * * * * * * * * * * * * * * * * * * * * * * * * * //

dimensions      [0 0 0 0 0 0 0];

internalField   nonuniform List<scalar> 
500
(
0.226269
0.226269
0.226269
0.226269
0.226269
0.226269
0.226269
0.226269
0.226269
0.226269
0.226269
0.226269
0.226269
0.226269
0.226269
0.226269
0.226269
0.226269
0.226269
0.226269
0.226269
0.226269
0.226269
0.226269
0.226269
0.226269
0.226269
0.226269
0.226269
0.226269
0.226269
0.226269
0.226269
0.226269
0.226269
0.226269
0.226269
0.226269
0.226269
0.226269
0.226269
0.226269
0.226269
0.226269
0.226269
0.226269
0.226269
0.226269
0.226269
0.226269
0.226269
0.226269
0.226269
0.226269
0.226269
0.226269
0.226269
0.226269
0.226269
0.226269
0.226269
0.226269
0.226269
0.226269
0.226269
0.226269
0.226269
0.226269
0.226269
0.226269
0.226269
0.226269
0.226269
0.226269
0.226269
0.226269
0.226269
0.226269
0.226269
0.226269
0.226269
0.226269
0.226269
0.226269
0.226269
0.226269
0.226269
0.226269
0.226269
0.226269
0.226269
0.226269
0.226269
0.226269
0.226269
0.226269
0.226269
0.226269
0.226269
0.226269
0.226269
0.226269
0.226269
0.226269
0.226269
0.226269
0.226269
0.226269
0.226269
0.226269
0.226269
0.226269
0.226269
0.226269
0.226269
0.226269
0.226269
0.226269
0.226269
0.226269
0.226269
0.226269
0.226269
0.226269
0.226269
0.226269
0.226269
0.226269
0.226269
0.226269
0.226269
0.226269
0.226269
0.226269
0.226269
0.226269
0.226269
0.226269
0.226269
0.226269
0.226269
0.226269
0.226269
0.226269
0.226269
0.226269
0.226269
0.226269
0.226269
0.226269
0.226269
0.226269
0.226269
0.226269
0.226269
0.226269
0.226269
0.226269
0.226269
0.226269
0.226269
0.226269
0.226269
0.226269
0.226269
0.226269
0.226269
0.226269
0.226269
0.226269
0.226269
0.226269
0.226269
0.226269
0.226269
0.226269
0.226269
0.226269
0.226269
0.226269
0.226269
0.226269
0.226269
0.226269
0.226269
0.226269
0.226269
0.226269
0.226269
0.226269
0.226269
0.226269
0.226269
0.226269
0.226269
0.226269
0.226269
0.226269
0.226269
0.226269
0.226269
0.226269
0.226269
0.226269
0.226269
0.226269
0.226269
0.226269
0.226269
0.226269
0.226269
0.226269
0.226269
0.226269
0.226269
0.226269
0.226269
0.226269
0.226269
0.226269
0.226269
0.226269
0.226269
0.226269
0.226269
0.226269
0.226269
0.226269
0.226269
0.226269
0.226269
0.226269
0.226269
0.226269
0.226269
0.226269
0.226269
0.226269
0.226269
0.226269
0.226269
0.226269
0.226269
0.226269
0.226269
0.226269
0.226269
0.226269
0.226269
0.226269
0.226269
0.226269
0.226269
0.226269
0.226269
0.226269
0.226269
0.226269
0.226269
0.226269
0.226269
0.226269
0.226269
0.226269
0.226269
0.226269
0.226269
0.226269
0.22627
0.22627
0.226272
0.226274
0.226277
0.226277
0.22625
0.226096
0.225455
0.223375
0.21806
0.208055
0.194465
0.177298
0.155408
0.12993
0.10501
0.0847848
0.0663595
0.0553951
0.0479687
0.0429447
0.0394875
0.037035
0.0352259
0.0338332
0.0327151
0.0317828
0.0309808
0.0302733
0.029637
0.0290567
0.0285216
0.0280241
0.0275588
0.0271214
0.0267086
0.0263177
0.0259466
0.0255935
0.0252567
0.0249349
0.0246272
0.0243327
0.0240595
0.0238
0.0235485
0.0233047
0.0230681
0.0228383
0.0226148
0.0223975
0.0221859
0.0219798
0.0217789
0.0215831
0.0213921
0.0212057
0.0210238
0.0208462
0.0206726
0.0205031
0.0203374
0.0201754
0.020017
0.019862
0.0197104
0.019562
0.0194167
0.0192744
0.019135
0.0189984
0.0188645
0.0187332
0.0186044
0.018478
0.018354
0.0182321
0.0181125
0.017995
0.0178794
0.0177659
0.0176542
0.0175443
0.0174362
0.0173298
0.017225
0.0171218
0.0170202
0.01692
0.0168213
0.0167239
0.0166279
0.0165332
0.0164398
0.0163476
0.0162565
0.0161665
0.0160776
0.0159897
0.0159028
0.0158168
0.0157316
0.0156471
0.0155632
0.0154798
0.0153967
0.0153135
0.0152311
0.0151506
0.0150708
0.0149915
0.0149126
0.0148342
0.0147561
0.0146783
0.0146007
0.0145232
0.0144458
0.0143685
0.014291
0.0142135
0.0141357
0.0140576
0.0139791
0.0139002
0.0138207
0.0137406
0.0136598
0.0135782
0.0134957
0.0134121
0.0133275
0.0132418
0.0131547
0.0130664
0.0129765
0.0128852
0.0127922
0.0126976
0.0126012
0.012503
0.0124029
0.0123009
0.0121969
0.0120909
0.0119829
0.0118729
0.0117608
0.0116466
0.0115305
0.0114125
0.0112925
0.0111708
0.0110473
0.0109222
0.0107955
0.0106676
0.0105384
0.0104081
0.010277
0.0101453
0.010013
0.00988051
0.00974797
0.00961563
0.00948373
0.0093525
0.00922218
0.00909302
0.00896526
0.00883914
0.00871488
0.00859272
0.00847287
0.00835555
0.00824095
0.00812925
0.00802064
0.00791526
0.00781328
0.00771481
0.00761997
0.00752886
0.00744156
0.00735814
0.00727866
0.00720314
0.00713162
0.00706409
0.00700056
0.00694099
0.00688537
0.00683365
0.00678578
0.00674168
0.0067013
0.00666454
0.00663133
0.00660156
0.00657514
0.00655197
0.00653192
0.0065149
0.00650078
0.00648945
0.00648078
0.00647467
0.00647098
0.00646959
0.00647039
0.00647325
0.00647805
0.00648468
0.00649301
0.00650293
0.00651432
0.00652706
0.00654104
0.00655613
0.00657223
0.00658921
0.00660694
0.00662528
0.00664409
0.00666318
0.00668235
0.00670131
0.00671965
0.00673674
0.00675143
0.00676142
)
;

boundaryField
{
    boundary
    {
        type            empty;
    }
    inlet
    {
        type            fixedValue;
        value           uniform 0.226269;
    }
    outlet
    {
        type            zeroGradient;
    }
}


// ************************************************************************* //
