/*--------------------------------*- C++ -*----------------------------------*\
  =========                 |
  \\      /  F ield         | OpenFOAM: The Open Source CFD Toolbox
   \\    /   O peration     | Website:  https://openfoam.org
    \\  /    A nd           | Version:  7
     \\/     M anipulation  |
\*---------------------------------------------------------------------------*/
FoamFile
{
    version     2.0;
    format      ascii;
    class       volVectorField;
    location    "0.00045";
    object      U;
}
// * * * * * * * * * * * * * * * * * * * * * * * * * * * * * * * * * * * * * //

dimensions      [0 1 -1 0 0 0 0];

internalField   nonuniform List<vector> 
500
(
(2.34892 0 0)
(2.34884 0 0)
(2.34875 0 0)
(2.34866 0 0)
(2.34859 0 0)
(2.34851 0 0)
(2.34843 0 0)
(2.34836 0 0)
(2.34828 0 0)
(2.34821 0 0)
(2.34814 0 0)
(2.34807 0 0)
(2.34801 0 0)
(2.34794 0 0)
(2.34789 0 0)
(2.34783 0 0)
(2.34778 0 0)
(2.34773 0 0)
(2.34769 0 0)
(2.34765 0 0)
(2.34761 0 0)
(2.34757 0 0)
(2.34753 0 0)
(2.3475 0 0)
(2.34745 0 0)
(2.34741 0 0)
(2.34735 0 0)
(2.3473 0 0)
(2.34723 0 0)
(2.34716 0 0)
(2.34707 0 0)
(2.34698 0 0)
(2.34689 0 0)
(2.34678 0 0)
(2.34667 0 0)
(2.34655 0 0)
(2.34644 0 0)
(2.34631 0 0)
(2.34619 0 0)
(2.34607 0 0)
(2.34595 0 0)
(2.34583 0 0)
(2.34571 0 0)
(2.3456 0 0)
(2.34549 0 0)
(2.34539 0 0)
(2.34528 0 0)
(2.34518 0 0)
(2.34509 0 0)
(2.345 0 0)
(2.3449 0 0)
(2.34482 0 0)
(2.34473 0 0)
(2.34464 0 0)
(2.34456 0 0)
(2.34447 0 0)
(2.34439 0 0)
(2.34431 0 0)
(2.34423 0 0)
(2.34414 0 0)
(2.34406 0 0)
(2.34398 0 0)
(2.3439 0 0)
(2.34382 0 0)
(2.34374 0 0)
(2.34366 0 0)
(2.34358 0 0)
(2.34349 0 0)
(2.34341 0 0)
(2.34333 0 0)
(2.34325 0 0)
(2.34317 0 0)
(2.34309 0 0)
(2.34301 0 0)
(2.34292 0 0)
(2.34284 0 0)
(2.34276 0 0)
(2.34268 0 0)
(2.3426 0 0)
(2.34252 0 0)
(2.34243 0 0)
(2.34235 0 0)
(2.34227 0 0)
(2.34219 0 0)
(2.34211 0 0)
(2.34202 0 0)
(2.34194 0 0)
(2.34186 0 0)
(2.34178 0 0)
(2.34169 0 0)
(2.34161 0 0)
(2.34153 0 0)
(2.34145 0 0)
(2.34136 0 0)
(2.34128 0 0)
(2.3412 0 0)
(2.34112 0 0)
(2.34103 0 0)
(2.34095 0 0)
(2.34087 0 0)
(2.34078 0 0)
(2.3407 0 0)
(2.34062 0 0)
(2.34053 0 0)
(2.34045 0 0)
(2.34037 0 0)
(2.34028 0 0)
(2.3402 0 0)
(2.34012 0 0)
(2.34003 0 0)
(2.33995 0 0)
(2.33987 0 0)
(2.33978 0 0)
(2.3397 0 0)
(2.33961 0 0)
(2.33953 0 0)
(2.33945 0 0)
(2.33936 0 0)
(2.33928 0 0)
(2.33919 0 0)
(2.33911 0 0)
(2.33902 0 0)
(2.33894 0 0)
(2.33885 0 0)
(2.33877 0 0)
(2.33868 0 0)
(2.33859 0 0)
(2.33851 0 0)
(2.33843 0 0)
(2.33834 0 0)
(2.33825 0 0)
(2.33817 0 0)
(2.33808 0 0)
(2.338 0 0)
(2.33791 0 0)
(2.33783 0 0)
(2.33774 0 0)
(2.33766 0 0)
(2.33757 0 0)
(2.33748 0 0)
(2.3374 0 0)
(2.33731 0 0)
(2.33723 0 0)
(2.33714 0 0)
(2.33705 0 0)
(2.33697 0 0)
(2.33688 0 0)
(2.3368 0 0)
(2.33671 0 0)
(2.33662 0 0)
(2.33654 0 0)
(2.33645 0 0)
(2.33636 0 0)
(2.33628 0 0)
(2.33619 0 0)
(2.3361 0 0)
(2.33601 0 0)
(2.33593 0 0)
(2.33584 0 0)
(2.33575 0 0)
(2.33567 0 0)
(2.33558 0 0)
(2.33549 0 0)
(2.3354 0 0)
(2.33531 0 0)
(2.33523 0 0)
(2.33514 0 0)
(2.33505 0 0)
(2.33496 0 0)
(2.33488 0 0)
(2.33479 0 0)
(2.3347 0 0)
(2.33461 0 0)
(2.33452 0 0)
(2.33444 0 0)
(2.33435 0 0)
(2.33426 0 0)
(2.33417 0 0)
(2.33408 0 0)
(2.33399 0 0)
(2.3339 0 0)
(2.33382 0 0)
(2.33373 0 0)
(2.33364 0 0)
(2.33355 0 0)
(2.33346 0 0)
(2.33337 0 0)
(2.33328 0 0)
(2.33319 0 0)
(2.3331 0 0)
(2.33302 0 0)
(2.33293 0 0)
(2.33284 0 0)
(2.33275 0 0)
(2.33266 0 0)
(2.33257 0 0)
(2.33248 0 0)
(2.33239 0 0)
(2.3323 0 0)
(2.33221 0 0)
(2.33212 0 0)
(2.33203 0 0)
(2.33194 0 0)
(2.33185 0 0)
(2.33176 0 0)
(2.33167 0 0)
(2.33158 0 0)
(2.33149 0 0)
(2.3314 0 0)
(2.33131 0 0)
(2.33122 0 0)
(2.33113 0 0)
(2.33104 0 0)
(2.33094 0 0)
(2.33085 0 0)
(2.33076 0 0)
(2.33067 0 0)
(2.33058 0 0)
(2.33049 0 0)
(2.3304 0 0)
(2.33031 0 0)
(2.33021 0 0)
(2.33012 0 0)
(2.33003 0 0)
(2.32994 0 0)
(2.32985 0 0)
(2.32976 0 0)
(2.32966 0 0)
(2.32957 0 0)
(2.32948 0 0)
(2.32939 0 0)
(2.3293 0 0)
(2.3292 0 0)
(2.32911 0 0)
(2.32902 0 0)
(2.32893 0 0)
(2.32883 0 0)
(2.32874 0 0)
(2.32865 0 0)
(2.32856 0 0)
(2.32846 0 0)
(2.32837 0 0)
(2.32828 0 0)
(2.32818 0 0)
(2.32809 0 0)
(2.328 0 0)
(2.32791 0 0)
(2.32781 0 0)
(2.32772 0 0)
(2.32763 0 0)
(2.32753 0 0)
(2.32743 0 0)
(2.32734 0 0)
(2.32725 0 0)
(2.32716 0 0)
(2.32706 0 0)
(2.32697 0 0)
(2.32688 0 0)
(2.32678 0 0)
(2.32669 0 0)
(2.3266 0 0)
(2.3265 0 0)
(2.32641 0 0)
(2.32632 0 0)
(2.32622 0 0)
(2.32613 0 0)
(2.32603 0 0)
(2.32594 0 0)
(2.32585 0 0)
(2.32583 0 0)
(2.32595 0 0)
(2.32662 0 0)
(2.32903 0 0)
(2.33653 0 0)
(2.3576 0 0)
(2.41121 0 0)
(2.53861 0 0)
(2.82556 0 0)
(3.42578 0 0)
(4.42867 0 0)
(5.64837 0 0)
(6.86159 0 0)
(7.95813 0 0)
(8.9112 0 0)
(9.71782 0 0)
(10.3932 0 0)
(10.9546 0 0)
(11.4062 0 0)
(11.762 0 0)
(12.0516 0 0)
(12.2979 0 0)
(12.5124 0 0)
(12.7013 0 0)
(12.8692 0 0)
(13.0198 0 0)
(13.1561 0 0)
(13.2804 0 0)
(13.3944 0 0)
(13.4995 0 0)
(13.5969 0 0)
(13.6874 0 0)
(13.7719 0 0)
(13.851 0 0)
(13.9253 0 0)
(13.9952 0 0)
(14.0611 0 0)
(14.1235 0 0)
(14.1826 0 0)
(14.2387 0 0)
(14.292 0 0)
(14.3427 0 0)
(14.391 0 0)
(14.4358 0 0)
(14.4777 0 0)
(14.5183 0 0)
(14.5574 0 0)
(14.5952 0 0)
(14.6317 0 0)
(14.667 0 0)
(14.7012 0 0)
(14.7343 0 0)
(14.7664 0 0)
(14.7975 0 0)
(14.8276 0 0)
(14.8569 0 0)
(14.8854 0 0)
(14.9131 0 0)
(14.94 0 0)
(14.9662 0 0)
(14.9917 0 0)
(15.0166 0 0)
(15.0408 0 0)
(15.0644 0 0)
(15.0874 0 0)
(15.1099 0 0)
(15.1318 0 0)
(15.1533 0 0)
(15.1742 0 0)
(15.1947 0 0)
(15.2147 0 0)
(15.2343 0 0)
(15.2534 0 0)
(15.2721 0 0)
(15.2905 0 0)
(15.3085 0 0)
(15.3261 0 0)
(15.3433 0 0)
(15.3603 0 0)
(15.3768 0 0)
(15.3931 0 0)
(15.4091 0 0)
(15.4247 0 0)
(15.4401 0 0)
(15.4552 0 0)
(15.47 0 0)
(15.4846 0 0)
(15.4989 0 0)
(15.5129 0 0)
(15.5268 0 0)
(15.5403 0 0)
(15.5537 0 0)
(15.5668 0 0)
(15.5798 0 0)
(15.5925 0 0)
(15.605 0 0)
(15.6173 0 0)
(15.6294 0 0)
(15.6414 0 0)
(15.6532 0 0)
(15.6647 0 0)
(15.6762 0 0)
(15.6874 0 0)
(15.6985 0 0)
(15.7095 0 0)
(15.7202 0 0)
(15.7308 0 0)
(15.7413 0 0)
(15.7516 0 0)
(15.7618 0 0)
(15.7718 0 0)
(15.7817 0 0)
(15.7914 0 0)
(15.801 0 0)
(15.8105 0 0)
(15.8198 0 0)
(15.8291 0 0)
(15.8382 0 0)
(15.8472 0 0)
(15.856 0 0)
(15.8648 0 0)
(15.8734 0 0)
(15.8819 0 0)
(15.8904 0 0)
(15.8987 0 0)
(15.9069 0 0)
(15.915 0 0)
(15.923 0 0)
(15.9308 0 0)
(15.9386 0 0)
(15.9463 0 0)
(15.9539 0 0)
(15.9614 0 0)
(15.9688 0 0)
(15.9762 0 0)
(15.9834 0 0)
(15.9906 0 0)
(15.9976 0 0)
(16.0046 0 0)
(16.0115 0 0)
(16.0183 0 0)
(16.0251 0 0)
(16.0318 0 0)
(16.0384 0 0)
(16.045 0 0)
(16.0514 0 0)
(16.0579 0 0)
(16.0642 0 0)
(16.0706 0 0)
(16.0768 0 0)
(16.083 0 0)
(16.0892 0 0)
(16.0953 0 0)
(16.1014 0 0)
(16.1075 0 0)
(16.1135 0 0)
(16.1194 0 0)
(16.1254 0 0)
(16.1313 0 0)
(16.1372 0 0)
(16.143 0 0)
(16.1488 0 0)
(16.1546 0 0)
(16.1603 0 0)
(16.166 0 0)
(16.1717 0 0)
(16.1774 0 0)
(16.183 0 0)
(16.1885 0 0)
(16.194 0 0)
(16.1994 0 0)
(16.2048 0 0)
(16.2101 0 0)
(16.2154 0 0)
(16.2205 0 0)
(16.2256 0 0)
(16.2305 0 0)
(16.2354 0 0)
(16.2401 0 0)
(16.2448 0 0)
(16.2492 0 0)
(16.2536 0 0)
(16.2577 0 0)
(16.2618 0 0)
(16.2656 0 0)
(16.2693 0 0)
(16.2728 0 0)
(16.2761 0 0)
(16.2792 0 0)
(16.2822 0 0)
(16.2849 0 0)
(16.2874 0 0)
(16.2898 0 0)
(16.2919 0 0)
(16.2938 0 0)
(16.2956 0 0)
(16.2971 0 0)
(16.2985 0 0)
(16.2997 0 0)
(16.3007 0 0)
(16.3016 0 0)
(16.3023 0 0)
(16.3029 0 0)
(16.3033 0 0)
(16.3037 0 0)
(16.3039 0 0)
(16.304 0 0)
(16.304 0 0)
(16.304 0 0)
(16.3039 0 0)
(16.3038 0 0)
(16.3036 0 0)
(16.3034 0 0)
(16.3032 0 0)
(16.303 0 0)
(16.3027 0 0)
(16.3026 0 0)
(16.3024 0 0)
(16.3022 0 0)
(16.3021 0 0)
(16.3021 0 0)
(16.3021 0 0)
(16.3023 0 0)
(16.3025 0 0)
(16.3029 0 0)
(16.3034 0 0)
(16.3043 0 0)
(16.3054 0 0)
(16.3069 0 0)
(16.3091 0 0)
(16.313 0 0)
)
;

boundaryField
{
    boundary
    {
        type            empty;
    }
    inlet
    {
        type            fixedValue;
        value           uniform (2.34893 0 0);
    }
    outlet
    {
        type            zeroGradient;
    }
}


// ************************************************************************* //
