/*--------------------------------*- C++ -*----------------------------------*\
  =========                 |
  \\      /  F ield         | OpenFOAM: The Open Source CFD Toolbox
   \\    /   O peration     | Website:  https://openfoam.org
    \\  /    A nd           | Version:  7
     \\/     M anipulation  |
\*---------------------------------------------------------------------------*/
FoamFile
{
    version     2.0;
    format      ascii;
    class       volScalarField;
    location    "0.00048";
    object      T;
}
// * * * * * * * * * * * * * * * * * * * * * * * * * * * * * * * * * * * * * //

dimensions      [0 0 0 1 0 0 0];

internalField   nonuniform List<scalar> 
124
(
2212.74
2214.47
2216.18
2217.87
2219.53
2221.17
2222.79
2224.4
2225.97
2227.53
2229.07
2230.59
2232.09
2233.56
2235.02
2236.46
2237.88
2239.27
2240.65
2242.01
2243.33
2244.66
2245.99
2247.3
2248.74
2249.93
2251.13
2252.31
2253.47
2254.62
2255.74
2256.84
2257.92
2258.98
2260.02
2261.03
2262.01
2262.97
2263.9
2264.81
2265.69
2266.54
2267.37
2268.18
2268.95
2269.71
2270.44
2271.15
2271.84
2272.5
2273.16
2273.79
2274.41
2275.03
2275.63
2276.24
2276.84
2277.44
2278.05
2278.68
2279.32
2279.98
2280.67
2281.39
2282.14
2282.94
2283.79
2284.69
2285.64
2286.67
2287.75
2288.92
2290.16
2291.48
2292.89
2294.39
2295.98
2297.66
2299.44
2301.32
2303.29
2305.36
2307.52
2309.77
2312.11
2314.53
2317.03
2319.61
2322.25
2324.95
2327.71
2330.5
2333.34
2336.2
2339.07
2341.96
2344.84
2347.7
2350.55
2353.36
2356.13
2358.85
2361.5
2364.09
2366.61
2369.04
2371.38
2373.62
2375.77
2377.81
2379.74
2381.57
2383.28
2384.88
2386.36
2387.74
2389
2390.16
2391.21
2392.15
2392.99
2393.71
2394.29
2394.65
)
;

boundaryField
{
    boundary
    {
        type            empty;
    }
    inlet
    {
        type            fixedValue;
        value           nonuniform 0();
    }
    outlet
    {
        type            zeroGradient;
    }
    procBoundary0to1
    {
        type            processor;
        value           uniform 2210.99;
    }
}


// ************************************************************************* //
