/*--------------------------------*- C++ -*----------------------------------*\
  =========                 |
  \\      /  F ield         | OpenFOAM: The Open Source CFD Toolbox
   \\    /   O peration     | Website:  https://openfoam.org
    \\  /    A nd           | Version:  7
     \\/     M anipulation  |
\*---------------------------------------------------------------------------*/
FoamFile
{
    version     2.0;
    format      ascii;
    class       volScalarField;
    location    "0.00053";
    object      HO2;
}
// * * * * * * * * * * * * * * * * * * * * * * * * * * * * * * * * * * * * * //

dimensions      [0 0 0 0 0 0 0];

internalField   nonuniform List<scalar> 
125
(
1.44358e-19
6.14839e-19
2.61178e-18
1.10846e-17
4.70182e-17
1.99341e-16
8.44738e-16
3.57813e-15
1.515e-14
6.41209e-14
2.71287e-13
1.14736e-12
4.85069e-12
2.04986e-11
8.65832e-11
3.65503e-10
1.54184e-09
6.49829e-09
2.73551e-08
1.14889e-07
4.80482e-07
1.98733e-06
8.04915e-06
3.11109e-05
0.000108309
0.000297218
0.000497376
0.000504867
0.000410702
0.00029962
0.000211087
0.00014785
0.000103315
7.25123e-05
5.21893e-05
3.65723e-05
2.80105e-05
2.24915e-05
1.88378e-05
1.633e-05
1.45348e-05
1.31933e-05
1.21498e-05
1.13095e-05
1.06128e-05
1.00216e-05
9.51053e-06
9.06225e-06
8.66443e-06
8.30806e-06
7.98636e-06
7.69409e-06
7.42711e-06
7.18208e-06
6.9563e-06
6.74749e-06
6.55378e-06
6.37356e-06
6.20549e-06
6.04846e-06
5.90157e-06
5.76818e-06
5.6442e-06
5.52653e-06
5.41471e-06
5.3083e-06
5.20693e-06
5.11024e-06
5.01791e-06
4.92967e-06
4.84526e-06
4.76443e-06
4.68696e-06
4.61267e-06
4.54135e-06
4.47285e-06
4.407e-06
4.34366e-06
4.2827e-06
4.22398e-06
4.1674e-06
4.11283e-06
4.06019e-06
4.00937e-06
3.96029e-06
3.91285e-06
3.86699e-06
3.82263e-06
3.77969e-06
3.73811e-06
3.69784e-06
3.6588e-06
3.62095e-06
3.58424e-06
3.5486e-06
3.514e-06
3.48039e-06
3.44774e-06
3.41599e-06
3.38511e-06
3.35508e-06
3.32584e-06
3.29738e-06
3.26965e-06
3.24264e-06
3.21632e-06
3.19065e-06
3.16562e-06
3.14121e-06
3.11738e-06
3.09413e-06
3.07143e-06
3.04926e-06
3.02761e-06
3.00645e-06
2.98578e-06
2.96558e-06
2.94583e-06
2.92652e-06
2.90763e-06
2.88915e-06
2.87107e-06
2.85337e-06
2.83604e-06
2.81906e-06
)
;

boundaryField
{
    boundary
    {
        type            empty;
    }
    inlet
    {
        type            fixedValue;
        value           nonuniform 0();
    }
    outlet
    {
        type            zeroGradient;
    }
    procBoundary1to0
    {
        type            processor;
        value           uniform 2.80243e-06;
    }
    procBoundary1to3
    {
        type            processor;
        value           uniform 3.3761e-20;
    }
}


// ************************************************************************* //
