/*--------------------------------*- C++ -*----------------------------------*\
  =========                 |
  \\      /  F ield         | OpenFOAM: The Open Source CFD Toolbox
   \\    /   O peration     | Website:  https://openfoam.org
    \\  /    A nd           | Version:  7
     \\/     M anipulation  |
\*---------------------------------------------------------------------------*/
FoamFile
{
    version     2.0;
    format      ascii;
    class       volScalarField;
    location    "0.00053";
    object      p;
}
// * * * * * * * * * * * * * * * * * * * * * * * * * * * * * * * * * * * * * //

dimensions      [1 -1 -2 0 0 0 0];

internalField   nonuniform List<scalar> 
125
(
103214
103214
103214
103214
103214
103214
103214
103214
103214
103214
103214
103214
103214
103214
103214
103213
103213
103213
103213
103213
103213
103213
103213
103213
103213
103213
103212
103211
103209
103207
103204
103202
103200
103198
103197
103195
103194
103193
103193
103192
103191
103191
103191
103190
103190
103190
103189
103189
103189
103189
103189
103188
103188
103188
103188
103188
103188
103187
103187
103187
103187
103187
103187
103187
103187
103187
103187
103186
103186
103186
103186
103186
103186
103186
103186
103186
103186
103186
103186
103186
103186
103185
103185
103185
103185
103185
103185
103185
103185
103185
103185
103185
103185
103185
103185
103185
103185
103185
103185
103185
103185
103184
103184
103184
103184
103184
103184
103184
103184
103184
103184
103184
103184
103184
103184
103184
103184
103184
103184
103184
103184
103184
103184
103184
103184
)
;

boundaryField
{
    boundary
    {
        type            empty;
    }
    inlet
    {
        type            zeroGradient;
    }
    outlet
    {
        type            waveTransmissive;
        gamma           1.4;
        value           nonuniform 0();
    }
    procBoundary1to0
    {
        type            processor;
        value           uniform 103184;
    }
    procBoundary1to3
    {
        type            processor;
        value           uniform 103214;
    }
}


// ************************************************************************* //
