/*--------------------------------*- C++ -*----------------------------------*\
  =========                 |
  \\      /  F ield         | OpenFOAM: The Open Source CFD Toolbox
   \\    /   O peration     | Website:  https://openfoam.org
    \\  /    A nd           | Version:  7
     \\/     M anipulation  |
\*---------------------------------------------------------------------------*/
FoamFile
{
    version     2.0;
    format      ascii;
    class       volScalarField;
    location    "0.00037";
    object      H;
}
// * * * * * * * * * * * * * * * * * * * * * * * * * * * * * * * * * * * * * //

dimensions      [0 0 0 0 0 0 0];

internalField   nonuniform List<scalar> 
500
(
1.48712e-41
2.01643e-41
2.13297e-41
2.16086e-41
2.17005e-41
2.17573e-41
2.18132e-41
2.18776e-41
2.19547e-41
2.20484e-41
2.21627e-41
2.23017e-41
2.24703e-41
2.2673e-41
2.29144e-41
2.31988e-41
2.35296e-41
2.39095e-41
2.43398e-41
2.48201e-41
2.53484e-41
2.59207e-41
2.6531e-41
2.71716e-41
2.7833e-41
2.85045e-41
2.91748e-41
2.98324e-41
3.04663e-41
3.10667e-41
3.16254e-41
3.21361e-41
3.25947e-41
3.29995e-41
3.33506e-41
3.36501e-41
3.39012e-41
3.41083e-41
3.42765e-41
3.4411e-41
3.45168e-41
3.45988e-41
3.46615e-41
3.47087e-41
3.47438e-41
3.47695e-41
3.47881e-41
3.48014e-41
3.48108e-41
3.48173e-41
3.48218e-41
3.48249e-41
3.4827e-41
3.48285e-41
3.48295e-41
3.48302e-41
3.48306e-41
3.4831e-41
3.48313e-41
3.48316e-41
3.48318e-41
3.4832e-41
3.48322e-41
3.48324e-41
3.48326e-41
3.48329e-41
3.48331e-41
3.48334e-41
3.48336e-41
3.48339e-41
3.48342e-41
3.48345e-41
3.48349e-41
3.48352e-41
3.48356e-41
3.4836e-41
3.48364e-41
3.48368e-41
3.48372e-41
3.48377e-41
3.48382e-41
3.48387e-41
3.48392e-41
3.48398e-41
3.48403e-41
3.48409e-41
3.48416e-41
3.48422e-41
3.48429e-41
3.48436e-41
3.48444e-41
3.48452e-41
3.4846e-41
3.48468e-41
3.48477e-41
3.48486e-41
3.48495e-41
3.48505e-41
3.48515e-41
3.48525e-41
3.48536e-41
3.48547e-41
3.48558e-41
3.4857e-41
3.48582e-41
3.48595e-41
3.48608e-41
3.48621e-41
3.48635e-41
3.48649e-41
3.48664e-41
3.48679e-41
3.48694e-41
3.4871e-41
3.48726e-41
3.48743e-41
3.4876e-41
3.48778e-41
3.48796e-41
3.48814e-41
3.48833e-41
3.48852e-41
3.48871e-41
3.48891e-41
3.48912e-41
3.48934e-41
3.48952e-41
3.48973e-41
3.48994e-41
3.49016e-41
3.49037e-41
3.49059e-41
3.49082e-41
3.49104e-41
3.49126e-41
3.49148e-41
3.4917e-41
3.49192e-41
3.49215e-41
3.49237e-41
3.4926e-41
3.49282e-41
3.49306e-41
3.49329e-41
3.49353e-41
3.49378e-41
3.49403e-41
3.4943e-41
3.49456e-41
3.49483e-41
3.49511e-41
3.49539e-41
3.49567e-41
3.49596e-41
3.49624e-41
3.49652e-41
3.49679e-41
3.49706e-41
3.49733e-41
3.49758e-41
3.49783e-41
3.49807e-41
3.4983e-41
3.49852e-41
3.49872e-41
3.49892e-41
3.49911e-41
3.49928e-41
3.49945e-41
3.4996e-41
3.49973e-41
3.49985e-41
3.49996e-41
3.50005e-41
3.50013e-41
3.50019e-41
3.50023e-41
3.50025e-41
3.50025e-41
3.50023e-41
3.50018e-41
3.50011e-41
3.50002e-41
3.49991e-41
3.49976e-41
3.49959e-41
3.49939e-41
3.49916e-41
3.4989e-41
3.4986e-41
3.49827e-41
3.49791e-41
3.49751e-41
3.49707e-41
3.4966e-41
3.49608e-41
3.49552e-41
3.49492e-41
3.49427e-41
3.49358e-41
3.49285e-41
3.49206e-41
3.49123e-41
3.49035e-41
3.48942e-41
3.48843e-41
3.48739e-41
3.4863e-41
3.48515e-41
3.48395e-41
3.48269e-41
3.48137e-41
3.48e-41
3.47857e-41
3.47707e-41
3.47552e-41
3.47392e-41
3.47232e-41
3.47094e-41
3.47081e-41
3.47666e-41
3.51007e-41
3.66837e-41
4.38576e-41
7.57847e-41
2.16111e-40
8.25956e-40
3.44707e-39
1.45883e-38
6.1419e-38
2.56069e-37
1.05605e-36
4.30683e-36
1.73676e-35
6.92504e-35
2.7303e-34
1.06446e-33
4.10412e-33
1.56512e-32
5.90482e-32
2.20462e-31
8.14913e-31
2.98399e-30
1.08326e-29
3.9029e-29
1.3976e-28
4.98367e-28
1.77411e-27
6.32499e-27
2.26712e-26
8.20783e-26
2.99553e-25
1.11771e-24
4.26848e-24
1.67257e-23
6.73113e-23
2.77974e-22
1.17513e-21
5.0687e-21
2.22289e-20
9.88074e-20
4.44086e-19
2.01523e-18
9.23052e-18
4.27158e-17
2.00209e-16
9.54393e-16
4.65521e-15
2.34109e-14
1.22388e-13
6.80256e-13
4.399e-12
3.788e-11
3.6115e-10
3.35901e-09
3.153e-08
2.87725e-07
2.40657e-06
1.64813e-05
7.87423e-05
0.000234144
0.000483763
0.000808455
0.00117115
0.00150507
0.00174805
0.00188195
0.00192635
0.00190825
0.00185587
0.00178669
0.00171137
0.00163589
0.00156335
0.00149517
0.00143183
0.00137331
0.00131935
0.0012696
0.00122366
0.00118115
0.00114174
0.00110509
0.00107093
0.00103901
0.00100911
0.000981041
0.000954636
0.000929747
0.000906243
0.000884008
0.00086294
0.000843533
0.000825482
0.000808185
0.000791593
0.000775665
0.000760359
0.000745639
0.00073147
0.000717821
0.000704663
0.000691969
0.000679713
0.000667873
0.000656427
0.000645355
0.000634639
0.000624261
0.000614206
0.000604458
0.000595002
0.000585826
0.000576918
0.000568265
0.000559857
0.000551684
0.000543735
0.000536002
0.000528476
0.000521149
0.000514014
0.000507062
0.000500288
0.000493685
0.000487247
0.000480967
0.000474841
0.000468863
0.000463029
0.000457333
0.000451771
0.000446339
0.000441033
0.000435849
0.000430783
0.000425832
0.000420992
0.000416261
0.000411635
0.000407111
0.000402687
0.00039836
0.000394128
0.000389988
0.000385939
0.000381977
0.000378101
0.00037431
0.000370602
0.000366974
0.000363425
0.000359953
0.000356555
0.000353227
0.000349964
0.000346742
0.000343571
0.000340455
0.000337396
0.000334395
0.000331449
0.000328559
0.000325721
0.000322934
0.000320195
0.000317502
0.000314853
0.000312245
0.000309677
0.000307146
0.00030465
0.000302186
0.000299753
0.000297348
0.000294969
0.000292613
0.000290279
0.000287964
0.000285665
0.000283381
0.000281109
0.000278847
0.000276592
0.000274342
0.000272095
0.000269848
0.000267601
0.00026535
0.000263093
0.000260829
0.000258555
0.000256271
0.000253973
0.000251662
0.000249335
0.000246991
0.000244629
0.000242248
0.000239847
0.000237426
0.000234983
0.000232519
0.000230034
0.000227526
0.000224997
0.000222446
0.000219874
0.000217281
0.000214668
0.000212035
0.000209384
0.000206715
0.00020403
0.000201329
0.000198614
0.000195887
0.000193149
0.000190401
0.000187645
0.000184884
0.000182118
0.00017935
0.000176582
0.000173815
0.000171053
0.000168297
0.000165549
0.000162812
0.000160088
0.00015738
0.000154689
0.000152019
0.000149372
0.000146751
0.000144157
0.000141594
0.000139063
0.000136568
0.000134111
0.000131693
0.000129318
0.000126988
0.000124704
0.000122468
0.000120284
0.000118151
0.000116073
0.00011405
0.000112083
0.000110175
0.000108325
0.000106535
0.000104806
0.000103137
0.00010153
9.99848e-05
9.85007e-05
9.70779e-05
9.5716e-05
9.44147e-05
9.31732e-05
9.19909e-05
9.08668e-05
8.97999e-05
8.87893e-05
8.78338e-05
8.69322e-05
8.60835e-05
8.52867e-05
8.45411e-05
8.3846e-05
8.32017e-05
8.26089e-05
8.20698e-05
8.15881e-05
8.11702e-05
8.08264e-05
8.05721e-05
8.04298e-05
)
;

boundaryField
{
    boundary
    {
        type            empty;
    }
    inlet
    {
        type            fixedValue;
        value           uniform 0;
    }
    outlet
    {
        type            zeroGradient;
    }
}


// ************************************************************************* //
