/*--------------------------------*- C++ -*----------------------------------*\
  =========                 |
  \\      /  F ield         | OpenFOAM: The Open Source CFD Toolbox
   \\    /   O peration     | Website:  https://openfoam.org
    \\  /    A nd           | Version:  7
     \\/     M anipulation  |
\*---------------------------------------------------------------------------*/
FoamFile
{
    version     2.0;
    format      ascii;
    class       volScalarField;
    location    "0.00037";
    object      H2O;
}
// * * * * * * * * * * * * * * * * * * * * * * * * * * * * * * * * * * * * * //

dimensions      [0 0 0 0 0 0 0];

internalField   nonuniform List<scalar> 
500
(
7.90647e-48
2.28717e-47
4.12009e-47
6.18439e-47
8.41055e-47
1.07538e-46
1.31865e-46
1.56937e-46
1.82692e-46
2.09138e-46
2.36333e-46
2.64374e-46
2.93385e-46
3.23499e-46
3.54849e-46
3.87549e-46
4.21675e-46
4.57252e-46
4.94233e-46
5.32492e-46
5.71812e-46
6.11889e-46
6.5234e-46
6.92712e-46
7.32513e-46
7.7123e-46
8.08363e-46
8.43453e-46
8.76107e-46
9.0602e-46
9.32984e-46
9.56899e-46
9.77765e-46
9.95675e-46
1.0108e-45
1.02336e-45
1.03363e-45
1.04188e-45
1.04842e-45
1.05351e-45
1.05742e-45
1.06037e-45
1.06257e-45
1.06418e-45
1.06535e-45
1.06618e-45
1.06676e-45
1.06717e-45
1.06744e-45
1.06763e-45
1.06776e-45
1.06784e-45
1.06789e-45
1.06793e-45
1.06795e-45
1.06796e-45
1.06797e-45
1.06798e-45
1.06798e-45
1.06799e-45
1.06799e-45
1.06799e-45
1.068e-45
1.068e-45
1.068e-45
1.06801e-45
1.06801e-45
1.06802e-45
1.06802e-45
1.06803e-45
1.06803e-45
1.06804e-45
1.06805e-45
1.06805e-45
1.06806e-45
1.06807e-45
1.06808e-45
1.06809e-45
1.0681e-45
1.06812e-45
1.06813e-45
1.06814e-45
1.06816e-45
1.06817e-45
1.06819e-45
1.06821e-45
1.06822e-45
1.06824e-45
1.06826e-45
1.06828e-45
1.06831e-45
1.06833e-45
1.06835e-45
1.06838e-45
1.0684e-45
1.06843e-45
1.06846e-45
1.06849e-45
1.06852e-45
1.06856e-45
1.06859e-45
1.06862e-45
1.06866e-45
1.0687e-45
1.06874e-45
1.06878e-45
1.06882e-45
1.06887e-45
1.06891e-45
1.06896e-45
1.069e-45
1.06905e-45
1.06911e-45
1.06916e-45
1.06921e-45
1.06927e-45
1.06932e-45
1.06938e-45
1.06944e-45
1.06951e-45
1.06957e-45
1.06964e-45
1.0697e-45
1.06968e-45
1.06896e-45
1.0674e-45
1.06901e-45
1.07011e-45
1.07073e-45
1.07102e-45
1.07114e-45
1.07117e-45
1.07114e-45
1.07108e-45
1.07098e-45
1.07085e-45
1.07069e-45
1.07051e-45
1.07031e-45
1.0701e-45
1.0699e-45
1.06971e-45
1.06955e-45
1.06943e-45
1.06935e-45
1.06933e-45
1.06937e-45
1.06947e-45
1.06962e-45
1.06982e-45
1.07006e-45
1.07032e-45
1.0706e-45
1.07089e-45
1.07118e-45
1.07145e-45
1.07171e-45
1.07194e-45
1.07216e-45
1.07235e-45
1.07253e-45
1.07268e-45
1.07281e-45
1.07293e-45
1.07303e-45
1.07312e-45
1.0732e-45
1.07327e-45
1.07334e-45
1.07339e-45
1.07344e-45
1.07348e-45
1.07351e-45
1.07354e-45
1.07356e-45
1.07357e-45
1.07358e-45
1.07357e-45
1.07357e-45
1.07355e-45
1.07352e-45
1.07349e-45
1.07344e-45
1.07339e-45
1.07332e-45
1.07325e-45
1.07316e-45
1.07307e-45
1.07296e-45
1.07284e-45
1.0727e-45
1.07255e-45
1.07239e-45
1.07221e-45
1.07202e-45
1.07182e-45
1.07159e-45
1.07135e-45
1.0711e-45
1.07083e-45
1.07054e-45
1.07023e-45
1.0699e-45
1.06955e-45
1.06919e-45
1.0688e-45
1.0684e-45
1.068e-45
1.0677e-45
1.068e-45
1.07161e-45
1.09261e-45
1.20398e-45
1.78102e-45
4.73841e-45
1.97762e-44
9.57282e-44
4.77149e-43
2.38391e-42
1.18869e-41
5.91897e-41
2.9486e-40
1.47288e-39
7.3955e-39
3.74154e-38
1.91117e-37
9.86989e-37
5.15584e-36
2.72293e-35
1.45175e-34
7.79683e-34
4.2071e-33
2.27451e-32
1.2288e-31
6.6178e-31
3.54552e-30
1.88636e-29
9.95235e-29
5.20103e-28
2.68982e-27
1.37569e-26
6.9541e-26
3.47293e-25
1.71291e-24
8.34113e-24
4.00898e-23
1.90113e-22
8.89179e-22
4.10037e-21
1.86435e-20
8.36564e-20
3.77255e-19
1.66959e-18
7.28362e-18
3.14247e-17
1.342e-16
5.67641e-16
2.3797e-15
9.89479e-15
4.08365e-14
1.67408e-13
6.82202e-13
2.76553e-12
1.11602e-11
4.48618e-11
1.79741e-10
7.1815e-10
2.86272e-09
1.13897e-08
4.52445e-08
1.79494e-07
7.11248e-07
2.81484e-06
1.11198e-05
4.37621e-05
0.000170578
0.000647818
0.00229937
0.0070225
0.0168994
0.0315959
0.0497804
0.0717501
0.0971326
0.12286
0.144938
0.161248
0.175146
0.183158
0.188546
0.192241
0.194866
0.196819
0.198346
0.199598
0.200668
0.201613
0.202468
0.203256
0.203991
0.204683
0.205338
0.205961
0.206556
0.207125
0.20767
0.208194
0.208698
0.209183
0.209651
0.210102
0.210537
0.210943
0.211331
0.211709
0.212076
0.212435
0.212785
0.213126
0.213459
0.213785
0.214103
0.214414
0.214719
0.215017
0.215309
0.215594
0.215874
0.216149
0.216418
0.216682
0.216941
0.217195
0.217445
0.21769
0.217931
0.218168
0.2184
0.218629
0.218854
0.219076
0.219294
0.219508
0.21972
0.219928
0.220133
0.220336
0.220536
0.220733
0.220927
0.221119
0.221309
0.221497
0.221682
0.221866
0.222048
0.222228
0.222407
0.222584
0.22276
0.222934
0.223108
0.223281
0.223453
0.223624
0.223795
0.223966
0.224137
0.224308
0.224479
0.224651
0.224824
0.224998
0.225176
0.225358
0.225548
0.225736
0.225911
0.226086
0.226262
0.22644
0.226619
0.2268
0.226983
0.227168
0.227356
0.227545
0.227737
0.227931
0.228127
0.228325
0.228525
0.228727
0.228931
0.229136
0.229343
0.229551
0.22976
0.22997
0.230181
0.230392
0.230603
0.230815
0.231026
0.231236
0.231446
0.231655
0.231863
0.23207
0.232274
0.232477
0.232678
0.232876
0.233072
0.233265
0.233456
0.233643
0.233828
0.234009
0.234188
0.234363
0.234535
0.234703
0.234869
0.235031
0.23519
0.235346
0.235499
0.235649
0.235796
0.235941
0.236082
0.236221
0.236358
0.236492
0.236623
0.236753
0.23688
0.237005
0.237127
0.237248
0.237366
0.237483
0.237597
0.237709
0.237818
0.237926
0.238031
0.238134
0.238234
0.238332
0.238428
0.23852
0.23861
0.238698
0.238782
0.238863
0.238942
0.239017
0.23909
0.239159
0.239225
0.239288
0.239348
0.239405
0.239459
0.23951
0.239557
0.239602
0.239644
0.239682
0.239719
0.239752
0.239783
0.239812
0.239838
0.239862
0.239884
0.239905
0.239923
0.23994
0.239955
0.239968
0.239981
0.239992
0.240001
0.24001
0.240018
0.240025
0.240031
0.240037
0.240042
0.240046
0.24005
0.240053
0.240055
0.240057
0.240058
0.240059
0.240059
)
;

boundaryField
{
    boundary
    {
        type            empty;
    }
    inlet
    {
        type            fixedValue;
        value           uniform 0;
    }
    outlet
    {
        type            zeroGradient;
    }
}


// ************************************************************************* //
