/*--------------------------------*- C++ -*----------------------------------*\
  =========                 |
  \\      /  F ield         | OpenFOAM: The Open Source CFD Toolbox
   \\    /   O peration     | Website:  https://openfoam.org
    \\  /    A nd           | Version:  7
     \\/     M anipulation  |
\*---------------------------------------------------------------------------*/
FoamFile
{
    version     2.0;
    format      ascii;
    class       volScalarField;
    location    "0.00037";
    object      HO2;
}
// * * * * * * * * * * * * * * * * * * * * * * * * * * * * * * * * * * * * * //

dimensions      [0 0 0 0 0 0 0];

internalField   nonuniform List<scalar> 
500
(
5.60166e-38
1.27589e-37
1.9957e-37
2.71801e-37
3.44297e-37
4.17132e-37
4.90415e-37
5.64296e-37
6.38962e-37
7.14646e-37
7.91619e-37
8.70182e-37
9.50657e-37
1.03336e-36
1.11858e-36
1.20653e-36
1.29733e-36
1.39095e-36
1.48721e-36
1.5857e-36
1.68583e-36
1.78681e-36
1.88765e-36
1.98727e-36
2.08448e-36
2.17811e-36
2.26703e-36
2.35025e-36
2.42697e-36
2.49658e-36
2.55876e-36
2.61341e-36
2.66067e-36
2.70087e-36
2.73452e-36
2.76223e-36
2.78469e-36
2.8026e-36
2.81666e-36
2.82752e-36
2.8358e-36
2.842e-36
2.84658e-36
2.84991e-36
2.85231e-36
2.854e-36
2.85518e-36
2.856e-36
2.85655e-36
2.85692e-36
2.85717e-36
2.85733e-36
2.85743e-36
2.8575e-36
2.85755e-36
2.85758e-36
2.8576e-36
2.85761e-36
2.85762e-36
2.85763e-36
2.85764e-36
2.85764e-36
2.85765e-36
2.85766e-36
2.85767e-36
2.85768e-36
2.85769e-36
2.8577e-36
2.85771e-36
2.85773e-36
2.85774e-36
2.85776e-36
2.85777e-36
2.85779e-36
2.85781e-36
2.85783e-36
2.85785e-36
2.85788e-36
2.8579e-36
2.85793e-36
2.85796e-36
2.85799e-36
2.85802e-36
2.85805e-36
2.85809e-36
2.85812e-36
2.85816e-36
2.8582e-36
2.85825e-36
2.85829e-36
2.85834e-36
2.85839e-36
2.85844e-36
2.85849e-36
2.85855e-36
2.85861e-36
2.85867e-36
2.85873e-36
2.8588e-36
2.85887e-36
2.85894e-36
2.85901e-36
2.85909e-36
2.85917e-36
2.85925e-36
2.85934e-36
2.85943e-36
2.85952e-36
2.85962e-36
2.85971e-36
2.85981e-36
2.85992e-36
2.86002e-36
2.86013e-36
2.86025e-36
2.86036e-36
2.86048e-36
2.8606e-36
2.86073e-36
2.86086e-36
2.86099e-36
2.86111e-36
2.86115e-36
2.8607e-36
2.85776e-36
2.85166e-36
2.85436e-36
2.85715e-36
2.8595e-36
2.86109e-36
2.86191e-36
2.86207e-36
2.86173e-36
2.86104e-36
2.86012e-36
2.85907e-36
2.85799e-36
2.85696e-36
2.85603e-36
2.85528e-36
2.85474e-36
2.85443e-36
2.85437e-36
2.85453e-36
2.85491e-36
2.85547e-36
2.85619e-36
2.85702e-36
2.85793e-36
2.8589e-36
2.85988e-36
2.86086e-36
2.86181e-36
2.86271e-36
2.86355e-36
2.86432e-36
2.86501e-36
2.86563e-36
2.86617e-36
2.86664e-36
2.86705e-36
2.8674e-36
2.86771e-36
2.86797e-36
2.8682e-36
2.86839e-36
2.86857e-36
2.86872e-36
2.86885e-36
2.86896e-36
2.86906e-36
2.86915e-36
2.86922e-36
2.86928e-36
2.86932e-36
2.86935e-36
2.86937e-36
2.86937e-36
2.86936e-36
2.86932e-36
2.86928e-36
2.86921e-36
2.86912e-36
2.86902e-36
2.86889e-36
2.86874e-36
2.86857e-36
2.86838e-36
2.86816e-36
2.86791e-36
2.86764e-36
2.86734e-36
2.86701e-36
2.86666e-36
2.86627e-36
2.86585e-36
2.8654e-36
2.86492e-36
2.8644e-36
2.86385e-36
2.86326e-36
2.86263e-36
2.86196e-36
2.86126e-36
2.86051e-36
2.85973e-36
2.8589e-36
2.85803e-36
2.85712e-36
2.85616e-36
2.85516e-36
2.85411e-36
2.85302e-36
2.85188e-36
2.8507e-36
2.84946e-36
2.84818e-36
2.84685e-36
2.84548e-36
2.84408e-36
2.84275e-36
2.8419e-36
2.84345e-36
2.85632e-36
2.92106e-36
3.22083e-36
4.57501e-36
1.0616e-35
3.73135e-35
1.54346e-34
6.63757e-34
2.86818e-33
1.23666e-32
5.31946e-32
2.2866e-31
9.84543e-31
4.25722e-30
1.85347e-29
8.14313e-29
3.6161e-28
1.62415e-27
7.37535e-27
3.38144e-26
1.56181e-25
7.24773e-25
3.36981e-24
1.56574e-23
7.25507e-23
3.34789e-22
1.53746e-21
7.0245e-21
3.23358e-20
1.46731e-19
6.5874e-19
2.93527e-18
1.29916e-17
5.7143e-17
2.49895e-16
1.08709e-15
4.70671e-15
2.02923e-14
8.71598e-14
3.73134e-13
1.59276e-12
6.78143e-12
2.8808e-11
1.22134e-10
5.16884e-10
2.184e-09
9.2142e-09
3.88096e-08
1.63034e-07
6.80917e-07
2.80862e-06
1.12986e-05
4.29514e-05
0.000143659
0.000358819
0.000516189
0.000486757
0.000381605
0.000274433
0.000192756
0.000134885
9.416e-05
6.62165e-05
4.79942e-05
3.39881e-05
2.63532e-05
2.14068e-05
1.81039e-05
1.5813e-05
1.41545e-05
1.29019e-05
1.19183e-05
1.11197e-05
1.04533e-05
9.88491e-06
9.39153e-06
8.95736e-06
8.57105e-06
8.22426e-06
7.91066e-06
7.62532e-06
7.36435e-06
7.12458e-06
6.90343e-06
6.69874e-06
6.50873e-06
6.33187e-06
6.16691e-06
6.01285e-06
5.87315e-06
5.74348e-06
5.62056e-06
5.50387e-06
5.39294e-06
5.28735e-06
5.18673e-06
5.09072e-06
4.99903e-06
4.91136e-06
4.82745e-06
4.74708e-06
4.67002e-06
4.59608e-06
4.52507e-06
4.45683e-06
4.3912e-06
4.32803e-06
4.26719e-06
4.20855e-06
4.15201e-06
4.09745e-06
4.04477e-06
3.99388e-06
3.94469e-06
3.89711e-06
3.85108e-06
3.80652e-06
3.76336e-06
3.72154e-06
3.68099e-06
3.64165e-06
3.60349e-06
3.56643e-06
3.53044e-06
3.49546e-06
3.46145e-06
3.42837e-06
3.39618e-06
3.36483e-06
3.33429e-06
3.30452e-06
3.27549e-06
3.24715e-06
3.21948e-06
3.19245e-06
3.16601e-06
3.14014e-06
3.1148e-06
3.08997e-06
3.06561e-06
3.04169e-06
3.01818e-06
2.99505e-06
2.97227e-06
2.9498e-06
2.9276e-06
2.90565e-06
2.88389e-06
2.86226e-06
2.84069e-06
2.81904e-06
2.79711e-06
2.77455e-06
2.75223e-06
2.73138e-06
2.71062e-06
2.68988e-06
2.66914e-06
2.64837e-06
2.62754e-06
2.60662e-06
2.58558e-06
2.5644e-06
2.54306e-06
2.52152e-06
2.49978e-06
2.47781e-06
2.4556e-06
2.43314e-06
2.41042e-06
2.38745e-06
2.36422e-06
2.34074e-06
2.31702e-06
2.29307e-06
2.2689e-06
2.24453e-06
2.21999e-06
2.19529e-06
2.17048e-06
2.14558e-06
2.12063e-06
2.09566e-06
2.07071e-06
2.04583e-06
2.02107e-06
1.99646e-06
1.97207e-06
1.94793e-06
1.92411e-06
1.90066e-06
1.87762e-06
1.85506e-06
1.83304e-06
1.81159e-06
1.79078e-06
1.77065e-06
1.75126e-06
1.73266e-06
1.71488e-06
1.69796e-06
1.68195e-06
1.66688e-06
1.65278e-06
1.63967e-06
1.62757e-06
1.61649e-06
1.60644e-06
1.59743e-06
1.58945e-06
1.5825e-06
1.57655e-06
1.5716e-06
1.5676e-06
1.56454e-06
1.56237e-06
1.56106e-06
1.56055e-06
1.56081e-06
1.56177e-06
1.5634e-06
1.56562e-06
1.56838e-06
1.57163e-06
1.5753e-06
1.57935e-06
1.5837e-06
1.58832e-06
1.59314e-06
1.59813e-06
1.60323e-06
1.6084e-06
1.6136e-06
1.61881e-06
1.62398e-06
1.6291e-06
1.63414e-06
1.63908e-06
1.64391e-06
1.64861e-06
1.65318e-06
1.65761e-06
1.66189e-06
1.66603e-06
1.67003e-06
1.67388e-06
1.67759e-06
1.68116e-06
1.6846e-06
1.68791e-06
1.69109e-06
1.69416e-06
1.69711e-06
1.69995e-06
1.70268e-06
1.70531e-06
1.70784e-06
1.71027e-06
1.71261e-06
1.71486e-06
1.71701e-06
1.71908e-06
1.72106e-06
1.72296e-06
1.72477e-06
1.72649e-06
1.72813e-06
1.72969e-06
1.73117e-06
1.73256e-06
1.73387e-06
1.7351e-06
1.73624e-06
1.73727e-06
1.7382e-06
1.73896e-06
1.73947e-06
)
;

boundaryField
{
    boundary
    {
        type            empty;
    }
    inlet
    {
        type            fixedValue;
        value           uniform 0;
    }
    outlet
    {
        type            zeroGradient;
    }
}


// ************************************************************************* //
