/*--------------------------------*- C++ -*----------------------------------*\
  =========                 |
  \\      /  F ield         | OpenFOAM: The Open Source CFD Toolbox
   \\    /   O peration     | Website:  https://openfoam.org
    \\  /    A nd           | Version:  7
     \\/     M anipulation  |
\*---------------------------------------------------------------------------*/
FoamFile
{
    version     2.0;
    format      ascii;
    class       volScalarField;
    location    "0.00037";
    object      N2;
}
// * * * * * * * * * * * * * * * * * * * * * * * * * * * * * * * * * * * * * //

dimensions      [0 0 0 0 0 0 0];

internalField   nonuniform List<scalar> 
500
(
0.745219
0.745219
0.745219
0.745219
0.745219
0.745219
0.745219
0.745219
0.745219
0.745219
0.745219
0.745219
0.745219
0.745219
0.745219
0.745219
0.745219
0.745219
0.745219
0.745219
0.745219
0.745219
0.745219
0.745219
0.74522
0.74522
0.74522
0.74522
0.74522
0.74522
0.74522
0.74522
0.74522
0.74522
0.74522
0.74522
0.74522
0.74522
0.74522
0.74522
0.74522
0.74522
0.74522
0.74522
0.74522
0.74522
0.74522
0.74522
0.74522
0.74522
0.74522
0.74522
0.74522
0.74522
0.74522
0.74522
0.74522
0.74522
0.74522
0.74522
0.74522
0.74522
0.74522
0.74522
0.74522
0.74522
0.74522
0.74522
0.74522
0.74522
0.74522
0.74522
0.74522
0.74522
0.74522
0.74522
0.74522
0.74522
0.74522
0.74522
0.74522
0.74522
0.74522
0.74522
0.74522
0.74522
0.74522
0.74522
0.74522
0.74522
0.74522
0.74522
0.74522
0.74522
0.74522
0.74522
0.74522
0.74522
0.74522
0.74522
0.74522
0.74522
0.74522
0.74522
0.74522
0.74522
0.74522
0.74522
0.74522
0.74522
0.74522
0.74522
0.74522
0.74522
0.74522
0.74522
0.74522
0.74522
0.74522
0.74522
0.74522
0.74522
0.74522
0.74522
0.74522
0.74522
0.74522
0.74522
0.74522
0.74522
0.74522
0.74522
0.74522
0.74522
0.74522
0.74522
0.74522
0.74522
0.74522
0.74522
0.74522
0.74522
0.74522
0.74522
0.74522
0.74522
0.74522
0.74522
0.74522
0.74522
0.74522
0.74522
0.74522
0.74522
0.74522
0.74522
0.74522
0.74522
0.74522
0.74522
0.74522
0.74522
0.74522
0.74522
0.74522
0.74522
0.74522
0.74522
0.74522
0.74522
0.74522
0.74522
0.74522
0.74522
0.74522
0.74522
0.74522
0.74522
0.74522
0.74522
0.74522
0.74522
0.74522
0.74522
0.74522
0.74522
0.74522
0.74522
0.74522
0.74522
0.74522
0.74522
0.74522
0.74522
0.74522
0.74522
0.74522
0.74522
0.74522
0.74522
0.74522
0.74522
0.74522
0.74522
0.74522
0.74522
0.74522
0.74522
0.74522
0.74522
0.74522
0.74522
0.74522
0.74522
0.74522
0.74522
0.74522
0.74522
0.74522
0.74522
0.74522
0.74522
0.74522
0.74522
0.74522
0.74522
0.74522
0.74522
0.74522
0.74522
0.74522
0.74522
0.74522
0.74522
0.74522
0.74522
0.74522
0.74522
0.74522
0.74522
0.74522
0.74522
0.74522
0.74522
0.74522
0.74522
0.74522
0.74522
0.74522
0.74522
0.74522
0.74522
0.74522
0.74522
0.74522
0.74522
0.74522
0.74522
0.74522
0.74522
0.74522
0.74522
0.74522
0.74522
0.74522
0.74522
0.74522
0.74522
0.745221
0.745222
0.745226
0.745232
0.745246
0.745273
0.745324
0.745414
0.74554
0.745627
0.74552
0.745204
0.744749
0.744185
0.743726
0.743618
0.743852
0.744191
0.744362
0.744884
0.745056
0.745175
0.745249
0.745294
0.74532
0.745334
0.745342
0.745344
0.745344
0.745343
0.74534
0.745338
0.745334
0.745331
0.745328
0.745325
0.745321
0.745318
0.745315
0.745313
0.74531
0.745308
0.745305
0.745303
0.745301
0.745299
0.745297
0.745295
0.745293
0.745291
0.745289
0.745288
0.745286
0.745285
0.745283
0.745282
0.74528
0.745279
0.745278
0.745276
0.745275
0.745274
0.745273
0.745272
0.745271
0.745269
0.745268
0.745267
0.745266
0.745265
0.745263
0.745262
0.745261
0.745259
0.745258
0.745256
0.745255
0.745253
0.745251
0.745249
0.745247
0.745245
0.745243
0.745241
0.745238
0.745235
0.745233
0.74523
0.745226
0.745223
0.74522
0.745216
0.745213
0.745209
0.745205
0.745201
0.745197
0.745193
0.745189
0.745185
0.74518
0.745176
0.745171
0.745167
0.745162
0.745157
0.745151
0.745144
0.74514
0.745139
0.745139
0.745139
0.745139
0.745139
0.745139
0.74514
0.74514
0.745141
0.745142
0.745143
0.745145
0.745147
0.74515
0.745154
0.745159
0.745165
0.745171
0.745179
0.745188
0.745198
0.745209
0.745221
0.745235
0.745249
0.745264
0.74528
0.745297
0.745315
0.745333
0.745352
0.745372
0.745392
0.745412
0.745432
0.745452
0.745472
0.745491
0.74551
0.745529
0.745546
0.745563
0.745578
0.745592
0.745605
0.745616
0.745625
0.745632
0.745638
0.745641
0.745643
0.745642
0.745639
0.745634
0.745627
0.745618
0.745606
0.745593
0.745577
0.74556
0.745541
0.74552
0.745498
0.745475
0.74545
0.745425
0.745399
0.745372
0.745345
0.745317
0.74529
0.745263
0.745236
0.74521
0.745184
0.74516
0.745136
0.745114
0.745092
0.745073
0.745054
0.745037
0.745022
0.745009
0.744997
0.744986
0.744978
0.74497
0.744965
0.744961
0.744958
0.744957
0.744958
0.744959
0.744962
0.744965
0.74497
0.744975
0.744982
0.744989
0.744996
0.745004
0.745013
0.745021
0.74503
0.745039
0.745048
0.745057
0.745067
0.745076
0.745084
0.745093
0.745101
0.745109
0.745117
0.745124
0.745131
0.745138
0.745143
0.745149
0.745153
0.745156
0.745158
)
;

boundaryField
{
    boundary
    {
        type            empty;
    }
    inlet
    {
        type            fixedValue;
        value           uniform 0.74522;
    }
    outlet
    {
        type            zeroGradient;
    }
}


// ************************************************************************* //
