/*--------------------------------*- C++ -*----------------------------------*\
  =========                 |
  \\      /  F ield         | OpenFOAM: The Open Source CFD Toolbox
   \\    /   O peration     | Website:  https://openfoam.org
    \\  /    A nd           | Version:  7
     \\/     M anipulation  |
\*---------------------------------------------------------------------------*/
FoamFile
{
    version     2.0;
    format      ascii;
    class       surfaceScalarField;
    location    "0.00037";
    object      phi;
}
// * * * * * * * * * * * * * * * * * * * * * * * * * * * * * * * * * * * * * //

dimensions      [1 0 -1 0 0 0 0];

internalField   nonuniform List<scalar> 
499
(
6.93233e-06
6.93201e-06
6.93168e-06
6.93134e-06
6.93099e-06
6.93062e-06
6.93023e-06
6.9298e-06
6.92934e-06
6.92884e-06
6.92827e-06
6.92764e-06
6.92691e-06
6.92609e-06
6.92516e-06
6.92409e-06
6.9229e-06
6.92157e-06
6.92009e-06
6.91848e-06
6.91675e-06
6.91491e-06
6.91298e-06
6.91099e-06
6.90897e-06
6.90695e-06
6.90496e-06
6.90302e-06
6.90117e-06
6.89942e-06
6.89779e-06
6.89629e-06
6.89493e-06
6.89371e-06
6.89263e-06
6.89167e-06
6.89083e-06
6.8901e-06
6.88947e-06
6.88891e-06
6.88843e-06
6.888e-06
6.88762e-06
6.88727e-06
6.88696e-06
6.88667e-06
6.88639e-06
6.88613e-06
6.88588e-06
6.88563e-06
6.88539e-06
6.88516e-06
6.88492e-06
6.88469e-06
6.88446e-06
6.88423e-06
6.884e-06
6.88378e-06
6.88355e-06
6.88332e-06
6.88309e-06
6.88286e-06
6.88264e-06
6.88241e-06
6.88218e-06
6.88195e-06
6.88173e-06
6.8815e-06
6.88127e-06
6.88105e-06
6.88082e-06
6.88059e-06
6.88037e-06
6.88014e-06
6.87991e-06
6.87969e-06
6.87946e-06
6.87923e-06
6.87901e-06
6.87878e-06
6.87856e-06
6.87833e-06
6.8781e-06
6.87788e-06
6.87765e-06
6.87743e-06
6.8772e-06
6.87698e-06
6.87675e-06
6.87652e-06
6.8763e-06
6.87607e-06
6.87585e-06
6.87562e-06
6.8754e-06
6.87517e-06
6.87495e-06
6.87472e-06
6.87449e-06
6.87427e-06
6.87404e-06
6.87382e-06
6.87359e-06
6.87337e-06
6.87314e-06
6.87292e-06
6.87269e-06
6.87246e-06
6.87224e-06
6.87201e-06
6.87179e-06
6.87156e-06
6.87134e-06
6.87111e-06
6.87088e-06
6.87066e-06
6.87043e-06
6.8702e-06
6.86998e-06
6.86975e-06
6.86953e-06
6.8693e-06
6.86907e-06
6.86885e-06
6.86862e-06
6.86839e-06
6.86817e-06
6.86794e-06
6.86771e-06
6.86749e-06
6.86726e-06
6.86703e-06
6.86681e-06
6.86658e-06
6.86635e-06
6.86612e-06
6.8659e-06
6.86567e-06
6.86544e-06
6.86522e-06
6.86499e-06
6.86476e-06
6.86453e-06
6.86431e-06
6.86408e-06
6.86385e-06
6.86362e-06
6.8634e-06
6.86317e-06
6.86294e-06
6.86271e-06
6.86248e-06
6.86226e-06
6.86203e-06
6.8618e-06
6.86157e-06
6.86134e-06
6.86112e-06
6.86089e-06
6.86066e-06
6.86043e-06
6.86021e-06
6.85998e-06
6.85975e-06
6.85952e-06
6.8593e-06
6.85907e-06
6.85885e-06
6.85862e-06
6.8584e-06
6.85817e-06
6.85795e-06
6.85772e-06
6.8575e-06
6.85727e-06
6.85705e-06
6.85683e-06
6.85661e-06
6.85638e-06
6.85616e-06
6.85594e-06
6.85572e-06
6.8555e-06
6.85528e-06
6.85507e-06
6.85485e-06
6.85463e-06
6.85441e-06
6.8542e-06
6.85398e-06
6.85377e-06
6.85356e-06
6.85334e-06
6.85313e-06
6.85292e-06
6.85271e-06
6.8525e-06
6.85229e-06
6.85208e-06
6.85188e-06
6.85167e-06
6.85147e-06
6.85126e-06
6.85106e-06
6.85086e-06
6.85066e-06
6.85046e-06
6.85026e-06
6.85006e-06
6.84987e-06
6.84967e-06
6.84948e-06
6.84928e-06
6.84909e-06
6.8489e-06
6.84871e-06
6.84852e-06
6.84834e-06
6.84815e-06
6.84796e-06
6.84778e-06
6.8476e-06
6.84742e-06
6.84724e-06
6.84706e-06
6.84688e-06
6.8467e-06
6.84652e-06
6.84635e-06
6.84618e-06
6.846e-06
6.84583e-06
6.84566e-06
6.84549e-06
6.84532e-06
6.84516e-06
6.84499e-06
6.84483e-06
6.84466e-06
6.8445e-06
6.84434e-06
6.84418e-06
6.84402e-06
6.84386e-06
6.8437e-06
6.84354e-06
6.84339e-06
6.84323e-06
6.84308e-06
6.84293e-06
6.84277e-06
6.84262e-06
6.84247e-06
6.84232e-06
6.84217e-06
6.84202e-06
6.84188e-06
6.84173e-06
6.84159e-06
6.84144e-06
6.8413e-06
6.84115e-06
6.84101e-06
6.84087e-06
6.84073e-06
6.84059e-06
6.84045e-06
6.84031e-06
6.84017e-06
6.84005e-06
6.83995e-06
6.83994e-06
6.84021e-06
6.8413e-06
6.84482e-06
6.85512e-06
6.8822e-06
6.93762e-06
7.01039e-06
7.07145e-06
7.112e-06
7.13851e-06
7.15689e-06
7.17006e-06
7.17946e-06
7.18619e-06
7.19103e-06
7.19459e-06
7.1973e-06
7.19945e-06
7.2012e-06
7.20266e-06
7.20389e-06
7.20495e-06
7.20587e-06
7.20669e-06
7.2074e-06
7.20805e-06
7.20862e-06
7.20915e-06
7.20962e-06
7.21005e-06
7.21045e-06
7.21081e-06
7.21115e-06
7.21146e-06
7.21174e-06
7.21201e-06
7.21226e-06
7.21249e-06
7.2127e-06
7.2129e-06
7.21308e-06
7.21325e-06
7.21341e-06
7.21356e-06
7.2137e-06
7.21384e-06
7.21397e-06
7.21409e-06
7.2142e-06
7.21431e-06
7.21442e-06
7.21452e-06
7.21461e-06
7.2147e-06
7.21478e-06
7.21486e-06
7.21494e-06
7.21501e-06
7.21507e-06
7.21514e-06
7.21519e-06
7.21525e-06
7.2153e-06
7.21534e-06
7.21538e-06
7.21542e-06
7.21545e-06
7.21548e-06
7.2155e-06
7.21552e-06
7.21553e-06
7.21554e-06
7.21555e-06
7.21555e-06
7.21554e-06
7.21553e-06
7.21551e-06
7.21549e-06
7.21547e-06
7.21544e-06
7.21541e-06
7.21538e-06
7.21534e-06
7.2153e-06
7.21526e-06
7.21521e-06
7.21517e-06
7.21513e-06
7.21509e-06
7.21506e-06
7.21502e-06
7.215e-06
7.21498e-06
7.21497e-06
7.21497e-06
7.21498e-06
7.21501e-06
7.21506e-06
7.21512e-06
7.21521e-06
7.21532e-06
7.21546e-06
7.21563e-06
7.21582e-06
7.21604e-06
7.2163e-06
7.21661e-06
7.21696e-06
7.21736e-06
7.21779e-06
7.21826e-06
7.21876e-06
7.21928e-06
7.21984e-06
7.22042e-06
7.22102e-06
7.22163e-06
7.22227e-06
7.22291e-06
7.22355e-06
7.2242e-06
7.22483e-06
7.22545e-06
7.22604e-06
7.2266e-06
7.22711e-06
7.22755e-06
7.22793e-06
7.22821e-06
7.22838e-06
7.22843e-06
7.22834e-06
7.22809e-06
7.22765e-06
7.22702e-06
7.22616e-06
7.22506e-06
7.2237e-06
7.22206e-06
7.22011e-06
7.21785e-06
7.21524e-06
7.21228e-06
7.20896e-06
7.20526e-06
7.20116e-06
7.19667e-06
7.19178e-06
7.18649e-06
7.1808e-06
7.17471e-06
7.16824e-06
7.16139e-06
7.15418e-06
7.14664e-06
7.13877e-06
7.1306e-06
7.12217e-06
7.1135e-06
7.10463e-06
7.09559e-06
7.08641e-06
7.07714e-06
7.06782e-06
7.05848e-06
7.04917e-06
7.03992e-06
7.03077e-06
7.02177e-06
7.01295e-06
7.00435e-06
6.99599e-06
6.98792e-06
6.98016e-06
6.97273e-06
6.96566e-06
6.95898e-06
6.95269e-06
6.94681e-06
6.94136e-06
6.93633e-06
6.93174e-06
6.92759e-06
6.92387e-06
6.92057e-06
6.9177e-06
6.91524e-06
6.91318e-06
6.9115e-06
6.91018e-06
6.90922e-06
6.90858e-06
6.90825e-06
6.90821e-06
6.90844e-06
6.9089e-06
6.90958e-06
6.91046e-06
6.91151e-06
6.9127e-06
6.91403e-06
6.91547e-06
6.91699e-06
6.91859e-06
6.92023e-06
6.92191e-06
6.92361e-06
6.92532e-06
6.92701e-06
6.92869e-06
6.93035e-06
6.93196e-06
6.93353e-06
6.93505e-06
6.93651e-06
6.93791e-06
6.93925e-06
6.94052e-06
6.94172e-06
6.94286e-06
6.94392e-06
6.94493e-06
6.94586e-06
6.94674e-06
6.94756e-06
6.94833e-06
6.94906e-06
)
;

boundaryField
{
    boundary
    {
        type            empty;
        value           nonuniform 0();
    }
    inlet
    {
        type            calculated;
        value           uniform -6.93265e-06;
    }
    outlet
    {
        type            calculated;
        value           uniform 6.94977e-06;
    }
}


// ************************************************************************* //
