/*--------------------------------*- C++ -*----------------------------------*\
  =========                 |
  \\      /  F ield         | OpenFOAM: The Open Source CFD Toolbox
   \\    /   O peration     | Website:  https://openfoam.org
    \\  /    A nd           | Version:  7
     \\/     M anipulation  |
\*---------------------------------------------------------------------------*/
FoamFile
{
    version     2.0;
    format      ascii;
    class       volScalarField;
    location    "0.00037";
    object      rho;
}
// * * * * * * * * * * * * * * * * * * * * * * * * * * * * * * * * * * * * * //

dimensions      [1 -3 0 0 0 0 0];

internalField   nonuniform List<scalar> 
500
(
0.864979
0.864967
0.864955
0.86494
0.864924
0.864904
0.864882
0.864855
0.864823
0.864784
0.864736
0.864679
0.86461
0.864527
0.86443
0.864316
0.864186
0.864038
0.863874
0.863693
0.863499
0.863293
0.863078
0.862857
0.862635
0.862415
0.8622
0.861994
0.861799
0.861619
0.861454
0.861306
0.861175
0.861062
0.860964
0.860882
0.860813
0.860757
0.860712
0.860676
0.860648
0.860626
0.86061
0.860597
0.860588
0.860582
0.860577
0.860573
0.860571
0.860569
0.860568
0.860567
0.860567
0.860566
0.860566
0.860566
0.860566
0.860566
0.860566
0.860566
0.860566
0.860565
0.860565
0.860565
0.860565
0.860565
0.860565
0.860565
0.860565
0.860565
0.860565
0.860565
0.860565
0.860565
0.860565
0.860565
0.860565
0.860564
0.860564
0.860564
0.860564
0.860564
0.860564
0.860564
0.860564
0.860563
0.860563
0.860563
0.860563
0.860563
0.860563
0.860562
0.860562
0.860562
0.860562
0.860562
0.860561
0.860561
0.860561
0.860561
0.86056
0.86056
0.86056
0.860559
0.860559
0.860559
0.860559
0.860558
0.860558
0.860558
0.860557
0.860557
0.860556
0.860556
0.860556
0.860555
0.860555
0.860554
0.860554
0.860553
0.860553
0.860552
0.860552
0.860551
0.860551
0.86055
0.86055
0.860549
0.860549
0.860548
0.860548
0.860547
0.860547
0.860546
0.860545
0.860545
0.860544
0.860544
0.860543
0.860543
0.860542
0.860541
0.860541
0.86054
0.86054
0.860539
0.860538
0.860538
0.860537
0.860536
0.860536
0.860535
0.860534
0.860533
0.860533
0.860532
0.860531
0.860531
0.86053
0.860529
0.860529
0.860528
0.860527
0.860527
0.860526
0.860526
0.860525
0.860525
0.860525
0.860524
0.860524
0.860524
0.860523
0.860523
0.860523
0.860523
0.860523
0.860523
0.860523
0.860523
0.860523
0.860523
0.860523
0.860524
0.860524
0.860525
0.860525
0.860526
0.860526
0.860527
0.860528
0.860529
0.86053
0.860531
0.860533
0.860534
0.860536
0.860537
0.860539
0.860541
0.860543
0.860545
0.860547
0.860549
0.860552
0.860555
0.860557
0.86056
0.860563
0.860566
0.86057
0.860573
0.860577
0.860581
0.860585
0.860589
0.860593
0.860598
0.860602
0.860607
0.860612
0.860617
0.860623
0.860628
0.860634
0.86064
0.860645
0.860652
0.860658
0.860664
0.860671
0.860678
0.860685
0.860692
0.860699
0.860706
0.860714
0.860721
0.860729
0.860737
0.860745
0.860753
0.860761
0.86077
0.860778
0.860787
0.860795
0.860804
0.860813
0.860822
0.860831
0.86084
0.860849
0.860858
0.860867
0.860876
0.860886
0.860895
0.860905
0.860914
0.860924
0.860933
0.860943
0.860953
0.860963
0.860974
0.860985
0.860995
0.861005
0.861006
0.860977
0.860848
0.860405
0.859004
0.854759
0.842353
0.808443
0.730254
0.603298
0.47227
0.376257
0.313811
0.271937
0.242398
0.221351
0.206683
0.19578
0.187233
0.181036
0.176414
0.172662
0.169555
0.16693
0.164672
0.162704
0.160966
0.159418
0.158028
0.156769
0.155623
0.154574
0.153609
0.152717
0.15189
0.151121
0.150402
0.14973
0.149098
0.148505
0.147945
0.147417
0.146918
0.146459
0.146031
0.145619
0.145225
0.144846
0.144482
0.144132
0.143795
0.14347
0.143157
0.142854
0.142562
0.142279
0.142005
0.14174
0.141484
0.141234
0.140993
0.140758
0.14053
0.140309
0.140093
0.139883
0.139679
0.13948
0.139287
0.139098
0.138913
0.138733
0.138558
0.138386
0.138218
0.138054
0.137894
0.137737
0.137584
0.137433
0.137286
0.137142
0.137001
0.136862
0.136727
0.136593
0.136463
0.136335
0.136209
0.136086
0.135965
0.135847
0.13573
0.135616
0.135504
0.135394
0.135286
0.13518
0.135076
0.134974
0.134874
0.134776
0.134679
0.134584
0.13449
0.134396
0.134302
0.134211
0.134128
0.134047
0.133969
0.133892
0.133817
0.133744
0.133673
0.133604
0.133536
0.133469
0.133405
0.133341
0.133279
0.133218
0.133158
0.133098
0.13304
0.132982
0.132924
0.132867
0.132809
0.132751
0.132693
0.132633
0.132573
0.13251
0.132446
0.132379
0.13231
0.132238
0.132163
0.132084
0.132001
0.131913
0.131821
0.131724
0.131621
0.131513
0.1314
0.13128
0.131155
0.131023
0.130886
0.130742
0.130592
0.130437
0.130276
0.13011
0.129939
0.129764
0.129584
0.1294
0.129214
0.129025
0.128834
0.128642
0.128449
0.128256
0.128064
0.127874
0.127686
0.1275
0.127318
0.12714
0.126967
0.126799
0.126637
0.126482
0.126333
0.126191
0.126057
0.125931
0.125812
0.125702
0.1256
0.125506
0.125421
0.125343
0.125274
0.125213
0.125159
0.125113
0.125075
0.125043
0.125017
0.124998
0.124985
0.124977
0.124974
0.124976
0.124982
0.124991
0.125004
0.12502
0.125039
0.125059
0.125082
0.125106
0.125131
0.125157
0.125184
0.125211
0.125238
0.125265
0.125292
0.125318
0.125344
0.125369
0.125393
0.125416
0.125438
0.12546
0.12548
0.125499
0.125517
0.125534
0.125549
0.125563
0.125576
0.125588
0.125597
0.125605
0.12561
)
;

boundaryField
{
    boundary
    {
        type            empty;
    }
    inlet
    {
        type            calculated;
        value           uniform 0.864987;
    }
    outlet
    {
        type            calculated;
        value           uniform 0.12561;
    }
}


// ************************************************************************* //
