/*--------------------------------*- C++ -*----------------------------------*\
  =========                 |
  \\      /  F ield         | OpenFOAM: The Open Source CFD Toolbox
   \\    /   O peration     | Website:  https://openfoam.org
    \\  /    A nd           | Version:  7
     \\/     M anipulation  |
\*---------------------------------------------------------------------------*/
FoamFile
{
    version     2.0;
    format      ascii;
    class       volScalarField;
    location    "0.00037";
    object      T;
}
// * * * * * * * * * * * * * * * * * * * * * * * * * * * * * * * * * * * * * //

dimensions      [0 0 0 1 0 0 0];

internalField   nonuniform List<scalar> 
500
(
300.003
300.007
300.011
300.016
300.022
300.029
300.037
300.046
300.057
300.071
300.087
300.107
300.131
300.16
300.194
300.233
300.278
300.33
300.387
300.449
300.517
300.589
300.664
300.741
300.818
300.895
300.97
301.042
301.11
301.173
301.23
301.282
301.328
301.368
301.402
301.431
301.455
301.474
301.49
301.503
301.513
301.52
301.526
301.53
301.534
301.536
301.538
301.539
301.54
301.54
301.541
301.541
301.541
301.541
301.541
301.542
301.542
301.542
301.542
301.542
301.542
301.542
301.542
301.542
301.542
301.542
301.542
301.542
301.542
301.542
301.542
301.542
301.542
301.542
301.542
301.542
301.542
301.542
301.542
301.542
301.542
301.542
301.542
301.542
301.542
301.543
301.543
301.543
301.543
301.543
301.543
301.543
301.543
301.543
301.543
301.543
301.543
301.543
301.544
301.544
301.544
301.544
301.544
301.544
301.544
301.544
301.544
301.545
301.545
301.545
301.545
301.545
301.545
301.545
301.545
301.546
301.546
301.546
301.546
301.546
301.546
301.547
301.547
301.547
301.547
301.547
301.548
301.548
301.548
301.548
301.548
301.549
301.549
301.549
301.549
301.549
301.55
301.55
301.55
301.55
301.55
301.551
301.551
301.551
301.551
301.552
301.552
301.552
301.552
301.552
301.553
301.553
301.553
301.554
301.554
301.554
301.554
301.555
301.555
301.555
301.555
301.555
301.556
301.556
301.556
301.556
301.556
301.557
301.557
301.557
301.557
301.557
301.557
301.557
301.557
301.557
301.557
301.557
301.557
301.557
301.557
301.557
301.557
301.557
301.557
301.557
301.557
301.556
301.556
301.556
301.556
301.555
301.555
301.555
301.554
301.554
301.553
301.553
301.552
301.551
301.551
301.55
301.549
301.548
301.547
301.547
301.546
301.545
301.544
301.542
301.541
301.54
301.539
301.537
301.536
301.535
301.533
301.532
301.53
301.528
301.527
301.525
301.523
301.521
301.519
301.517
301.515
301.513
301.511
301.508
301.506
301.504
301.501
301.499
301.496
301.494
301.491
301.488
301.486
301.483
301.48
301.477
301.475
301.472
301.469
301.466
301.463
301.46
301.457
301.453
301.45
301.447
301.444
301.441
301.438
301.434
301.431
301.428
301.424
301.421
301.418
301.414
301.411
301.408
301.404
301.401
301.398
301.395
301.395
301.401
301.424
301.495
301.706
302.314
304.055
309.026
322.995
359.592
439.052
567.101
720.461
874.255
1019.99
1154.63
1272.92
1369.87
1451.58
1521.31
1576.97
1621.57
1659.85
1693.1
1722.38
1748.48
1771.97
1793.29
1812.77
1830.68
1847.23
1862.58
1876.89
1890.26
1902.81
1914.61
1925.74
1936.25
1946.22
1955.67
1964.66
1973.21
1981.36
1989.13
1996.34
2003.12
2009.67
2016
2022.11
2028.03
2033.76
2039.31
2044.69
2049.91
2054.97
2059.9
2064.68
2069.34
2073.87
2078.28
2082.57
2086.76
2090.84
2094.82
2098.71
2102.51
2106.21
2109.84
2113.38
2116.84
2120.23
2123.55
2126.79
2129.97
2133.09
2136.14
2139.13
2142.07
2144.94
2147.76
2150.53
2153.25
2155.92
2158.54
2161.11
2163.63
2166.11
2168.54
2170.93
2173.28
2175.59
2177.85
2180.07
2182.26
2184.4
2186.5
2188.56
2190.59
2192.57
2194.52
2196.42
2198.29
2200.12
2201.91
2203.67
2205.39
2207.1
2208.78
2210.41
2211.96
2213.45
2214.9
2216.31
2217.67
2219
2220.29
2221.53
2222.75
2223.92
2225.07
2226.18
2227.25
2228.3
2229.33
2230.33
2231.31
2232.27
2233.21
2234.15
2235.08
2236.02
2236.95
2237.9
2238.87
2239.85
2240.87
2241.92
2243.02
2244.17
2245.37
2246.64
2247.99
2249.41
2250.91
2252.51
2254.21
2256.01
2257.92
2259.94
2262.08
2264.33
2266.71
2269.21
2271.83
2274.58
2277.44
2280.42
2283.5
2286.7
2289.99
2293.38
2296.85
2300.4
2304.01
2307.67
2311.38
2315.11
2318.87
2322.63
2326.39
2330.13
2333.83
2337.49
2341.1
2344.63
2348.09
2351.46
2354.73
2357.89
2360.93
2363.86
2366.65
2369.32
2371.84
2374.23
2376.47
2378.57
2380.53
2382.35
2384.03
2385.58
2386.99
2388.28
2389.44
2390.48
2391.41
2392.24
2392.96
2393.59
2394.14
2394.6
2394.99
2395.32
2395.58
2395.79
2395.95
2396.07
2396.15
2396.2
2396.22
2396.22
2396.2
2396.16
2396.1
2396.04
2395.97
2395.9
2395.82
2395.74
2395.66
2395.58
2395.5
2395.43
2395.36
2395.29
2395.23
2395.17
2395.12
2395.07
2395.02
2394.99
2394.96
)
;

boundaryField
{
    boundary
    {
        type            empty;
    }
    inlet
    {
        type            fixedValue;
        value           uniform 300;
    }
    outlet
    {
        type            zeroGradient;
    }
}


// ************************************************************************* //
