/*--------------------------------*- C++ -*----------------------------------*\
  =========                 |
  \\      /  F ield         | OpenFOAM: The Open Source CFD Toolbox
   \\    /   O peration     | Website:  https://openfoam.org
    \\  /    A nd           | Version:  7
     \\/     M anipulation  |
\*---------------------------------------------------------------------------*/
FoamFile
{
    version     2.0;
    format      ascii;
    class       volVectorField;
    location    "0.00037";
    object      U;
}
// * * * * * * * * * * * * * * * * * * * * * * * * * * * * * * * * * * * * * //

dimensions      [0 1 -1 0 0 0 0];

internalField   nonuniform List<vector> 
500
(
(2.34891 0 0)
(2.34884 0 0)
(2.34875 0 0)
(2.34868 0 0)
(2.3486 0 0)
(2.34853 0 0)
(2.34847 0 0)
(2.3484 0 0)
(2.34834 0 0)
(2.34828 0 0)
(2.34823 0 0)
(2.34819 0 0)
(2.34814 0 0)
(2.34811 0 0)
(2.34808 0 0)
(2.34805 0 0)
(2.34802 0 0)
(2.34799 0 0)
(2.34796 0 0)
(2.34793 0 0)
(2.34789 0 0)
(2.34784 0 0)
(2.34779 0 0)
(2.34772 0 0)
(2.34764 0 0)
(2.34755 0 0)
(2.34745 0 0)
(2.34734 0 0)
(2.34722 0 0)
(2.3471 0 0)
(2.34697 0 0)
(2.34684 0 0)
(2.34671 0 0)
(2.34658 0 0)
(2.34646 0 0)
(2.34634 0 0)
(2.34622 0 0)
(2.34611 0 0)
(2.346 0 0)
(2.34589 0 0)
(2.34579 0 0)
(2.3457 0 0)
(2.34561 0 0)
(2.34552 0 0)
(2.34543 0 0)
(2.34535 0 0)
(2.34526 0 0)
(2.34518 0 0)
(2.3451 0 0)
(2.34502 0 0)
(2.34494 0 0)
(2.34486 0 0)
(2.34479 0 0)
(2.34471 0 0)
(2.34463 0 0)
(2.34455 0 0)
(2.34447 0 0)
(2.3444 0 0)
(2.34432 0 0)
(2.34424 0 0)
(2.34416 0 0)
(2.34409 0 0)
(2.34401 0 0)
(2.34393 0 0)
(2.34385 0 0)
(2.34378 0 0)
(2.3437 0 0)
(2.34362 0 0)
(2.34355 0 0)
(2.34347 0 0)
(2.34339 0 0)
(2.34331 0 0)
(2.34324 0 0)
(2.34316 0 0)
(2.34308 0 0)
(2.34301 0 0)
(2.34293 0 0)
(2.34285 0 0)
(2.34278 0 0)
(2.3427 0 0)
(2.34262 0 0)
(2.34255 0 0)
(2.34247 0 0)
(2.34239 0 0)
(2.34232 0 0)
(2.34224 0 0)
(2.34216 0 0)
(2.34209 0 0)
(2.34201 0 0)
(2.34193 0 0)
(2.34186 0 0)
(2.34178 0 0)
(2.34171 0 0)
(2.34163 0 0)
(2.34155 0 0)
(2.34148 0 0)
(2.3414 0 0)
(2.34132 0 0)
(2.34125 0 0)
(2.34117 0 0)
(2.3411 0 0)
(2.34102 0 0)
(2.34094 0 0)
(2.34087 0 0)
(2.34079 0 0)
(2.34072 0 0)
(2.34064 0 0)
(2.34056 0 0)
(2.34049 0 0)
(2.34041 0 0)
(2.34034 0 0)
(2.34026 0 0)
(2.34018 0 0)
(2.34011 0 0)
(2.34003 0 0)
(2.33996 0 0)
(2.33988 0 0)
(2.33981 0 0)
(2.33973 0 0)
(2.33965 0 0)
(2.33958 0 0)
(2.3395 0 0)
(2.33943 0 0)
(2.33935 0 0)
(2.33928 0 0)
(2.3392 0 0)
(2.33912 0 0)
(2.33905 0 0)
(2.33897 0 0)
(2.3389 0 0)
(2.33882 0 0)
(2.33874 0 0)
(2.33867 0 0)
(2.33859 0 0)
(2.33852 0 0)
(2.33844 0 0)
(2.33837 0 0)
(2.33829 0 0)
(2.33821 0 0)
(2.33814 0 0)
(2.33806 0 0)
(2.33799 0 0)
(2.33791 0 0)
(2.33783 0 0)
(2.33776 0 0)
(2.33768 0 0)
(2.33761 0 0)
(2.33753 0 0)
(2.33746 0 0)
(2.33738 0 0)
(2.3373 0 0)
(2.33723 0 0)
(2.33715 0 0)
(2.33708 0 0)
(2.337 0 0)
(2.33693 0 0)
(2.33685 0 0)
(2.33677 0 0)
(2.3367 0 0)
(2.33662 0 0)
(2.33655 0 0)
(2.33647 0 0)
(2.3364 0 0)
(2.33632 0 0)
(2.33624 0 0)
(2.33617 0 0)
(2.33609 0 0)
(2.33602 0 0)
(2.33594 0 0)
(2.33586 0 0)
(2.33579 0 0)
(2.33571 0 0)
(2.33564 0 0)
(2.33556 0 0)
(2.33549 0 0)
(2.33541 0 0)
(2.33533 0 0)
(2.33526 0 0)
(2.33518 0 0)
(2.33511 0 0)
(2.33503 0 0)
(2.33496 0 0)
(2.33488 0 0)
(2.33481 0 0)
(2.33473 0 0)
(2.33465 0 0)
(2.33458 0 0)
(2.3345 0 0)
(2.33443 0 0)
(2.33435 0 0)
(2.33428 0 0)
(2.3342 0 0)
(2.33413 0 0)
(2.33405 0 0)
(2.33397 0 0)
(2.3339 0 0)
(2.33382 0 0)
(2.33375 0 0)
(2.33367 0 0)
(2.3336 0 0)
(2.33352 0 0)
(2.33345 0 0)
(2.33337 0 0)
(2.33329 0 0)
(2.33322 0 0)
(2.33314 0 0)
(2.33307 0 0)
(2.33299 0 0)
(2.33292 0 0)
(2.33284 0 0)
(2.33276 0 0)
(2.33269 0 0)
(2.33261 0 0)
(2.33254 0 0)
(2.33246 0 0)
(2.33239 0 0)
(2.33231 0 0)
(2.33223 0 0)
(2.33216 0 0)
(2.33208 0 0)
(2.332 0 0)
(2.33193 0 0)
(2.33185 0 0)
(2.33177 0 0)
(2.3317 0 0)
(2.33162 0 0)
(2.33154 0 0)
(2.33147 0 0)
(2.33139 0 0)
(2.33131 0 0)
(2.33124 0 0)
(2.33116 0 0)
(2.33108 0 0)
(2.33101 0 0)
(2.33093 0 0)
(2.33085 0 0)
(2.33078 0 0)
(2.3307 0 0)
(2.33062 0 0)
(2.33055 0 0)
(2.33047 0 0)
(2.33039 0 0)
(2.33031 0 0)
(2.33024 0 0)
(2.33016 0 0)
(2.33008 0 0)
(2.33001 0 0)
(2.32993 0 0)
(2.32986 0 0)
(2.32978 0 0)
(2.3297 0 0)
(2.32963 0 0)
(2.32955 0 0)
(2.32947 0 0)
(2.3294 0 0)
(2.32932 0 0)
(2.32925 0 0)
(2.32917 0 0)
(2.3291 0 0)
(2.32902 0 0)
(2.32895 0 0)
(2.32887 0 0)
(2.3288 0 0)
(2.32872 0 0)
(2.32864 0 0)
(2.32857 0 0)
(2.32849 0 0)
(2.32842 0 0)
(2.32834 0 0)
(2.3283 0 0)
(2.32837 0 0)
(2.32877 0 0)
(2.33029 0 0)
(2.33522 0 0)
(2.34958 0 0)
(2.38743 0 0)
(2.47934 0 0)
(2.69171 0 0)
(3.14589 0 0)
(4.00662 0 0)
(5.17283 0 0)
(6.41087 0 0)
(7.56063 0 0)
(8.57464 0 0)
(9.44188 0 0)
(10.16 0 0)
(10.7517 0 0)
(11.2435 0 0)
(11.6426 0 0)
(11.9605 0 0)
(12.2224 0 0)
(12.4478 0 0)
(12.6458 0 0)
(12.8215 0 0)
(12.9786 0 0)
(13.1203 0 0)
(13.2492 0 0)
(13.3671 0 0)
(13.4756 0 0)
(13.5759 0 0)
(13.669 0 0)
(13.7558 0 0)
(13.8369 0 0)
(13.913 0 0)
(13.9845 0 0)
(14.052 0 0)
(14.1157 0 0)
(14.176 0 0)
(14.2332 0 0)
(14.2875 0 0)
(14.3392 0 0)
(14.3883 0 0)
(14.4338 0 0)
(14.4764 0 0)
(14.5176 0 0)
(14.5574 0 0)
(14.5958 0 0)
(14.6328 0 0)
(14.6686 0 0)
(14.7033 0 0)
(14.7368 0 0)
(14.7693 0 0)
(14.8008 0 0)
(14.8314 0 0)
(14.8611 0 0)
(14.8899 0 0)
(14.9179 0 0)
(14.9452 0 0)
(14.9717 0 0)
(14.9975 0 0)
(15.0226 0 0)
(15.0471 0 0)
(15.071 0 0)
(15.0943 0 0)
(15.1171 0 0)
(15.1392 0 0)
(15.1609 0 0)
(15.1821 0 0)
(15.2028 0 0)
(15.2231 0 0)
(15.2429 0 0)
(15.2622 0 0)
(15.2812 0 0)
(15.2998 0 0)
(15.3179 0 0)
(15.3358 0 0)
(15.3532 0 0)
(15.3703 0 0)
(15.3871 0 0)
(15.4036 0 0)
(15.4197 0 0)
(15.4355 0 0)
(15.4511 0 0)
(15.4664 0 0)
(15.4814 0 0)
(15.4961 0 0)
(15.5105 0 0)
(15.5247 0 0)
(15.5387 0 0)
(15.5524 0 0)
(15.5659 0 0)
(15.5792 0 0)
(15.5923 0 0)
(15.6051 0 0)
(15.6177 0 0)
(15.6302 0 0)
(15.6424 0 0)
(15.6544 0 0)
(15.6663 0 0)
(15.678 0 0)
(15.6896 0 0)
(15.701 0 0)
(15.7123 0 0)
(15.7236 0 0)
(15.735 0 0)
(15.7463 0 0)
(15.7573 0 0)
(15.7678 0 0)
(15.7778 0 0)
(15.7878 0 0)
(15.7976 0 0)
(15.8074 0 0)
(15.817 0 0)
(15.8265 0 0)
(15.8358 0 0)
(15.8451 0 0)
(15.8542 0 0)
(15.8632 0 0)
(15.8721 0 0)
(15.8809 0 0)
(15.8896 0 0)
(15.8982 0 0)
(15.9067 0 0)
(15.9151 0 0)
(15.9234 0 0)
(15.9316 0 0)
(15.9398 0 0)
(15.9479 0 0)
(15.9559 0 0)
(15.9638 0 0)
(15.9717 0 0)
(15.9796 0 0)
(15.9873 0 0)
(15.9951 0 0)
(16.0027 0 0)
(16.0103 0 0)
(16.0179 0 0)
(16.0254 0 0)
(16.0328 0 0)
(16.0402 0 0)
(16.0475 0 0)
(16.0548 0 0)
(16.0619 0 0)
(16.069 0 0)
(16.076 0 0)
(16.0829 0 0)
(16.0897 0 0)
(16.0964 0 0)
(16.103 0 0)
(16.1094 0 0)
(16.1157 0 0)
(16.1218 0 0)
(16.1278 0 0)
(16.1335 0 0)
(16.1391 0 0)
(16.1445 0 0)
(16.1497 0 0)
(16.1546 0 0)
(16.1593 0 0)
(16.1638 0 0)
(16.1681 0 0)
(16.1721 0 0)
(16.1758 0 0)
(16.1793 0 0)
(16.1825 0 0)
(16.1854 0 0)
(16.1881 0 0)
(16.1906 0 0)
(16.1928 0 0)
(16.1947 0 0)
(16.1965 0 0)
(16.198 0 0)
(16.1992 0 0)
(16.2003 0 0)
(16.2012 0 0)
(16.2019 0 0)
(16.2024 0 0)
(16.2028 0 0)
(16.2031 0 0)
(16.2032 0 0)
(16.2032 0 0)
(16.2032 0 0)
(16.203 0 0)
(16.2028 0 0)
(16.2026 0 0)
(16.2024 0 0)
(16.2021 0 0)
(16.2018 0 0)
(16.2015 0 0)
(16.2012 0 0)
(16.201 0 0)
(16.2008 0 0)
(16.2006 0 0)
(16.2005 0 0)
(16.2004 0 0)
(16.2003 0 0)
(16.2003 0 0)
(16.2004 0 0)
(16.2005 0 0)
(16.2007 0 0)
(16.2009 0 0)
(16.2011 0 0)
(16.2014 0 0)
(16.2017 0 0)
(16.2021 0 0)
(16.2025 0 0)
(16.2029 0 0)
(16.2034 0 0)
(16.2039 0 0)
(16.2043 0 0)
(16.2048 0 0)
(16.2053 0 0)
(16.2058 0 0)
(16.2064 0 0)
(16.2068 0 0)
(16.2073 0 0)
(16.2078 0 0)
(16.2083 0 0)
(16.2087 0 0)
(16.2092 0 0)
(16.2096 0 0)
(16.21 0 0)
(16.2104 0 0)
(16.2108 0 0)
(16.2112 0 0)
(16.2117 0 0)
(16.2122 0 0)
(16.2128 0 0)
(16.2136 0 0)
(16.2152 0 0)
)
;

boundaryField
{
    boundary
    {
        type            empty;
    }
    inlet
    {
        type            fixedValue;
        value           uniform (2.34893 0 0);
    }
    outlet
    {
        type            zeroGradient;
    }
}


// ************************************************************************* //
