/*--------------------------------*- C++ -*----------------------------------*\
  =========                 |
  \\      /  F ield         | OpenFOAM: The Open Source CFD Toolbox
   \\    /   O peration     | Website:  https://openfoam.org
    \\  /    A nd           | Version:  7
     \\/     M anipulation  |
\*---------------------------------------------------------------------------*/
FoamFile
{
    version     2.0;
    format      ascii;
    class       volScalarField;
    location    "0.00081";
    object      cellCpuTimes;
}
// * * * * * * * * * * * * * * * * * * * * * * * * * * * * * * * * * * * * * //

dimensions      [0 0 0 0 0 0 0];

internalField   nonuniform List<scalar> 
500
(
8.8e-05
5.2e-05
4.8e-05
4.8e-05
4.8e-05
4.8e-05
4.7e-05
4.8e-05
4.7e-05
4.9e-05
4.8e-05
4.8e-05
4.7e-05
4.7e-05
4.7e-05
4.7e-05
4.8e-05
4.8e-05
4.8e-05
4.7e-05
4.7e-05
4.7e-05
4.7e-05
4.8e-05
4.7e-05
4.6e-05
4.8e-05
4.7e-05
4.7e-05
4.7e-05
4.6e-05
4.7e-05
4.7e-05
4.7e-05
4.6e-05
4.7e-05
4.6e-05
4.7e-05
4.7e-05
4.8e-05
4.7e-05
4.9e-05
4.7e-05
4.7e-05
4.6e-05
4.7e-05
4.7e-05
4.8e-05
4.7e-05
4.9e-05
4.8e-05
4.8e-05
4.9e-05
4.7e-05
4.7e-05
4.8e-05
4.6e-05
4.7e-05
4.7e-05
4.7e-05
4.8e-05
4.6e-05
4.8e-05
4.6e-05
4.7e-05
4.7e-05
4.7e-05
4.6e-05
4.7e-05
4.6e-05
4.7e-05
4.6e-05
4.7e-05
4.7e-05
6.1e-05
4.8e-05
4.7e-05
4.7e-05
4.6e-05
4.8e-05
4.7e-05
4.7e-05
4.7e-05
4.7e-05
4.8e-05
4.7e-05
4.7e-05
4.7e-05
4.7e-05
4.7e-05
4.9e-05
4.6e-05
4.6e-05
4.7e-05
4.7e-05
4.7e-05
4.9e-05
4.8e-05
4.7e-05
4.7e-05
4.6e-05
4.8e-05
4.7e-05
4.8e-05
4.8e-05
4.8e-05
4.7e-05
4.8e-05
4.7e-05
4.8e-05
4.7e-05
4.7e-05
4.6e-05
4.6e-05
4.9e-05
4.6e-05
4.7e-05
4.7e-05
4.7e-05
4.8e-05
4.6e-05
4.7e-05
4.7e-05
4.7e-05
4.7e-05
8.5e-05
5.7e-05
4.9e-05
4.8e-05
4.8e-05
4.8e-05
4.7e-05
4.7e-05
4.8e-05
4.7e-05
4.7e-05
4.7e-05
4.7e-05
4.7e-05
4.7e-05
4.7e-05
4.7e-05
4.7e-05
4.7e-05
4.7e-05
4.7e-05
4.8e-05
4.6e-05
4.8e-05
4.8e-05
4.8e-05
4.7e-05
4.7e-05
4.7e-05
4.7e-05
4.6e-05
4.8e-05
4.6e-05
4.7e-05
4.7e-05
4.7e-05
4.7e-05
4.7e-05
4.7e-05
4.8e-05
4.8e-05
4.6e-05
4.7e-05
4.7e-05
4.7e-05
4.7e-05
4.7e-05
4.7e-05
4.7e-05
4.7e-05
4.7e-05
4.7e-05
4.7e-05
4.8e-05
4.7e-05
4.7e-05
4.7e-05
4.7e-05
4.7e-05
4.7e-05
4.7e-05
4.7e-05
4.7e-05
4.6e-05
4.7e-05
4.6e-05
4.7e-05
4.7e-05
4.7e-05
4.7e-05
4.7e-05
4.7e-05
4.7e-05
4.6e-05
5.2e-05
4.8e-05
4.8e-05
4.7e-05
4.6e-05
4.7e-05
4.7e-05
4.6e-05
4.7e-05
4.7e-05
4.7e-05
4.6e-05
4.8e-05
4.7e-05
4.6e-05
4.7e-05
4.6e-05
4.7e-05
4.7e-05
4.7e-05
4.7e-05
4.7e-05
4.7e-05
4.7e-05
4.7e-05
4.6e-05
4.7e-05
4.6e-05
4.7e-05
4.6e-05
4.7e-05
4.7e-05
4.6e-05
4.7e-05
4.7e-05
4.6e-05
4.7e-05
4.7e-05
4.6e-05
4.7e-05
4.6e-05
4.7e-05
4.6e-05
4.6e-05
4.7e-05
4.6e-05
4.6e-05
4.6e-05
4.7e-05
4.6e-05
4.7e-05
4.6e-05
4.6e-05
4.7e-05
4.7e-05
4.6e-05
4.7e-05
4.7e-05
4.6e-05
4.7e-05
4.7e-05
4.6e-05
4.6e-05
4.7e-05
4.7e-05
4.6e-05
4.7e-05
4.6e-05
4.6e-05
4.7e-05
5.1e-05
5.8e-05
6.6e-05
8.5e-05
0.000101
0.000154
0.00016
0.000164
0.000169
0.000167
0.000192
0.000251
0.000265
0.000282
0.000263
0.000251
0.000249
0.000222
0.000228
0.000219
0.000205
0.000176
0.00018
0.000172
0.000161
0.000162
0.000198
0.000154
0.00015
0.000147
0.000146
0.000148
0.000141
0.00014
0.000145
0.000146
0.000145
0.000145
0.000141
0.000142
0.000133
0.000127
0.000128
0.000129
0.000127
0.000127
0.000124
0.000132
0.000132
0.000129
0.000128
0.000128
0.000133
0.000124
0.000124
0.000124
0.000124
0.000123
0.000121
0.000122
0.000128
0.000124
0.000123
0.000124
0.000126
0.000125
0.00012
0.00012
0.000121
0.000121
0.000122
0.00012
0.00012
0.000118
0.000117
0.000118
0.000115
0.000117
0.000116
0.000114
0.000112
0.000113
0.000114
0.000113
0.000116
0.000113
0.000113
0.000113
0.000112
0.000113
0.000112
0.000113
0.000114
0.000115
0.000115
0.000115
0.000113
0.000112
0.000112
0.000113
0.000113
0.000113
0.000113
0.000113
0.000112
0.000112
0.000113
0.00011
0.000109
0.000109
0.00011
0.00011
0.000108
0.000109
0.000109
0.00011
0.00011
0.00011
0.000109
0.000109
0.00011
0.000109
0.000105
0.000106
0.000105
0.000106
0.000105
0.000105
0.00015
0.000112
0.000105
0.000103
9.9e-05
9.9e-05
9.9e-05
9.9e-05
9.9e-05
9.7e-05
9.7e-05
9.7e-05
9.7e-05
9.7e-05
9.7e-05
0.000101
0.000101
0.000101
0.0001
0.000101
0.000101
0.000101
0.0001
0.0001
0.000101
0.0001
9.7e-05
9.6e-05
9.6e-05
9.7e-05
9.6e-05
9.6e-05
0.000101
9.8e-05
9.7e-05
9.8e-05
0.000102
9.8e-05
9.7e-05
9.8e-05
9.6e-05
9.6e-05
9.5e-05
9.5e-05
9.5e-05
9.6e-05
9.5e-05
9.5e-05
9.5e-05
9.6e-05
9.5e-05
9.5e-05
9.5e-05
9.5e-05
9.5e-05
9.5e-05
9.4e-05
9.5e-05
9.4e-05
9.5e-05
9.4e-05
9.5e-05
9.5e-05
9.5e-05
9.5e-05
9.5e-05
9.4e-05
9.5e-05
9.5e-05
9.5e-05
9.4e-05
9.5e-05
9.5e-05
9.5e-05
9.5e-05
9.4e-05
9.5e-05
0.000105
9.5e-05
9.5e-05
9.5e-05
9.5e-05
9.5e-05
9.5e-05
9.4e-05
9.4e-05
9.1e-05
9e-05
9e-05
9.1e-05
9.2e-05
9.3e-05
9.2e-05
9.3e-05
9.3e-05
9.3e-05
8.9e-05
9.4e-05
9.5e-05
9.4e-05
9.5e-05
9.5e-05
0.000106
)
;

boundaryField
{
    boundary
    {
        type            empty;
    }
    inlet
    {
        type            calculated;
        value           uniform 0;
    }
    outlet
    {
        type            calculated;
        value           uniform 0;
    }
}


// ************************************************************************* //
