/*--------------------------------*- C++ -*----------------------------------*\
  =========                 |
  \\      /  F ield         | OpenFOAM: The Open Source CFD Toolbox
   \\    /   O peration     | Website:  https://openfoam.org
    \\  /    A nd           | Version:  7
     \\/     M anipulation  |
\*---------------------------------------------------------------------------*/
FoamFile
{
    version     2.0;
    format      ascii;
    class       volScalarField;
    location    "0.00081";
    object      H2O;
}
// * * * * * * * * * * * * * * * * * * * * * * * * * * * * * * * * * * * * * //

dimensions      [0 0 0 0 0 0 0];

internalField   nonuniform List<scalar> 
500
(
7.88183e-48
2.27737e-47
4.09638e-47
6.1371e-47
8.32602e-47
1.06132e-46
1.29647e-46
1.53577e-46
1.77766e-46
2.02112e-46
2.26552e-46
2.51047e-46
2.75582e-46
3.00156e-46
3.24776e-46
3.49461e-46
3.74231e-46
3.9911e-46
4.24121e-46
4.49286e-46
4.74624e-46
5.00152e-46
5.25887e-46
5.51842e-46
5.7803e-46
6.04469e-46
6.31177e-46
6.58177e-46
6.85501e-46
7.13188e-46
7.41284e-46
7.69849e-46
7.98952e-46
8.28671e-46
8.591e-46
8.90337e-46
9.22492e-46
9.55681e-46
9.90024e-46
1.02564e-45
1.06264e-45
1.10115e-45
1.14125e-45
1.18302e-45
1.22652e-45
1.27177e-45
1.31878e-45
1.3675e-45
1.41785e-45
1.46971e-45
1.5229e-45
1.57724e-45
1.63247e-45
1.68831e-45
1.74444e-45
1.80055e-45
1.85627e-45
1.91125e-45
1.96513e-45
2.01758e-45
2.06828e-45
2.11692e-45
2.16325e-45
2.20705e-45
2.24815e-45
2.28643e-45
2.3218e-45
2.35424e-45
2.38375e-45
2.4104e-45
2.43429e-45
2.45552e-45
2.47425e-45
2.49066e-45
2.50491e-45
2.5172e-45
2.52771e-45
2.53665e-45
2.54418e-45
2.55048e-45
2.55571e-45
2.56003e-45
2.56356e-45
2.56644e-45
2.56876e-45
2.57062e-45
2.5721e-45
2.57327e-45
2.57419e-45
2.57492e-45
2.57548e-45
2.57591e-45
2.57625e-45
2.57651e-45
2.5767e-45
2.57686e-45
2.57698e-45
2.57707e-45
2.57714e-45
2.5772e-45
2.57725e-45
2.5773e-45
2.57734e-45
2.57737e-45
2.57741e-45
2.57744e-45
2.57747e-45
2.57751e-45
2.57754e-45
2.57758e-45
2.57762e-45
2.57765e-45
2.5777e-45
2.57774e-45
2.57778e-45
2.57783e-45
2.57788e-45
2.57793e-45
2.57798e-45
2.57804e-45
2.57809e-45
2.57811e-45
2.57803e-45
2.57759e-45
2.57577e-45
2.57241e-45
2.57249e-45
2.57257e-45
2.57266e-45
2.57276e-45
2.57286e-45
2.57296e-45
2.57307e-45
2.57318e-45
2.57329e-45
2.57341e-45
2.57353e-45
2.57365e-45
2.57377e-45
2.57389e-45
2.57403e-45
2.57417e-45
2.57433e-45
2.5745e-45
2.5747e-45
2.57491e-45
2.57516e-45
2.57544e-45
2.57575e-45
2.5761e-45
2.57648e-45
2.57689e-45
2.57733e-45
2.57779e-45
2.57828e-45
2.57877e-45
2.57927e-45
2.57977e-45
2.58026e-45
2.58073e-45
2.58118e-45
2.5816e-45
2.58199e-45
2.58235e-45
2.58268e-45
2.58297e-45
2.58322e-45
2.58345e-45
2.58366e-45
2.58384e-45
2.58401e-45
2.58416e-45
2.58431e-45
2.58446e-45
2.58462e-45
2.58478e-45
2.58495e-45
2.58514e-45
2.58534e-45
2.58555e-45
2.58578e-45
2.58603e-45
2.58629e-45
2.58656e-45
2.58684e-45
2.58713e-45
2.58742e-45
2.58772e-45
2.58801e-45
2.5883e-45
2.58859e-45
2.58887e-45
2.58914e-45
2.5894e-45
2.58967e-45
2.58997e-45
2.59046e-45
2.59163e-45
2.59532e-45
2.608e-45
2.65258e-45
2.80971e-45
3.36177e-45
5.29277e-45
1.20167e-44
3.53303e-44
1.15848e-43
3.92979e-43
1.34414e-42
4.60194e-42
1.57472e-41
5.38734e-41
1.84457e-40
6.32915e-40
2.17972e-39
7.5475e-39
2.63219e-38
9.26171e-38
3.29297e-37
1.1845e-36
4.31376e-36
1.59094e-35
5.94013e-35
2.24357e-34
8.56227e-34
3.2972e-33
1.27931e-32
4.99407e-32
1.9589e-31
7.71164e-31
3.04391e-30
1.20371e-29
4.76591e-29
1.88841e-28
7.48542e-28
2.96755e-27
1.17642e-26
4.66297e-26
1.84784e-25
7.32068e-25
2.89942e-24
1.14799e-23
4.54389e-23
1.79792e-22
7.11145e-22
2.81174e-21
1.11123e-20
4.38958e-20
1.73302e-19
6.83786e-19
2.69613e-18
1.06835e-17
4.21691e-17
1.65959e-16
6.52251e-16
2.56101e-15
1.00473e-14
3.93887e-14
1.54323e-13
6.04356e-13
2.36607e-12
9.26222e-12
3.62604e-11
1.41988e-10
5.56203e-10
2.17984e-09
8.54775e-09
3.3537e-08
1.31653e-07
5.17023e-07
2.03074e-06
7.97238e-06
3.1231e-05
0.00012152
0.000463697
0.00167852
0.00536675
0.0137836
0.0273748
0.0446382
0.0655248
0.0901423
0.116122
0.13937
0.157096
0.172376
0.181293
0.187283
0.191362
0.19423
0.196335
0.19796
0.199275
0.200388
0.201363
0.20224
0.203045
0.203794
0.204497
0.205161
0.205793
0.206395
0.206972
0.207524
0.208054
0.208563
0.209054
0.209527
0.209983
0.210424
0.21085
0.211261
0.211645
0.212013
0.212371
0.21272
0.213061
0.213393
0.213718
0.214036
0.214346
0.214649
0.214946
0.215237
0.215521
0.215799
0.216072
0.21634
0.216602
0.216858
0.21711
0.217357
0.2176
0.217838
0.218071
0.218301
0.218526
0.218747
0.218965
0.219178
0.219389
0.219595
0.219799
0.219999
0.220196
0.220389
0.22058
0.220768
0.220953
0.221135
0.221315
0.221492
0.221667
0.221839
0.222009
0.222177
0.222342
0.222506
0.222667
0.222826
0.222983
0.223138
0.223292
0.223443
0.223593
0.223741
0.223887
0.224032
0.224175
0.224316
0.224456
0.224594
0.224731
0.224866
0.224999
0.225131
0.225262
0.225392
0.22552
0.225647
0.225772
0.225896
0.226019
0.22614
0.226261
0.226379
0.226497
0.226614
0.226729
0.226843
0.226956
0.227068
0.227178
0.227288
0.227396
0.227504
0.22761
0.227716
0.22782
0.227923
0.228025
0.228127
0.228227
0.228327
0.228425
0.228523
0.22862
0.228715
0.22881
0.228904
0.228998
0.22909
0.229182
0.229273
0.229363
0.229452
0.22954
0.229628
0.229715
0.229801
0.229886
0.229971
0.230055
0.230138
0.230221
0.230302
0.230383
0.230464
0.230544
0.230623
0.230701
0.230779
0.230856
0.230932
0.231008
0.231083
0.231158
0.231232
0.231305
0.231378
0.231451
0.231522
0.231593
0.231664
0.231734
0.231803
0.231872
0.231941
0.232009
0.232076
0.232143
0.23221
0.232276
0.232342
0.232407
0.232472
0.232537
0.232601
0.232665
0.232728
0.232791
0.232854
0.232916
0.232979
0.233041
0.233102
0.233164
0.233225
0.233287
0.233348
0.233408
0.233469
0.23353
0.233591
0.233651
0.233712
0.233773
0.233834
0.233894
0.233956
0.234017
0.234078
0.23414
0.234202
0.234265
0.234327
0.234391
0.234455
0.234519
0.234584
0.23465
0.234716
0.234783
0.23485
0.234918
0.234986
0.235053
0.235117
0.235173
0.235212
)
;

boundaryField
{
    boundary
    {
        type            empty;
    }
    inlet
    {
        type            fixedValue;
        value           uniform 0;
    }
    outlet
    {
        type            zeroGradient;
    }
}


// ************************************************************************* //
