/*--------------------------------*- C++ -*----------------------------------*\
  =========                 |
  \\      /  F ield         | OpenFOAM: The Open Source CFD Toolbox
   \\    /   O peration     | Website:  https://openfoam.org
    \\  /    A nd           | Version:  7
     \\/     M anipulation  |
\*---------------------------------------------------------------------------*/
FoamFile
{
    version     2.0;
    format      ascii;
    class       volScalarField;
    location    "0.00081";
    object      O;
}
// * * * * * * * * * * * * * * * * * * * * * * * * * * * * * * * * * * * * * //

dimensions      [0 0 0 0 0 0 0];

internalField   nonuniform List<scalar> 
500
(
1.57728e-47
3.76285e-47
5.95961e-47
8.15536e-47
1.03465e-46
1.25314e-46
1.47089e-46
1.68782e-46
1.90388e-46
2.11906e-46
2.3334e-46
2.54698e-46
2.75995e-46
2.97247e-46
3.18475e-46
3.39704e-46
3.60957e-46
3.8226e-46
4.03635e-46
4.25104e-46
4.46687e-46
4.68401e-46
4.90261e-46
5.12283e-46
5.34481e-46
5.56872e-46
5.79475e-46
6.02313e-46
6.25415e-46
6.48816e-46
6.72558e-46
6.96691e-46
7.21274e-46
7.46372e-46
7.7206e-46
7.98417e-46
8.2553e-46
8.53487e-46
8.82381e-46
9.123e-46
9.43329e-46
9.75548e-46
1.00902e-45
1.04381e-45
1.07994e-45
1.11743e-45
1.15627e-45
1.19642e-45
1.23782e-45
1.28036e-45
1.32392e-45
1.36835e-45
1.41346e-45
1.45904e-45
1.50485e-45
1.55065e-45
1.59617e-45
1.64115e-45
1.68531e-45
1.72839e-45
1.77016e-45
1.81037e-45
1.84882e-45
1.88534e-45
1.91978e-45
1.95203e-45
1.98201e-45
2.00968e-45
2.03504e-45
2.0581e-45
2.07893e-45
2.09761e-45
2.11424e-45
2.12892e-45
2.14181e-45
2.15303e-45
2.16273e-45
2.17106e-45
2.17816e-45
2.18417e-45
2.18922e-45
2.19344e-45
2.19693e-45
2.19981e-45
2.20216e-45
2.20407e-45
2.20561e-45
2.20685e-45
2.20783e-45
2.20861e-45
2.20923e-45
2.20971e-45
2.21009e-45
2.21038e-45
2.21061e-45
2.21078e-45
2.21092e-45
2.21103e-45
2.21111e-45
2.21118e-45
2.21124e-45
2.21128e-45
2.21133e-45
2.21136e-45
2.21139e-45
2.21143e-45
2.21146e-45
2.21149e-45
2.21152e-45
2.21155e-45
2.21158e-45
2.21162e-45
2.21165e-45
2.21169e-45
2.21173e-45
2.21177e-45
2.21181e-45
2.21186e-45
2.2119e-45
2.21194e-45
2.21196e-45
2.21194e-45
2.21177e-45
2.21117e-45
2.20936e-45
2.20672e-45
2.20679e-45
2.20686e-45
2.20694e-45
2.20703e-45
2.20712e-45
2.20721e-45
2.20731e-45
2.20742e-45
2.20753e-45
2.20764e-45
2.20776e-45
2.20789e-45
2.20803e-45
2.20817e-45
2.20834e-45
2.20852e-45
2.20871e-45
2.20893e-45
2.20918e-45
2.20945e-45
2.20974e-45
2.21007e-45
2.21041e-45
2.21078e-45
2.21117e-45
2.21157e-45
2.21198e-45
2.2124e-45
2.21281e-45
2.21322e-45
2.21362e-45
2.214e-45
2.21436e-45
2.21471e-45
2.21503e-45
2.21533e-45
2.2156e-45
2.21585e-45
2.21609e-45
2.21631e-45
2.21651e-45
2.2167e-45
2.21688e-45
2.21705e-45
2.21722e-45
2.21738e-45
2.21754e-45
2.21771e-45
2.21787e-45
2.21805e-45
2.21822e-45
2.2184e-45
2.21859e-45
2.21878e-45
2.21898e-45
2.21918e-45
2.21939e-45
2.21961e-45
2.21982e-45
2.22004e-45
2.22026e-45
2.22048e-45
2.2207e-45
2.22093e-45
2.22117e-45
2.22148e-45
2.22206e-45
2.22364e-45
2.22888e-45
2.24728e-45
2.31288e-45
2.54653e-45
3.37522e-45
6.29872e-45
1.65554e-44
5.23391e-44
1.7649e-43
6.04864e-43
2.07488e-42
7.09222e-42
2.41259e-41
8.16512e-41
2.74919e-40
9.20946e-40
3.06963e-39
1.01813e-38
3.36076e-38
1.10417e-37
3.61122e-37
1.17585e-36
3.81238e-36
1.23097e-35
3.95891e-35
1.26839e-34
4.04909e-34
1.28814e-33
4.08456e-33
1.29119e-32
4.0698e-32
1.27932e-31
4.0113e-31
1.2548e-30
3.91674e-30
1.22015e-29
3.79416e-29
1.17789e-28
3.65131e-28
1.13035e-27
3.49513e-27
1.07957e-26
3.33146e-26
1.02721e-25
3.16493e-25
9.74509e-25
2.99885e-24
9.22338e-24
2.83537e-23
8.71208e-23
2.67565e-22
8.21356e-22
2.52011e-21
7.72835e-21
2.36876e-20
7.25624e-20
2.2215e-19
6.8281e-19
2.09369e-18
6.4035e-18
1.95625e-17
5.97234e-17
1.82254e-16
5.56011e-16
1.69599e-15
5.17312e-15
1.57807e-14
4.81494e-14
1.46956e-13
4.48689e-13
1.37052e-12
4.18813e-12
1.28042e-11
3.91634e-11
1.19841e-10
3.66897e-10
1.12415e-09
3.45222e-09
1.06974e-08
3.43601e-08
1.24803e-07
6.03964e-07
4.01256e-06
2.58741e-05
0.000122621
0.000464592
0.00128211
0.00253803
0.00389575
0.00502389
0.00579603
0.00624329
0.00641946
0.00644419
0.00637702
0.0062572
0.00610963
0.00594954
0.00578594
0.00562404
0.0054667
0.00531538
0.00517075
0.00503295
0.00490191
0.00477736
0.00465899
0.00454645
0.00443937
0.00433742
0.00424025
0.00414756
0.00405905
0.00397447
0.00389355
0.0038161
0.0037419
0.00367081
0.00360474
0.00354231
0.00348195
0.00342355
0.00336701
0.00331224
0.00325915
0.00320767
0.00315772
0.00310923
0.00306214
0.0030164
0.00297193
0.0029287
0.00288666
0.00284574
0.00280591
0.00276713
0.00272936
0.00269255
0.00265667
0.00262169
0.00258756
0.00255428
0.00252179
0.00249007
0.00245909
0.00242884
0.00239927
0.00237037
0.00234212
0.00231449
0.00228746
0.00226101
0.00223511
0.00220976
0.00218494
0.00216061
0.00213678
0.00211342
0.00209052
0.00206806
0.00204603
0.00202442
0.0020032
0.00198238
0.00196194
0.00194187
0.00192216
0.00190279
0.00188376
0.00186507
0.00184669
0.00182862
0.00181086
0.0017934
0.00177623
0.00175935
0.00174274
0.0017264
0.00171034
0.00169453
0.00167899
0.00166371
0.00164865
0.00163379
0.00161915
0.00160474
0.00159055
0.00157658
0.00156282
0.00154927
0.00153593
0.00152279
0.00150984
0.00149708
0.00148451
0.00147213
0.00145992
0.00144789
0.00143604
0.00142435
0.00141283
0.00140147
0.00139027
0.00137922
0.00136833
0.00135758
0.00134698
0.00133653
0.00132621
0.00131603
0.00130599
0.00129608
0.0012863
0.00127664
0.00126711
0.00125771
0.00124842
0.00123925
0.0012302
0.00122127
0.00121244
0.00120373
0.00119512
0.00118662
0.00117823
0.00116994
0.00116175
0.00115366
0.00114568
0.00113778
0.00112999
0.00112229
0.00111468
0.00110716
0.00109974
0.0010924
0.00108515
0.00107798
0.00107091
0.00106391
0.001057
0.00105017
0.00104342
0.00103674
0.00103015
0.00102363
0.00101719
0.00101082
0.00100452
0.000998292
0.000992136
0.00098605
0.000980031
0.000974079
0.000968192
0.00096237
0.000956611
0.000950915
0.000945279
0.000939702
0.000934185
0.000928725
0.000923322
0.000917974
0.00091268
0.00090744
0.000902252
0.000897116
0.000892029
0.000886992
0.000882002
0.00087706
0.000872163
0.000867312
0.000862504
0.000857739
0.000853015
0.000848332
0.000843688
0.000839081
0.000834512
0.000829977
0.000825477
0.000821008
0.000816571
0.000812162
0.000807782
0.000803427
0.000799095
0.000794787
0.000790498
0.000786228
0.000781975
0.000777737
0.000773513
0.000769302
0.000765104
0.000760921
0.000756757
0.000752621
0.000748532
0.000744523
0.000740663
0.000737084
0.000734045
0.000732048
)
;

boundaryField
{
    boundary
    {
        type            empty;
    }
    inlet
    {
        type            fixedValue;
        value           uniform 0;
    }
    outlet
    {
        type            zeroGradient;
    }
}


// ************************************************************************* //
