/*--------------------------------*- C++ -*----------------------------------*\
  =========                 |
  \\      /  F ield         | OpenFOAM: The Open Source CFD Toolbox
   \\    /   O peration     | Website:  https://openfoam.org
    \\  /    A nd           | Version:  7
     \\/     M anipulation  |
\*---------------------------------------------------------------------------*/
FoamFile
{
    version     2.0;
    format      ascii;
    class       volScalarField;
    location    "0.00081";
    object      OH;
}
// * * * * * * * * * * * * * * * * * * * * * * * * * * * * * * * * * * * * * //

dimensions      [0 0 0 0 0 0 0];

internalField   nonuniform List<scalar> 
500
(
9.38489e-48
1.82911e-47
2.43804e-47
2.85018e-47
3.12827e-47
3.31567e-47
3.44177e-47
3.52637e-47
3.5828e-47
3.62008e-47
3.64431e-47
3.65965e-47
3.66899e-47
3.67435e-47
3.67714e-47
3.67842e-47
3.67895e-47
3.67929e-47
3.67986e-47
3.68097e-47
3.68283e-47
3.68561e-47
3.6894e-47
3.69426e-47
3.70022e-47
3.7073e-47
3.71551e-47
3.72489e-47
3.73546e-47
3.74728e-47
3.76044e-47
3.77506e-47
3.79127e-47
3.80926e-47
3.82923e-47
3.85142e-47
3.87609e-47
3.90353e-47
3.93401e-47
3.96786e-47
4.00536e-47
4.04682e-47
4.0925e-47
4.14267e-47
4.19754e-47
4.25726e-47
4.32197e-47
4.3917e-47
4.46644e-47
4.54608e-47
4.63044e-47
4.71922e-47
4.81208e-47
4.90854e-47
5.00807e-47
5.11005e-47
5.21379e-47
5.31854e-47
5.42354e-47
5.52798e-47
5.63106e-47
5.73202e-47
5.83012e-47
5.92467e-47
6.01508e-47
6.10084e-47
6.18153e-47
6.25683e-47
6.32655e-47
6.39058e-47
6.44891e-47
6.50163e-47
6.5489e-47
6.59096e-47
6.6281e-47
6.66064e-47
6.68893e-47
6.71335e-47
6.73427e-47
6.75207e-47
6.7671e-47
6.7797e-47
6.79019e-47
6.79887e-47
6.806e-47
6.81182e-47
6.81654e-47
6.82034e-47
6.82339e-47
6.82582e-47
6.82774e-47
6.82926e-47
6.83045e-47
6.83138e-47
6.83211e-47
6.83269e-47
6.83313e-47
6.83349e-47
6.83377e-47
6.834e-47
6.83418e-47
6.83434e-47
6.83448e-47
6.8346e-47
6.83472e-47
6.83482e-47
6.83493e-47
6.83503e-47
6.83514e-47
6.83524e-47
6.83535e-47
6.83547e-47
6.83559e-47
6.83571e-47
6.83584e-47
6.83597e-47
6.83611e-47
6.83625e-47
6.8364e-47
6.83656e-47
6.83672e-47
6.83687e-47
6.83701e-47
6.83705e-47
6.83682e-47
6.83641e-47
6.83669e-47
6.83701e-47
6.83738e-47
6.83779e-47
6.83823e-47
6.83869e-47
6.83915e-47
6.83962e-47
6.84008e-47
6.84051e-47
6.84092e-47
6.84129e-47
6.84163e-47
6.84194e-47
6.84221e-47
6.84246e-47
6.84269e-47
6.84291e-47
6.84313e-47
6.84336e-47
6.8436e-47
6.84386e-47
6.84415e-47
6.84447e-47
6.84482e-47
6.8452e-47
6.84561e-47
6.84605e-47
6.8465e-47
6.84698e-47
6.84747e-47
6.84798e-47
6.84849e-47
6.84901e-47
6.84953e-47
6.85005e-47
6.85058e-47
6.8511e-47
6.85163e-47
6.85215e-47
6.85268e-47
6.85321e-47
6.85374e-47
6.85427e-47
6.85481e-47
6.85535e-47
6.8559e-47
6.85645e-47
6.85701e-47
6.85757e-47
6.85814e-47
6.85872e-47
6.8593e-47
6.85988e-47
6.86046e-47
6.86105e-47
6.86164e-47
6.86223e-47
6.86282e-47
6.86341e-47
6.86399e-47
6.86456e-47
6.86512e-47
6.86568e-47
6.86623e-47
6.86677e-47
6.86735e-47
6.86809e-47
6.86944e-47
6.87309e-47
6.88498e-47
6.9263e-47
7.07191e-47
7.58486e-47
9.38417e-47
1.56627e-46
3.74517e-46
1.12653e-45
3.70788e-45
1.25207e-44
4.2448e-44
1.43543e-43
4.83278e-43
1.61917e-42
5.39804e-42
1.79082e-41
5.91264e-41
1.943e-40
6.35598e-40
2.06999e-39
6.71264e-39
2.16782e-38
6.9731e-38
2.23448e-37
7.1342e-37
2.26993e-36
7.19872e-36
2.27591e-35
7.17448e-35
2.25551e-34
7.07294e-34
2.21277e-33
6.90773e-33
2.15217e-32
6.69328e-32
2.07826e-31
6.44373e-31
1.9954e-30
6.1724e-30
1.90763e-29
5.89171e-29
1.81884e-28
5.61407e-28
1.73318e-27
5.35415e-27
1.65614e-26
5.13381e-26
1.59682e-25
4.99228e-25
1.57256e-24
5.00719e-24
1.61843e-23
5.33779e-23
1.8069e-22
6.31423e-22
2.30046e-21
8.68792e-21
3.4032e-20
1.38016e-19
5.76683e-19
2.46826e-18
1.07607e-17
4.7555e-17
2.12222e-16
9.53629e-16
4.30588e-15
1.95077e-14
8.85879e-14
4.02961e-13
1.83511e-12
8.36414e-12
3.81436e-11
1.74036e-10
8.05303e-10
3.75669e-09
1.76559e-08
8.40459e-08
4.17651e-07
2.33012e-06
1.53584e-05
0.000100448
0.000400044
0.000724212
0.000884888
0.00113023
0.00172698
0.00276117
0.0040856
0.00546009
0.00686752
0.00792365
0.00876189
0.00941749
0.00992816
0.0103277
0.0106427
0.0108935
0.0110947
0.0112573
0.0113892
0.0114964
0.0115836
0.011654
0.0117106
0.0117553
0.0117901
0.0118164
0.0118352
0.0118477
0.0118546
0.0118567
0.0118546
0.0118487
0.0118395
0.0118275
0.0118129
0.0117967
0.011779
0.0117598
0.0117392
0.0117172
0.0116941
0.0116699
0.0116447
0.0116187
0.0115919
0.0115644
0.0115363
0.0115076
0.0114785
0.0114489
0.011419
0.0113887
0.0113581
0.0113273
0.0112962
0.011265
0.0112337
0.0112022
0.0111706
0.011139
0.0111073
0.0110755
0.0110438
0.011012
0.0109802
0.0109485
0.0109168
0.0108851
0.0108535
0.010822
0.0107905
0.010759
0.0107276
0.0106964
0.0106651
0.010634
0.0106029
0.010572
0.0105411
0.0105103
0.0104796
0.010449
0.0104185
0.0103881
0.0103578
0.0103276
0.0102975
0.0102675
0.0102377
0.0102079
0.0101783
0.0101488
0.0101194
0.0100901
0.010061
0.010032
0.0100031
0.00997437
0.00994577
0.00991728
0.00988889
0.00986065
0.00983255
0.00980461
0.00977681
0.00974917
0.00972167
0.00969433
0.00966713
0.00964009
0.0096132
0.00958647
0.00955988
0.00953345
0.00950716
0.00948103
0.00945504
0.0094292
0.00940351
0.00937797
0.00935257
0.00932731
0.0093022
0.00927723
0.00925241
0.00922772
0.00920317
0.00917876
0.00915449
0.00913035
0.00910635
0.00908249
0.00905876
0.00903516
0.0090117
0.00898837
0.00896517
0.00894211
0.00891917
0.00889637
0.0088737
0.00885117
0.00882876
0.00880648
0.00878433
0.00876232
0.00874043
0.00871868
0.00869706
0.00867556
0.0086542
0.00863297
0.00861186
0.00859089
0.00857004
0.00854932
0.00852873
0.00850827
0.00848794
0.00846773
0.00844765
0.0084277
0.00840787
0.00838816
0.00836857
0.00834911
0.00832977
0.00831054
0.00829143
0.00827244
0.00825356
0.0082348
0.00821615
0.0081976
0.00817917
0.00816084
0.00814261
0.00812449
0.00810647
0.00808855
0.00807072
0.00805299
0.00803536
0.00801782
0.00800036
0.007983
0.00796572
0.00794852
0.0079314
0.00791436
0.0078974
0.00788051
0.00786369
0.00784694
0.00783025
0.00781363
0.00779705
0.00778053
0.00776406
0.00774762
0.00773123
0.00771486
0.00769852
0.00768219
0.00766587
0.00764955
0.00763322
0.00761688
0.00760051
0.00758411
0.00756766
0.00755117
0.00753463
0.00751803
0.00750139
0.00748472
0.00746807
0.00745154
0.00743527
0.00741959
0.00740508
0.0073928
0.00738474
)
;

boundaryField
{
    boundary
    {
        type            empty;
    }
    inlet
    {
        type            fixedValue;
        value           uniform 0;
    }
    outlet
    {
        type            zeroGradient;
    }
}


// ************************************************************************* //
