/*--------------------------------*- C++ -*----------------------------------*\
  =========                 |
  \\      /  F ield         | OpenFOAM: The Open Source CFD Toolbox
   \\    /   O peration     | Website:  https://openfoam.org
    \\  /    A nd           | Version:  7
     \\/     M anipulation  |
\*---------------------------------------------------------------------------*/
FoamFile
{
    version     2.0;
    format      ascii;
    class       surfaceScalarField;
    location    "0.00081";
    object      phi;
}
// * * * * * * * * * * * * * * * * * * * * * * * * * * * * * * * * * * * * * //

dimensions      [1 0 -1 0 0 0 0];

internalField   nonuniform List<scalar> 
499
(
6.9302e-06
6.93013e-06
6.93006e-06
6.92999e-06
6.92994e-06
6.92989e-06
6.92986e-06
6.92984e-06
6.92983e-06
6.92984e-06
6.92987e-06
6.9299e-06
6.92995e-06
6.93e-06
6.93006e-06
6.93011e-06
6.93016e-06
6.93021e-06
6.93024e-06
6.93026e-06
6.93026e-06
6.93025e-06
6.93021e-06
6.93016e-06
6.93009e-06
6.93e-06
6.92989e-06
6.92976e-06
6.92962e-06
6.92945e-06
6.92926e-06
6.92905e-06
6.92882e-06
6.92856e-06
6.92828e-06
6.92796e-06
6.9276e-06
6.92721e-06
6.92678e-06
6.9263e-06
6.92576e-06
6.92518e-06
6.92454e-06
6.92384e-06
6.92308e-06
6.92226e-06
6.92138e-06
6.92043e-06
6.91943e-06
6.91838e-06
6.91727e-06
6.91613e-06
6.91494e-06
6.91372e-06
6.91248e-06
6.91123e-06
6.90997e-06
6.90871e-06
6.90747e-06
6.90625e-06
6.90506e-06
6.9039e-06
6.90279e-06
6.90173e-06
6.90072e-06
6.89977e-06
6.89888e-06
6.89805e-06
6.89729e-06
6.89658e-06
6.89594e-06
6.89536e-06
6.89484e-06
6.89436e-06
6.89394e-06
6.89357e-06
6.89324e-06
6.89294e-06
6.89268e-06
6.89246e-06
6.89226e-06
6.89208e-06
6.89193e-06
6.89179e-06
6.89167e-06
6.89156e-06
6.89147e-06
6.89138e-06
6.8913e-06
6.89122e-06
6.89116e-06
6.89109e-06
6.89103e-06
6.89097e-06
6.89091e-06
6.89086e-06
6.8908e-06
6.89075e-06
6.8907e-06
6.89065e-06
6.8906e-06
6.89054e-06
6.89049e-06
6.89044e-06
6.89039e-06
6.89034e-06
6.89029e-06
6.89024e-06
6.89019e-06
6.89014e-06
6.89009e-06
6.89004e-06
6.88999e-06
6.88993e-06
6.88988e-06
6.88983e-06
6.88978e-06
6.88973e-06
6.88968e-06
6.88963e-06
6.88957e-06
6.88952e-06
6.88947e-06
6.88942e-06
6.88937e-06
6.88931e-06
6.88926e-06
6.88921e-06
6.88915e-06
6.8891e-06
6.88904e-06
6.88899e-06
6.88893e-06
6.88888e-06
6.88882e-06
6.88877e-06
6.88871e-06
6.88866e-06
6.88861e-06
6.88855e-06
6.8885e-06
6.88845e-06
6.88839e-06
6.88834e-06
6.88829e-06
6.88823e-06
6.88818e-06
6.88813e-06
6.88807e-06
6.88802e-06
6.88796e-06
6.88791e-06
6.88786e-06
6.8878e-06
6.88775e-06
6.88769e-06
6.88763e-06
6.88758e-06
6.88752e-06
6.88746e-06
6.88741e-06
6.88735e-06
6.88729e-06
6.88724e-06
6.88718e-06
6.88712e-06
6.88707e-06
6.88701e-06
6.88695e-06
6.8869e-06
6.88684e-06
6.88678e-06
6.88672e-06
6.88666e-06
6.88661e-06
6.88655e-06
6.88649e-06
6.88643e-06
6.88637e-06
6.88632e-06
6.88626e-06
6.8862e-06
6.88614e-06
6.88608e-06
6.88602e-06
6.88596e-06
6.88591e-06
6.88585e-06
6.88579e-06
6.88573e-06
6.88567e-06
6.88561e-06
6.88555e-06
6.8855e-06
6.88544e-06
6.88538e-06
6.88532e-06
6.88526e-06
6.88521e-06
6.88515e-06
6.88509e-06
6.88504e-06
6.88498e-06
6.88492e-06
6.88487e-06
6.88481e-06
6.88475e-06
6.8847e-06
6.88464e-06
6.88459e-06
6.88454e-06
6.88448e-06
6.88443e-06
6.88438e-06
6.88432e-06
6.88427e-06
6.88422e-06
6.88417e-06
6.88412e-06
6.88407e-06
6.88402e-06
6.88397e-06
6.88392e-06
6.88388e-06
6.88383e-06
6.88379e-06
6.88374e-06
6.8837e-06
6.88365e-06
6.88361e-06
6.88357e-06
6.88353e-06
6.88349e-06
6.88345e-06
6.88341e-06
6.88337e-06
6.88333e-06
6.8833e-06
6.88326e-06
6.88323e-06
6.8832e-06
6.88317e-06
6.88314e-06
6.88311e-06
6.88308e-06
6.88305e-06
6.88302e-06
6.883e-06
6.88298e-06
6.88295e-06
6.88293e-06
6.88291e-06
6.88289e-06
6.88287e-06
6.88285e-06
6.88284e-06
6.88282e-06
6.8828e-06
6.88279e-06
6.88278e-06
6.88276e-06
6.88275e-06
6.88274e-06
6.88273e-06
6.88273e-06
6.88272e-06
6.88272e-06
6.88272e-06
6.88274e-06
6.88282e-06
6.88309e-06
6.88392e-06
6.8864e-06
6.89359e-06
6.91297e-06
6.9559e-06
7.01975e-06
7.07897e-06
7.11971e-06
7.14612e-06
7.16415e-06
7.17702e-06
7.18623e-06
7.19281e-06
7.19752e-06
7.20097e-06
7.20359e-06
7.20565e-06
7.20732e-06
7.20871e-06
7.20988e-06
7.21089e-06
7.21177e-06
7.21255e-06
7.21324e-06
7.21386e-06
7.21442e-06
7.21493e-06
7.21539e-06
7.21582e-06
7.21622e-06
7.21659e-06
7.21693e-06
7.21725e-06
7.21755e-06
7.21783e-06
7.2181e-06
7.21835e-06
7.21859e-06
7.21882e-06
7.21904e-06
7.21924e-06
7.21943e-06
7.21961e-06
7.21979e-06
7.21996e-06
7.22012e-06
7.22028e-06
7.22044e-06
7.22059e-06
7.22073e-06
7.22087e-06
7.22101e-06
7.22114e-06
7.22127e-06
7.2214e-06
7.22152e-06
7.22163e-06
7.22175e-06
7.22186e-06
7.22196e-06
7.22206e-06
7.22216e-06
7.22226e-06
7.22235e-06
7.22244e-06
7.22252e-06
7.22261e-06
7.22269e-06
7.22276e-06
7.22284e-06
7.22291e-06
7.22298e-06
7.22304e-06
7.22311e-06
7.22317e-06
7.22323e-06
7.22329e-06
7.22335e-06
7.22341e-06
7.22347e-06
7.22353e-06
7.22358e-06
7.22364e-06
7.22369e-06
7.22375e-06
7.2238e-06
7.22386e-06
7.22392e-06
7.22397e-06
7.22403e-06
7.22408e-06
7.22414e-06
7.2242e-06
7.22425e-06
7.22431e-06
7.22437e-06
7.22442e-06
7.22448e-06
7.22454e-06
7.22459e-06
7.22465e-06
7.2247e-06
7.22476e-06
7.22481e-06
7.22486e-06
7.22491e-06
7.22496e-06
7.22501e-06
7.22505e-06
7.2251e-06
7.22514e-06
7.22519e-06
7.22523e-06
7.22527e-06
7.22531e-06
7.22535e-06
7.22539e-06
7.22543e-06
7.22546e-06
7.2255e-06
7.22553e-06
7.22556e-06
7.22559e-06
7.22562e-06
7.22565e-06
7.22568e-06
7.22571e-06
7.22574e-06
7.22576e-06
7.22579e-06
7.22581e-06
7.22583e-06
7.22586e-06
7.22588e-06
7.2259e-06
7.22592e-06
7.22594e-06
7.22596e-06
7.22598e-06
7.226e-06
7.22601e-06
7.22603e-06
7.22605e-06
7.22606e-06
7.22607e-06
7.22609e-06
7.2261e-06
7.22611e-06
7.22612e-06
7.22613e-06
7.22614e-06
7.22615e-06
7.22616e-06
7.22617e-06
7.22617e-06
7.22618e-06
7.22618e-06
7.22618e-06
7.22618e-06
7.22618e-06
7.22618e-06
7.22618e-06
7.22617e-06
7.22617e-06
7.22616e-06
7.22615e-06
7.22614e-06
7.22613e-06
7.22611e-06
7.2261e-06
7.22608e-06
7.22606e-06
7.22604e-06
7.22602e-06
7.22599e-06
7.22597e-06
7.22594e-06
7.22591e-06
7.22588e-06
7.22585e-06
7.22582e-06
7.22578e-06
7.22575e-06
7.22571e-06
7.22567e-06
7.22563e-06
7.22558e-06
7.22554e-06
7.22549e-06
7.22544e-06
7.22539e-06
7.22533e-06
7.22528e-06
7.22522e-06
7.22516e-06
7.2251e-06
7.22503e-06
7.22497e-06
7.2249e-06
7.22483e-06
7.22475e-06
7.22467e-06
7.22459e-06
7.22451e-06
7.22443e-06
7.22434e-06
7.22425e-06
7.22416e-06
7.22407e-06
7.22398e-06
7.22388e-06
7.22379e-06
7.22369e-06
7.2236e-06
7.2235e-06
7.22341e-06
7.22332e-06
7.22323e-06
7.22315e-06
7.22307e-06
7.22299e-06
7.22292e-06
7.22286e-06
7.22279e-06
7.22273e-06
7.22266e-06
7.22258e-06
7.22246e-06
)
;

boundaryField
{
    boundary
    {
        type            empty;
        value           nonuniform 0();
    }
    inlet
    {
        type            calculated;
        value           uniform -6.93027e-06;
    }
    outlet
    {
        type            calculated;
        value           uniform 7.22231e-06;
    }
}


// ************************************************************************* //
