/*--------------------------------*- C++ -*----------------------------------*\
  =========                 |
  \\      /  F ield         | OpenFOAM: The Open Source CFD Toolbox
   \\    /   O peration     | Website:  https://openfoam.org
    \\  /    A nd           | Version:  7
     \\/     M anipulation  |
\*---------------------------------------------------------------------------*/
FoamFile
{
    version     2.0;
    format      ascii;
    class       volScalarField;
    location    "0.00081";
    object      Qdot;
}
// * * * * * * * * * * * * * * * * * * * * * * * * * * * * * * * * * * * * * //

dimensions      [1 -1 -3 0 0 0 0];

internalField   nonuniform List<scalar> 
500
(
-2.45208e-27
-1.86276e-27
-1.73599e-27
-1.70883e-27
-1.70296e-27
-1.70147e-27
-1.70066e-27
-1.69975e-27
-1.69855e-27
-1.69705e-27
-1.69528e-27
-1.69329e-27
-1.69113e-27
-1.68889e-27
-1.68663e-27
-1.68443e-27
-1.68238e-27
-1.68055e-27
-1.67899e-27
-1.67776e-27
-1.6769e-27
-1.67643e-27
-1.67637e-27
-1.67672e-27
-1.67749e-27
-1.67867e-27
-1.68028e-27
-1.6823e-27
-1.68475e-27
-1.68765e-27
-1.69103e-27
-1.69492e-27
-1.69937e-27
-1.70445e-27
-1.71022e-27
-1.71677e-27
-1.72418e-27
-1.73255e-27
-1.74198e-27
-1.75257e-27
-1.76442e-27
-1.77762e-27
-1.79227e-27
-1.80844e-27
-1.8262e-27
-1.8456e-27
-1.86667e-27
-1.88941e-27
-1.91381e-27
-1.93981e-27
-1.96736e-27
-1.99633e-27
-2.02661e-27
-2.05803e-27
-2.09039e-27
-2.1235e-27
-2.15711e-27
-2.19098e-27
-2.22486e-27
-2.25848e-27
-2.29159e-27
-2.32393e-27
-2.35528e-27
-2.38543e-27
-2.41418e-27
-2.44139e-27
-2.46692e-27
-2.4907e-27
-2.51266e-27
-2.53278e-27
-2.55107e-27
-2.56756e-27
-2.58232e-27
-2.59543e-27
-2.60698e-27
-2.61709e-27
-2.62586e-27
-2.63342e-27
-2.63988e-27
-2.64537e-27
-2.65e-27
-2.65388e-27
-2.65711e-27
-2.65977e-27
-2.66196e-27
-2.66374e-27
-2.66519e-27
-2.66635e-27
-2.66728e-27
-2.66802e-27
-2.66861e-27
-2.66907e-27
-2.66943e-27
-2.66972e-27
-2.66994e-27
-2.67012e-27
-2.67025e-27
-2.67036e-27
-2.67045e-27
-2.67052e-27
-2.67057e-27
-2.67062e-27
-2.67067e-27
-2.6707e-27
-2.67074e-27
-2.67077e-27
-2.67081e-27
-2.67084e-27
-2.67087e-27
-2.67091e-27
-2.67094e-27
-2.67098e-27
-2.67101e-27
-2.67105e-27
-2.67109e-27
-2.67114e-27
-2.67118e-27
-2.67123e-27
-2.67127e-27
-2.67132e-27
-2.67138e-27
-2.67143e-27
-2.67148e-27
-2.67154e-27
-2.67157e-27
-2.67159e-27
-2.67167e-27
-2.67177e-27
-2.67189e-27
-2.67203e-27
-2.67217e-27
-2.67232e-27
-2.67247e-27
-2.67262e-27
-2.67277e-27
-2.6729e-27
-2.67303e-27
-2.67315e-27
-2.67325e-27
-2.67335e-27
-2.67343e-27
-2.6735e-27
-2.67356e-27
-2.67362e-27
-2.67368e-27
-2.67374e-27
-2.6738e-27
-2.67387e-27
-2.67395e-27
-2.67403e-27
-2.67413e-27
-2.67423e-27
-2.67434e-27
-2.67446e-27
-2.67459e-27
-2.67472e-27
-2.67486e-27
-2.67501e-27
-2.67516e-27
-2.67531e-27
-2.67547e-27
-2.67562e-27
-2.67578e-27
-2.67594e-27
-2.6761e-27
-2.67626e-27
-2.67643e-27
-2.67659e-27
-2.67676e-27
-2.67693e-27
-2.67709e-27
-2.67726e-27
-2.67744e-27
-2.67761e-27
-2.67779e-27
-2.67796e-27
-2.67814e-27
-2.67832e-27
-2.6785e-27
-2.67869e-27
-2.67887e-27
-2.67905e-27
-2.67924e-27
-2.67942e-27
-2.6796e-27
-2.67978e-27
-2.67996e-27
-2.68014e-27
-2.68032e-27
-2.68049e-27
-2.68066e-27
-2.68082e-27
-2.68098e-27
-2.68113e-27
-2.68127e-27
-2.68141e-27
-2.68155e-27
-2.68167e-27
-2.68179e-27
-2.68189e-27
-2.68199e-27
-2.68208e-27
-2.68215e-27
-2.68222e-27
-2.68227e-27
-2.6823e-27
-2.68229e-27
-2.68218e-27
-2.68178e-27
-2.68043e-27
-2.67595e-27
-2.66119e-27
-2.61266e-27
-2.45369e-27
-1.93496e-27
-2.49407e-28
5.20491e-27
2.27836e-26
7.92173e-26
2.59715e-25
8.3497e-25
2.66215e-24
8.44727e-24
2.67088e-23
8.41917e-23
2.64658e-22
8.29842e-22
2.5959e-21
8.10293e-21
2.52428e-20
7.84969e-20
2.43703e-19
7.55506e-19
2.33913e-18
7.23406e-18
2.23507e-17
6.90013e-17
2.1289e-16
6.56557e-16
2.02445e-15
6.2429e-15
1.92607e-14
5.94821e-14
1.8401e-13
5.70788e-13
1.77793e-12
5.57237e-12
1.76225e-11
5.64448e-11
1.83983e-10
6.13735e-10
2.11854e-09
7.5496e-09
2.79032e-08
1.07218e-07
4.2762e-07
1.7626e-06
7.46619e-06
3.23116e-05
0.000142141
0.000632966
0.00284491
0.012882
0.0587189
0.269486
1.24688
5.8314
27.7083
145.103
824.558
5989.19
44838.1
389509
3.63537e+06
3.46036e+07
3.04039e+08
1.95719e+09
6.76734e+09
1.19093e+10
1.37012e+10
1.38937e+10
1.3916e+10
1.35663e+10
1.24226e+10
1.0594e+10
8.60037e+09
6.98795e+09
5.78766e+09
4.87016e+09
4.17001e+09
3.62757e+09
3.19902e+09
2.85365e+09
2.57009e+09
2.33339e+09
2.13293e+09
1.96107e+09
1.81214e+09
1.68191e+09
1.56712e+09
1.46523e+09
1.37425e+09
1.29256e+09
1.21885e+09
1.15205e+09
1.09128e+09
1.03578e+09
9.84934e+08
9.38206e+08
8.95151e+08
8.55396e+08
8.18676e+08
7.85583e+08
7.55237e+08
7.26674e+08
6.99826e+08
6.74542e+08
6.50679e+08
6.28133e+08
6.06802e+08
5.86597e+08
5.67434e+08
5.49239e+08
5.31947e+08
5.15495e+08
4.99826e+08
4.84891e+08
4.70641e+08
4.57034e+08
4.4403e+08
4.31592e+08
4.19687e+08
4.08282e+08
3.9735e+08
3.86864e+08
3.76798e+08
3.67129e+08
3.57836e+08
3.48899e+08
3.403e+08
3.3202e+08
3.24043e+08
3.16354e+08
3.08939e+08
3.01784e+08
2.94876e+08
2.88205e+08
2.81759e+08
2.75526e+08
2.69498e+08
2.63666e+08
2.58019e+08
2.52551e+08
2.47254e+08
2.42119e+08
2.3714e+08
2.32311e+08
2.27626e+08
2.23078e+08
2.18662e+08
2.14372e+08
2.10204e+08
2.06153e+08
2.02215e+08
1.98384e+08
1.94658e+08
1.91032e+08
1.87503e+08
1.84067e+08
1.80721e+08
1.77461e+08
1.74286e+08
1.71192e+08
1.68177e+08
1.65245e+08
1.62392e+08
1.59608e+08
1.56875e+08
1.54203e+08
1.51596e+08
1.49051e+08
1.46565e+08
1.44137e+08
1.41764e+08
1.39447e+08
1.37181e+08
1.34967e+08
1.32802e+08
1.30684e+08
1.28613e+08
1.26587e+08
1.24605e+08
1.22665e+08
1.20766e+08
1.18907e+08
1.17087e+08
1.15305e+08
1.13559e+08
1.11849e+08
1.10173e+08
1.08531e+08
1.06922e+08
1.05345e+08
1.03798e+08
1.02282e+08
1.00795e+08
9.93368e+07
9.79063e+07
9.65029e+07
9.5126e+07
9.37748e+07
9.24488e+07
9.11469e+07
8.98692e+07
8.86147e+07
8.7383e+07
8.61734e+07
8.49854e+07
8.38186e+07
8.26724e+07
8.15463e+07
8.04399e+07
7.93527e+07
7.82843e+07
7.72343e+07
7.62022e+07
7.51876e+07
7.41902e+07
7.32094e+07
7.22455e+07
7.12971e+07
7.03646e+07
6.94474e+07
6.85452e+07
6.76578e+07
6.67847e+07
6.59257e+07
6.50805e+07
6.42488e+07
6.34303e+07
6.26248e+07
6.18319e+07
6.10515e+07
6.02832e+07
5.95269e+07
5.87822e+07
5.8049e+07
5.73272e+07
5.66154e+07
5.59155e+07
5.5226e+07
5.45468e+07
5.38777e+07
5.32186e+07
5.25693e+07
5.19296e+07
5.12993e+07
5.06784e+07
5.00659e+07
4.9463e+07
4.88688e+07
4.82832e+07
4.7706e+07
4.71371e+07
4.65763e+07
4.60236e+07
4.54788e+07
4.49417e+07
4.44123e+07
4.38904e+07
4.33759e+07
4.28686e+07
4.23686e+07
4.18755e+07
4.13894e+07
4.09101e+07
4.04375e+07
3.99716e+07
3.95121e+07
3.90591e+07
3.86124e+07
3.81718e+07
3.77374e+07
3.7309e+07
3.68865e+07
3.64698e+07
3.60588e+07
3.56535e+07
3.52535e+07
3.48587e+07
3.44689e+07
3.40837e+07
3.37026e+07
3.3324e+07
3.29467e+07
3.25676e+07
3.21839e+07
3.17932e+07
3.14085e+07
3.11113e+07
)
;

boundaryField
{
    boundary
    {
        type            empty;
    }
    inlet
    {
        type            calculated;
        value           uniform 0;
    }
    outlet
    {
        type            calculated;
        value           uniform 0;
    }
}


// ************************************************************************* //
