/*--------------------------------*- C++ -*----------------------------------*\
  =========                 |
  \\      /  F ield         | OpenFOAM: The Open Source CFD Toolbox
   \\    /   O peration     | Website:  https://openfoam.org
    \\  /    A nd           | Version:  7
     \\/     M anipulation  |
\*---------------------------------------------------------------------------*/
FoamFile
{
    version     2.0;
    format      ascii;
    class       volScalarField;
    location    "0.00081";
    object      rho;
}
// * * * * * * * * * * * * * * * * * * * * * * * * * * * * * * * * * * * * * //

dimensions      [1 -3 0 0 0 0 0];

internalField   nonuniform List<scalar> 
500
(
0.864688
0.864685
0.864683
0.864682
0.864682
0.864683
0.864686
0.86469
0.864697
0.864705
0.864715
0.864726
0.864738
0.864751
0.864764
0.864776
0.864788
0.864798
0.864807
0.864814
0.864819
0.864822
0.864823
0.864821
0.864816
0.86481
0.864801
0.864789
0.864776
0.864759
0.86474
0.864718
0.864693
0.864665
0.864632
0.864596
0.864555
0.864509
0.864457
0.864399
0.864334
0.864263
0.864185
0.864099
0.864006
0.863905
0.863796
0.863681
0.863558
0.863429
0.863294
0.863154
0.86301
0.862863
0.862714
0.862563
0.862413
0.862264
0.862116
0.861972
0.861833
0.861698
0.861569
0.861447
0.861332
0.861224
0.861123
0.861031
0.860946
0.860869
0.860799
0.860737
0.860681
0.860632
0.860589
0.860551
0.860519
0.860491
0.860467
0.860446
0.860429
0.860415
0.860403
0.860393
0.860385
0.860378
0.860373
0.860369
0.860365
0.860363
0.86036
0.860359
0.860357
0.860356
0.860355
0.860355
0.860354
0.860354
0.860354
0.860353
0.860353
0.860353
0.860353
0.860353
0.860352
0.860352
0.860352
0.860352
0.860352
0.860352
0.860352
0.860352
0.860351
0.860351
0.860351
0.860351
0.860351
0.860351
0.860351
0.86035
0.86035
0.86035
0.86035
0.86035
0.860349
0.860349
0.860349
0.860349
0.860348
0.860348
0.860347
0.860347
0.860346
0.860346
0.860345
0.860345
0.860344
0.860344
0.860343
0.860343
0.860343
0.860343
0.860342
0.860342
0.860342
0.860342
0.860341
0.860341
0.860341
0.860341
0.86034
0.86034
0.860339
0.860339
0.860339
0.860338
0.860338
0.860337
0.860337
0.860336
0.860335
0.860335
0.860334
0.860334
0.860333
0.860333
0.860332
0.860331
0.860331
0.86033
0.86033
0.860329
0.860328
0.860328
0.860327
0.860327
0.860326
0.860325
0.860325
0.860324
0.860323
0.860323
0.860322
0.860321
0.860321
0.86032
0.860319
0.860319
0.860318
0.860317
0.860317
0.860316
0.860316
0.860315
0.860315
0.860314
0.860314
0.860313
0.860313
0.860312
0.860312
0.860312
0.860311
0.860311
0.860311
0.860311
0.860311
0.860311
0.860311
0.860311
0.860311
0.860311
0.860311
0.860312
0.860312
0.860312
0.860313
0.860313
0.860314
0.860315
0.860316
0.860317
0.860318
0.860319
0.86032
0.860321
0.860323
0.860324
0.860326
0.860327
0.860329
0.860331
0.860333
0.860336
0.860338
0.86034
0.860343
0.860346
0.860349
0.860352
0.860355
0.860358
0.860361
0.860365
0.860369
0.860373
0.860377
0.860381
0.860385
0.86039
0.860395
0.8604
0.860405
0.86041
0.860416
0.860421
0.860426
0.860432
0.860437
0.860443
0.860449
0.860456
0.860463
0.86047
0.860477
0.860485
0.860491
0.860492
0.860471
0.860375
0.86004
0.858978
0.85575
0.84626
0.819805
0.755253
0.638696
0.503667
0.39754
0.327692
0.281506
0.249249
0.22625
0.210185
0.198285
0.189066
0.182425
0.177507
0.173544
0.170285
0.167544
0.165197
0.163158
0.161364
0.159769
0.158339
0.157048
0.155873
0.1548
0.153814
0.152904
0.152061
0.151277
0.150546
0.149862
0.14922
0.148617
0.148048
0.147511
0.147003
0.146523
0.146067
0.145647
0.145254
0.144876
0.144512
0.144163
0.143826
0.143501
0.143188
0.142886
0.142594
0.142312
0.142038
0.141774
0.141517
0.141268
0.141027
0.140793
0.140565
0.140344
0.140129
0.139919
0.139716
0.139517
0.139324
0.139135
0.138951
0.138772
0.138597
0.138426
0.138259
0.138095
0.137936
0.13778
0.137627
0.137478
0.137332
0.137189
0.137049
0.136911
0.136777
0.136645
0.136516
0.136389
0.136265
0.136143
0.136024
0.135907
0.135791
0.135678
0.135567
0.135458
0.135351
0.135246
0.135143
0.135041
0.134941
0.134843
0.134746
0.134651
0.134557
0.134465
0.134375
0.134286
0.134199
0.134113
0.134028
0.133944
0.133861
0.13378
0.133699
0.13362
0.133542
0.133465
0.133389
0.133314
0.13324
0.133167
0.133095
0.133024
0.132954
0.132885
0.132817
0.13275
0.132683
0.132618
0.132553
0.132489
0.132426
0.132363
0.132302
0.132241
0.13218
0.132121
0.132062
0.132004
0.131947
0.13189
0.131834
0.131779
0.131724
0.13167
0.131616
0.131563
0.131511
0.131459
0.131408
0.131357
0.131307
0.131258
0.131209
0.13116
0.131112
0.131065
0.131018
0.130971
0.130925
0.130879
0.130834
0.130789
0.130745
0.130701
0.130658
0.130615
0.130572
0.13053
0.130488
0.130447
0.130406
0.130365
0.130325
0.130285
0.130245
0.130206
0.130167
0.130128
0.13009
0.130052
0.130015
0.129977
0.12994
0.129904
0.129867
0.129831
0.129796
0.12976
0.129725
0.12969
0.129655
0.129621
0.129587
0.129553
0.12952
0.129486
0.129453
0.12942
0.129388
0.129355
0.129323
0.129291
0.12926
0.129228
0.129197
0.129166
0.129135
0.129104
0.129074
0.129044
0.129014
0.128984
0.128954
0.128925
0.128896
0.128867
0.128838
0.12881
0.128781
0.128753
0.128726
0.128698
0.128671
0.128644
0.128617
0.12859
0.128564
0.128537
0.128512
0.128489
0.128474
)
;

boundaryField
{
    boundary
    {
        type            empty;
    }
    inlet
    {
        type            calculated;
        value           uniform 0.86469;
    }
    outlet
    {
        type            calculated;
        value           uniform 0.128474;
    }
}


// ************************************************************************* //
