/*--------------------------------*- C++ -*----------------------------------*\
  =========                 |
  \\      /  F ield         | OpenFOAM: The Open Source CFD Toolbox
   \\    /   O peration     | Website:  https://openfoam.org
    \\  /    A nd           | Version:  7
     \\/     M anipulation  |
\*---------------------------------------------------------------------------*/
FoamFile
{
    version     2.0;
    format      ascii;
    class       volScalarField;
    location    "0.00049";
    object      H2O;
}
// * * * * * * * * * * * * * * * * * * * * * * * * * * * * * * * * * * * * * //

dimensions      [0 0 0 0 0 0 0];

internalField   nonuniform List<scalar> 
500
(
7.90606e-48
2.28602e-47
4.11555e-47
6.17243e-47
8.3848e-47
1.07046e-46
1.31e-46
1.55502e-46
1.80422e-46
2.05686e-46
2.31258e-46
2.57137e-46
2.83348e-46
3.09938e-46
3.36975e-46
3.64548e-46
3.92763e-46
4.2174e-46
4.51614e-46
4.82525e-46
5.14613e-46
5.48011e-46
5.82836e-46
6.19176e-46
6.5708e-46
6.96547e-46
7.37522e-46
7.79881e-46
8.23434e-46
8.67924e-46
9.13029e-46
9.58373e-46
1.00354e-45
1.04809e-45
1.09157e-45
1.13354e-45
1.1736e-45
1.21139e-45
1.24662e-45
1.27906e-45
1.30856e-45
1.33506e-45
1.35857e-45
1.37917e-45
1.39699e-45
1.41221e-45
1.42506e-45
1.43577e-45
1.44458e-45
1.45175e-45
1.45751e-45
1.46208e-45
1.46567e-45
1.46846e-45
1.47059e-45
1.47221e-45
1.47342e-45
1.47432e-45
1.47498e-45
1.47546e-45
1.47581e-45
1.47605e-45
1.47622e-45
1.47635e-45
1.47643e-45
1.47649e-45
1.47653e-45
1.47656e-45
1.47658e-45
1.4766e-45
1.47661e-45
1.47662e-45
1.47663e-45
1.47664e-45
1.47665e-45
1.47666e-45
1.47667e-45
1.47668e-45
1.47669e-45
1.4767e-45
1.47671e-45
1.47672e-45
1.47674e-45
1.47675e-45
1.47676e-45
1.47678e-45
1.4768e-45
1.47682e-45
1.47684e-45
1.47686e-45
1.47688e-45
1.4769e-45
1.47692e-45
1.47695e-45
1.47698e-45
1.477e-45
1.47703e-45
1.47706e-45
1.4771e-45
1.47713e-45
1.47717e-45
1.4772e-45
1.47724e-45
1.47728e-45
1.47732e-45
1.47737e-45
1.47741e-45
1.47746e-45
1.47751e-45
1.47756e-45
1.47761e-45
1.47766e-45
1.47772e-45
1.47778e-45
1.47784e-45
1.4779e-45
1.47797e-45
1.47803e-45
1.4781e-45
1.47817e-45
1.47823e-45
1.47827e-45
1.47821e-45
1.47779e-45
1.47602e-45
1.47273e-45
1.47292e-45
1.47318e-45
1.47352e-45
1.47395e-45
1.47447e-45
1.47508e-45
1.47576e-45
1.47648e-45
1.47721e-45
1.47791e-45
1.47855e-45
1.4791e-45
1.47955e-45
1.4799e-45
1.48015e-45
1.48031e-45
1.48039e-45
1.48041e-45
1.48038e-45
1.48032e-45
1.48024e-45
1.48014e-45
1.48005e-45
1.47996e-45
1.47989e-45
1.47984e-45
1.47982e-45
1.47984e-45
1.4799e-45
1.47999e-45
1.48013e-45
1.4803e-45
1.4805e-45
1.48073e-45
1.48098e-45
1.48124e-45
1.48151e-45
1.48178e-45
1.48205e-45
1.48231e-45
1.48256e-45
1.4828e-45
1.48302e-45
1.48322e-45
1.48341e-45
1.48358e-45
1.48373e-45
1.48387e-45
1.48399e-45
1.48411e-45
1.4842e-45
1.48429e-45
1.48437e-45
1.48443e-45
1.48449e-45
1.48453e-45
1.48457e-45
1.48459e-45
1.48461e-45
1.48461e-45
1.48461e-45
1.48459e-45
1.48456e-45
1.48452e-45
1.48446e-45
1.48439e-45
1.48431e-45
1.48421e-45
1.4841e-45
1.48398e-45
1.48383e-45
1.48367e-45
1.48349e-45
1.4833e-45
1.48308e-45
1.48285e-45
1.48262e-45
1.48246e-45
1.48272e-45
1.48492e-45
1.49608e-45
1.5476e-45
1.7796e-45
2.81213e-45
7.3701e-45
2.73485e-44
1.14359e-43
4.91171e-43
2.11525e-42
9.08988e-42
3.89773e-41
1.66993e-40
7.16177e-40
3.08116e-39
1.33283e-38
5.80985e-38
2.55697e-37
1.13776e-36
5.12152e-36
2.33152e-35
1.07221e-34
4.97195e-34
2.31951e-33
1.086e-32
5.09077e-32
2.38401e-31
1.11321e-30
5.17497e-30
2.39198e-29
1.09828e-28
5.00587e-28
2.26388e-27
1.01558e-26
4.51869e-26
1.99406e-25
8.72819e-25
3.78992e-24
1.6328e-23
6.98114e-23
2.96289e-22
1.24859e-21
5.22605e-21
2.17333e-20
8.98353e-20
3.69252e-19
1.52317e-18
6.22116e-18
2.52209e-17
1.01788e-16
4.09368e-16
1.64157e-15
6.56621e-15
2.62087e-14
1.04424e-13
4.15441e-13
1.65079e-12
6.55321e-12
2.59947e-11
1.03054e-10
4.08381e-10
1.61784e-09
6.408e-09
2.53774e-08
1.00488e-07
3.97812e-07
1.57415e-06
6.22276e-06
2.45408e-05
9.61827e-05
0.000370628
0.00136439
0.00449732
0.0120517
0.0249417
0.0416994
0.0619961
0.0861271
0.112156
0.136033
0.154594
0.170707
0.180185
0.186548
0.190867
0.193885
0.196085
0.19777
0.199126
0.200266
0.20126
0.202151
0.202967
0.203725
0.204435
0.205106
0.205743
0.206351
0.206931
0.207486
0.208019
0.208531
0.209024
0.209498
0.209955
0.210395
0.21082
0.211217
0.211595
0.211964
0.212322
0.212671
0.213012
0.213344
0.213669
0.213985
0.214295
0.214597
0.214893
0.215183
0.215466
0.215744
0.216016
0.216282
0.216544
0.2168
0.217052
0.217299
0.217542
0.217781
0.218015
0.218246
0.218473
0.218696
0.218915
0.219131
0.219344
0.219553
0.219759
0.219962
0.220162
0.220359
0.220554
0.220745
0.220934
0.22112
0.221303
0.221484
0.221663
0.221839
0.222012
0.222183
0.222352
0.222519
0.222684
0.222846
0.223006
0.223165
0.223321
0.223475
0.223628
0.223779
0.223927
0.224075
0.22422
0.224364
0.224506
0.224647
0.224787
0.224925
0.225062
0.225198
0.225332
0.225465
0.225596
0.225726
0.225855
0.225983
0.22611
0.226235
0.22636
0.226484
0.226607
0.226729
0.22685
0.226971
0.227091
0.227211
0.22733
0.227448
0.227566
0.227683
0.227801
0.227918
0.228035
0.228151
0.228268
0.228385
0.228498
0.228647
0.228762
0.228878
0.228996
0.229115
0.229235
0.229356
0.229479
0.229602
0.229727
0.229854
0.229981
0.23011
0.230241
0.230373
0.230506
0.230642
0.230779
0.230917
0.231058
0.2312
0.231345
0.231491
0.231638
0.231788
0.231939
0.232092
0.232247
0.232403
0.232561
0.23272
0.23288
0.233041
0.233203
0.233366
0.23353
0.233694
0.233858
0.234022
0.234185
0.234349
0.234511
0.234673
0.234834
0.234994
0.235152
0.235308
0.235463
0.235615
0.235765
0.235913
0.236059
0.236202
0.236342
0.236479
0.236614
0.236745
0.236874
0.237
0.237122
0.237242
0.237358
0.237472
0.237583
0.23769
0.237795
0.237897
0.237995
0.238092
0.238185
0.238276
0.238364
0.238449
0.238532
0.238612
0.23869
0.238766
0.238839
0.238909
0.238977
0.239043
0.239107
0.239168
0.239226
0.239283
0.239336
0.239388
0.239436
0.239482
0.239526
0.239566
0.239602
0.239635
0.239663
0.239686
0.2397
)
;

boundaryField
{
    boundary
    {
        type            empty;
    }
    inlet
    {
        type            fixedValue;
        value           uniform 0;
    }
    outlet
    {
        type            zeroGradient;
    }
}


// ************************************************************************* //
