/*--------------------------------*- C++ -*----------------------------------*\
  =========                 |
  \\      /  F ield         | OpenFOAM: The Open Source CFD Toolbox
   \\    /   O peration     | Website:  https://openfoam.org
    \\  /    A nd           | Version:  7
     \\/     M anipulation  |
\*---------------------------------------------------------------------------*/
FoamFile
{
    version     2.0;
    format      ascii;
    class       volScalarField;
    location    "0.00049";
    object      HO2;
}
// * * * * * * * * * * * * * * * * * * * * * * * * * * * * * * * * * * * * * //

dimensions      [0 0 0 0 0 0 0];

internalField   nonuniform List<scalar> 
500
(
5.60496e-38
1.27637e-37
1.99577e-37
2.71671e-37
3.43884e-37
4.16216e-37
4.88684e-37
5.61311e-37
6.34134e-37
7.07202e-37
7.80586e-37
8.54379e-37
9.28697e-37
1.00369e-36
1.07952e-36
1.15642e-36
1.2346e-36
1.31435e-36
1.39593e-36
1.47965e-36
1.56578e-36
1.65459e-36
1.74628e-36
1.84099e-36
1.93876e-36
2.03952e-36
2.14304e-36
2.24898e-36
2.35682e-36
2.46589e-36
2.5754e-36
2.68446e-36
2.79209e-36
2.89728e-36
2.99904e-36
3.09641e-36
3.18855e-36
3.27474e-36
3.35441e-36
3.42717e-36
3.49281e-36
3.55131e-36
3.6028e-36
3.64756e-36
3.68598e-36
3.71856e-36
3.74585e-36
3.76842e-36
3.78687e-36
3.80177e-36
3.81366e-36
3.82303e-36
3.83034e-36
3.83597e-36
3.84025e-36
3.84348e-36
3.84589e-36
3.84767e-36
3.84896e-36
3.8499e-36
3.85056e-36
3.85104e-36
3.85137e-36
3.85161e-36
3.85177e-36
3.85188e-36
3.85196e-36
3.85202e-36
3.85206e-36
3.85209e-36
3.85212e-36
3.85214e-36
3.85216e-36
3.85217e-36
3.85219e-36
3.85221e-36
3.85223e-36
3.85225e-36
3.85228e-36
3.8523e-36
3.85232e-36
3.85235e-36
3.85238e-36
3.85241e-36
3.85244e-36
3.85248e-36
3.85251e-36
3.85255e-36
3.85259e-36
3.85263e-36
3.85268e-36
3.85273e-36
3.85277e-36
3.85283e-36
3.85288e-36
3.85294e-36
3.853e-36
3.85306e-36
3.85313e-36
3.8532e-36
3.85327e-36
3.85335e-36
3.85342e-36
3.85351e-36
3.85359e-36
3.85368e-36
3.85377e-36
3.85387e-36
3.85397e-36
3.85407e-36
3.85418e-36
3.85429e-36
3.8544e-36
3.85452e-36
3.85464e-36
3.85477e-36
3.8549e-36
3.85503e-36
3.85517e-36
3.85531e-36
3.85544e-36
3.85552e-36
3.8554e-36
3.85448e-36
3.85041e-36
3.84233e-36
3.84264e-36
3.84304e-36
3.84357e-36
3.84423e-36
3.84507e-36
3.84609e-36
3.84727e-36
3.84858e-36
3.84996e-36
3.85133e-36
3.85262e-36
3.85375e-36
3.85465e-36
3.85529e-36
3.85566e-36
3.85578e-36
3.85566e-36
3.85538e-36
3.85497e-36
3.8545e-36
3.85403e-36
3.85361e-36
3.85327e-36
3.85305e-36
3.85298e-36
3.85306e-36
3.85329e-36
3.85367e-36
3.85418e-36
3.85481e-36
3.85554e-36
3.85634e-36
3.85719e-36
3.85807e-36
3.85896e-36
3.85984e-36
3.86069e-36
3.86151e-36
3.86228e-36
3.863e-36
3.86366e-36
3.86426e-36
3.8648e-36
3.86529e-36
3.86573e-36
3.86612e-36
3.86646e-36
3.86677e-36
3.86704e-36
3.86728e-36
3.86749e-36
3.86767e-36
3.86783e-36
3.86797e-36
3.86809e-36
3.86818e-36
3.86826e-36
3.86831e-36
3.86834e-36
3.86836e-36
3.86835e-36
3.86832e-36
3.86826e-36
3.86818e-36
3.86808e-36
3.86794e-36
3.86778e-36
3.8676e-36
3.86738e-36
3.86713e-36
3.86684e-36
3.86653e-36
3.86618e-36
3.86579e-36
3.86536e-36
3.8649e-36
3.86439e-36
3.86384e-36
3.86325e-36
3.86262e-36
3.86194e-36
3.86121e-36
3.86043e-36
3.85961e-36
3.85873e-36
3.8578e-36
3.85682e-36
3.85579e-36
3.8547e-36
3.85358e-36
3.85246e-36
3.85157e-36
3.85177e-36
3.85653e-36
3.87978e-36
3.97648e-36
4.36224e-36
5.87517e-36
1.17465e-35
3.43352e-35
1.20555e-34
4.47256e-34
1.67698e-33
6.27907e-33
2.34215e-32
8.70682e-32
3.23023e-31
1.19833e-30
4.45563e-30
1.66491e-29
6.26987e-29
2.38634e-28
9.20199e-28
3.6016e-27
1.43208e-26
5.78421e-26
2.37057e-25
9.84014e-25
4.12765e-24
1.7455e-23
7.42438e-23
3.17003e-22
1.3565e-21
5.81009e-21
2.48865e-20
1.07402e-19
4.60818e-19
1.96922e-18
8.39918e-18
3.57737e-17
1.52175e-16
6.46585e-16
2.74446e-15
1.16383e-14
4.93138e-14
2.08807e-13
8.83598e-13
3.73706e-12
1.57975e-11
6.67477e-11
2.81876e-10
1.18964e-09
5.01695e-09
2.11361e-08
8.88755e-08
3.72336e-07
1.54596e-06
6.30174e-06
2.46849e-05
8.83198e-05
0.00025691
0.000476875
0.000513931
0.000429616
0.000317034
0.000223894
0.000156861
0.000109668
7.68997e-05
5.51115e-05
3.83786e-05
2.91606e-05
2.32362e-05
1.93349e-05
1.66752e-05
1.4785e-05
1.33823e-05
1.22981e-05
1.14296e-05
1.07126e-05
1.01063e-05
9.58355e-06
9.12604e-06
8.72074e-06
8.35819e-06
8.03131e-06
7.73465e-06
7.46392e-06
7.21566e-06
6.98709e-06
6.77587e-06
6.58006e-06
6.39803e-06
6.2284e-06
6.07002e-06
5.92197e-06
5.78762e-06
5.66283e-06
5.54447e-06
5.43206e-06
5.32515e-06
5.22336e-06
5.12632e-06
5.03371e-06
4.94522e-06
4.8606e-06
4.77959e-06
4.70197e-06
4.62753e-06
4.55608e-06
4.48744e-06
4.42145e-06
4.35796e-06
4.29682e-06
4.23791e-06
4.18111e-06
4.12631e-06
4.0734e-06
4.02228e-06
3.97287e-06
3.92508e-06
3.87884e-06
3.83407e-06
3.7907e-06
3.74867e-06
3.70792e-06
3.6684e-06
3.63005e-06
3.59283e-06
3.55668e-06
3.52157e-06
3.48745e-06
3.45429e-06
3.42205e-06
3.39069e-06
3.36018e-06
3.33049e-06
3.30159e-06
3.27345e-06
3.24604e-06
3.21934e-06
3.19333e-06
3.16797e-06
3.14325e-06
3.11915e-06
3.09563e-06
3.07269e-06
3.0503e-06
3.02844e-06
3.0071e-06
2.98626e-06
2.96589e-06
2.94599e-06
2.92653e-06
2.90751e-06
2.88889e-06
2.87068e-06
2.85284e-06
2.83536e-06
2.81822e-06
2.80142e-06
2.78499e-06
2.7689e-06
2.75312e-06
2.73765e-06
2.72248e-06
2.70758e-06
2.69297e-06
2.67861e-06
2.66451e-06
2.65065e-06
2.63702e-06
2.62361e-06
2.61042e-06
2.59743e-06
2.58463e-06
2.57201e-06
2.55956e-06
2.54728e-06
2.53515e-06
2.52315e-06
2.51129e-06
2.49955e-06
2.48792e-06
2.47638e-06
2.4649e-06
2.4535e-06
2.44262e-06
2.42789e-06
2.4169e-06
2.40581e-06
2.39461e-06
2.38331e-06
2.37192e-06
2.36043e-06
2.34884e-06
2.33713e-06
2.3253e-06
2.31332e-06
2.30119e-06
2.28889e-06
2.27641e-06
2.26373e-06
2.25083e-06
2.23772e-06
2.22436e-06
2.21076e-06
2.1969e-06
2.18276e-06
2.16835e-06
2.15365e-06
2.13866e-06
2.12338e-06
2.1078e-06
2.09193e-06
2.07578e-06
2.05933e-06
2.04262e-06
2.02564e-06
2.00841e-06
1.99094e-06
1.97327e-06
1.95541e-06
1.93738e-06
1.91922e-06
1.90096e-06
1.88262e-06
1.86425e-06
1.84588e-06
1.82755e-06
1.8093e-06
1.79119e-06
1.77324e-06
1.75552e-06
1.73806e-06
1.72091e-06
1.70412e-06
1.68774e-06
1.67181e-06
1.65638e-06
1.64149e-06
1.62718e-06
1.61349e-06
1.60047e-06
1.58815e-06
1.57656e-06
1.56573e-06
1.55568e-06
1.54645e-06
1.53804e-06
1.53047e-06
1.52375e-06
1.51789e-06
1.51289e-06
1.50874e-06
1.50544e-06
1.50297e-06
1.50131e-06
1.50045e-06
1.50036e-06
1.50101e-06
1.50236e-06
1.50438e-06
1.50704e-06
1.51028e-06
1.51406e-06
1.51835e-06
1.52308e-06
1.52822e-06
1.53371e-06
1.5395e-06
1.54556e-06
1.55182e-06
1.55824e-06
1.56477e-06
1.57138e-06
1.578e-06
1.5846e-06
1.59111e-06
1.59747e-06
1.60357e-06
1.60922e-06
1.61407e-06
1.61735e-06
)
;

boundaryField
{
    boundary
    {
        type            empty;
    }
    inlet
    {
        type            fixedValue;
        value           uniform 0;
    }
    outlet
    {
        type            zeroGradient;
    }
}


// ************************************************************************* //
