/*--------------------------------*- C++ -*----------------------------------*\
  =========                 |
  \\      /  F ield         | OpenFOAM: The Open Source CFD Toolbox
   \\    /   O peration     | Website:  https://openfoam.org
    \\  /    A nd           | Version:  7
     \\/     M anipulation  |
\*---------------------------------------------------------------------------*/
FoamFile
{
    version     2.0;
    format      ascii;
    class       volScalarField;
    location    "0.00049";
    object      O;
}
// * * * * * * * * * * * * * * * * * * * * * * * * * * * * * * * * * * * * * //

dimensions      [0 0 0 0 0 0 0];

internalField   nonuniform List<scalar> 
500
(
1.58116e-47
3.77571e-47
5.98629e-47
8.20193e-47
1.04207e-46
1.26426e-46
1.48686e-46
1.71e-46
1.93385e-46
2.15865e-46
2.38474e-46
2.61253e-46
2.84254e-46
3.07539e-46
3.31184e-46
3.55272e-46
3.79902e-46
4.05178e-46
4.31211e-46
4.58116e-46
4.86004e-46
5.14975e-46
5.45117e-46
5.76491e-46
6.09128e-46
6.4302e-46
6.78114e-46
7.1431e-46
7.51453e-46
7.89341e-46
8.27722e-46
8.66303e-46
9.0476e-46
9.42746e-46
9.79908e-46
1.0159e-45
1.05039e-45
1.08309e-45
1.11375e-45
1.14217e-45
1.16821e-45
1.19179e-45
1.21291e-45
1.23158e-45
1.24791e-45
1.26202e-45
1.27406e-45
1.28422e-45
1.2927e-45
1.29969e-45
1.30538e-45
1.30997e-45
1.31362e-45
1.3165e-45
1.31875e-45
1.32047e-45
1.32179e-45
1.32279e-45
1.32353e-45
1.32408e-45
1.32448e-45
1.32477e-45
1.32498e-45
1.32513e-45
1.32523e-45
1.32531e-45
1.32536e-45
1.3254e-45
1.32543e-45
1.32545e-45
1.32546e-45
1.32547e-45
1.32548e-45
1.32549e-45
1.3255e-45
1.32551e-45
1.32552e-45
1.32553e-45
1.32554e-45
1.32555e-45
1.32556e-45
1.32557e-45
1.32558e-45
1.3256e-45
1.32561e-45
1.32562e-45
1.32564e-45
1.32566e-45
1.32567e-45
1.32569e-45
1.32571e-45
1.32573e-45
1.32575e-45
1.32578e-45
1.3258e-45
1.32583e-45
1.32585e-45
1.32588e-45
1.32591e-45
1.32594e-45
1.32597e-45
1.32601e-45
1.32604e-45
1.32608e-45
1.32611e-45
1.32615e-45
1.32619e-45
1.32624e-45
1.32628e-45
1.32633e-45
1.32637e-45
1.32642e-45
1.32647e-45
1.32653e-45
1.32658e-45
1.32664e-45
1.32669e-45
1.32675e-45
1.32681e-45
1.32687e-45
1.32692e-45
1.32693e-45
1.32681e-45
1.32629e-45
1.32455e-45
1.32204e-45
1.32249e-45
1.32305e-45
1.32372e-45
1.32446e-45
1.32521e-45
1.32592e-45
1.32655e-45
1.32708e-45
1.32748e-45
1.32778e-45
1.32798e-45
1.32812e-45
1.32822e-45
1.32829e-45
1.32834e-45
1.32839e-45
1.32844e-45
1.32848e-45
1.32853e-45
1.32857e-45
1.32861e-45
1.32865e-45
1.3287e-45
1.32874e-45
1.32879e-45
1.32885e-45
1.32891e-45
1.32899e-45
1.32908e-45
1.32918e-45
1.3293e-45
1.32943e-45
1.32957e-45
1.32973e-45
1.32989e-45
1.33007e-45
1.33024e-45
1.33043e-45
1.33061e-45
1.33079e-45
1.33096e-45
1.33113e-45
1.3313e-45
1.33145e-45
1.3316e-45
1.33173e-45
1.33186e-45
1.33198e-45
1.33208e-45
1.33218e-45
1.33227e-45
1.33234e-45
1.33241e-45
1.33247e-45
1.33252e-45
1.33256e-45
1.33259e-45
1.33261e-45
1.33263e-45
1.33263e-45
1.33262e-45
1.33261e-45
1.33258e-45
1.33254e-45
1.33249e-45
1.33243e-45
1.33236e-45
1.33227e-45
1.33217e-45
1.33205e-45
1.33193e-45
1.33178e-45
1.33165e-45
1.33157e-45
1.33183e-45
1.33376e-45
1.34341e-45
1.38852e-45
1.59458e-45
2.52511e-45
6.68879e-45
2.51584e-44
1.06386e-43
4.60546e-43
1.99137e-42
8.5506e-42
3.64093e-41
1.53689e-40
6.43035e-40
2.66662e-39
1.09597e-38
4.46403e-38
1.8019e-37
7.20764e-37
2.85694e-36
1.12214e-35
4.36733e-35
1.68426e-34
6.43611e-34
2.43703e-33
9.1438e-33
3.39965e-32
1.25256e-31
4.57344e-31
1.65498e-30
5.93583e-30
2.11031e-29
7.43755e-29
2.59883e-28
9.00415e-28
3.09369e-27
1.05424e-26
3.5637e-26
1.19518e-25
3.97765e-25
1.31401e-24
4.31004e-24
1.40424e-23
4.54638e-23
1.46338e-22
4.68518e-22
1.4927e-21
4.73463e-21
1.49566e-20
4.70724e-20
1.48631e-19
4.66504e-19
1.45589e-18
4.52848e-18
1.40517e-17
4.35175e-17
1.34558e-16
4.15512e-16
1.28173e-15
3.95041e-15
1.21676e-14
3.74596e-14
1.15286e-13
3.54728e-13
1.09135e-12
3.35738e-12
1.0328e-11
3.17693e-11
9.77142e-11
3.00518e-10
9.24369e-10
2.84716e-09
8.82892e-09
2.81679e-08
9.95197e-08
4.55932e-07
2.92523e-06
1.96147e-05
9.73377e-05
0.000383685
0.00111988
0.00232616
0.00369456
0.00487264
0.00570042
0.00619592
0.00640179
0.00644483
0.00638818
0.00627393
0.0061289
0.00596955
0.00580569
0.00564297
0.00548452
0.00533197
0.00518608
0.00504705
0.00491483
0.00478919
0.0046698
0.00455633
0.00444842
0.00434572
0.0042479
0.00415464
0.00406565
0.00398067
0.00389945
0.00382177
0.00374747
0.00367853
0.00361347
0.00355067
0.00349
0.00343133
0.00337457
0.00331962
0.00326639
0.00321479
0.00316475
0.0031162
0.00306906
0.00302327
0.00297877
0.0029355
0.00289341
0.00285244
0.00281255
0.00277368
0.00273581
0.00269888
0.00266286
0.00262772
0.00259342
0.00255992
0.0025272
0.00249523
0.00246399
0.00243344
0.00240357
0.00237436
0.00234577
0.0023178
0.00229041
0.00226361
0.00223736
0.00221165
0.00218646
0.00216179
0.00213761
0.00211391
0.00209068
0.00206791
0.00204558
0.00202367
0.00200219
0.00198111
0.00196043
0.00194013
0.00192021
0.00190065
0.00188145
0.00186259
0.00184408
0.00182588
0.00180801
0.00179045
0.00177319
0.00175623
0.00173955
0.00172315
0.00170702
0.00169115
0.00167553
0.00166015
0.00164499
0.00163008
0.0016154
0.00160094
0.00158671
0.00157269
0.00155888
0.00154527
0.00153185
0.00151863
0.00150559
0.00149274
0.00148006
0.00146755
0.00145521
0.00144303
0.001431
0.00141912
0.00140739
0.00139579
0.00138433
0.00137299
0.00136177
0.00135067
0.00133967
0.00132882
0.00131837
0.00130528
0.00129484
0.00128441
0.00127398
0.00126357
0.00125318
0.00124281
0.00123246
0.00122213
0.0012118
0.00120148
0.00119115
0.00118082
0.00117047
0.0011601
0.0011497
0.00113928
0.00112881
0.00111831
0.00110775
0.00109715
0.00108649
0.00107577
0.00106499
0.00105415
0.00104325
0.00103228
0.00102125
0.00101015
0.000998998
0.000987788
0.000976525
0.000965216
0.000953866
0.000942483
0.000931074
0.000919648
0.000908215
0.000896785
0.00088537
0.000873982
0.000862632
0.000851334
0.0008401
0.000828944
0.000817879
0.00080692
0.000796078
0.000785367
0.0007748
0.00076439
0.000754147
0.000744083
0.000734208
0.000724531
0.000715062
0.000705806
0.000696772
0.000687964
0.000679386
0.000671042
0.000662934
0.000655062
0.000647426
0.000640024
0.000632855
0.000625915
0.000619199
0.000612703
0.00060642
0.000600344
0.000594467
0.000588782
0.00058328
0.000577953
0.000572792
0.000567788
0.000562933
0.000558218
0.000553635
0.000549178
0.000544839
0.000540614
0.000536499
0.000532492
0.000528596
0.000524814
0.000521156
0.000517639
0.000514286
0.000511132
0.000508223
0.000505623
0.000503419
0.000501724
0.000500713
)
;

boundaryField
{
    boundary
    {
        type            empty;
    }
    inlet
    {
        type            fixedValue;
        value           uniform 0;
    }
    outlet
    {
        type            zeroGradient;
    }
}


// ************************************************************************* //
