/*--------------------------------*- C++ -*----------------------------------*\
  =========                 |
  \\      /  F ield         | OpenFOAM: The Open Source CFD Toolbox
   \\    /   O peration     | Website:  https://openfoam.org
    \\  /    A nd           | Version:  7
     \\/     M anipulation  |
\*---------------------------------------------------------------------------*/
FoamFile
{
    version     2.0;
    format      ascii;
    class       volScalarField;
    location    "0.00049";
    object      O2;
}
// * * * * * * * * * * * * * * * * * * * * * * * * * * * * * * * * * * * * * //

dimensions      [0 0 0 0 0 0 0];

internalField   nonuniform List<scalar> 
500
(
0.226269
0.226269
0.226269
0.226269
0.226269
0.226269
0.226269
0.226269
0.226269
0.226269
0.226269
0.226269
0.226269
0.226269
0.226269
0.226269
0.226269
0.226269
0.226269
0.226269
0.226269
0.226269
0.226269
0.226269
0.226269
0.226269
0.226269
0.226269
0.226269
0.226269
0.226269
0.226269
0.226269
0.226269
0.226269
0.226269
0.226269
0.226269
0.226269
0.226269
0.226269
0.226269
0.226269
0.226269
0.226269
0.226269
0.226269
0.226269
0.226269
0.226269
0.226269
0.226269
0.226269
0.226269
0.226269
0.226269
0.226269
0.226269
0.226269
0.226269
0.226269
0.226269
0.226269
0.226269
0.226269
0.226269
0.226269
0.226269
0.226269
0.226269
0.226269
0.226269
0.226269
0.226269
0.226269
0.226269
0.226269
0.226269
0.226269
0.226269
0.226269
0.226269
0.226269
0.226269
0.226269
0.226269
0.226269
0.226269
0.226269
0.226269
0.226269
0.226269
0.226269
0.226269
0.226269
0.226269
0.226269
0.226269
0.226269
0.226269
0.226269
0.226269
0.226269
0.226269
0.226269
0.226269
0.226269
0.226269
0.226269
0.226269
0.226269
0.226269
0.226269
0.226269
0.226269
0.226269
0.226269
0.226269
0.226269
0.226269
0.226269
0.226269
0.226269
0.226269
0.226269
0.226269
0.226269
0.226269
0.226269
0.226269
0.226269
0.226269
0.226269
0.226269
0.226269
0.226269
0.226269
0.226269
0.226269
0.226269
0.226269
0.226269
0.226269
0.226269
0.226269
0.226269
0.226269
0.226269
0.226269
0.226269
0.226269
0.226269
0.226269
0.226269
0.226269
0.226269
0.226269
0.226269
0.226269
0.226269
0.226269
0.226269
0.226269
0.226269
0.226269
0.226269
0.226269
0.226269
0.226269
0.226269
0.226269
0.226269
0.226269
0.226269
0.226269
0.226269
0.226269
0.226269
0.226269
0.226269
0.226269
0.226269
0.226269
0.226269
0.226269
0.226269
0.226269
0.226269
0.226269
0.226269
0.226269
0.226269
0.226269
0.226269
0.226269
0.226269
0.226269
0.226269
0.226269
0.226269
0.226269
0.226269
0.226269
0.226269
0.226269
0.226269
0.226269
0.226269
0.226269
0.226269
0.226269
0.226269
0.226269
0.226269
0.226269
0.226269
0.226269
0.226269
0.226269
0.226269
0.226269
0.226269
0.226269
0.226269
0.226269
0.226269
0.226269
0.226269
0.226269
0.226269
0.226269
0.226269
0.226269
0.226269
0.226269
0.226269
0.226269
0.226269
0.226269
0.226269
0.226269
0.226269
0.226269
0.226269
0.226269
0.226269
0.226269
0.226269
0.226269
0.226269
0.226269
0.226269
0.226269
0.226269
0.226269
0.226269
0.226269
0.226269
0.226269
0.226269
0.226269
0.226269
0.226269
0.226269
0.226269
0.226269
0.226269
0.226269
0.22627
0.22627
0.226272
0.226274
0.226278
0.226275
0.226236
0.226029
0.22521
0.222675
0.216495
0.205678
0.191473
0.173446
0.150634
0.124834
0.100457
0.0812278
0.0639057
0.0537412
0.0468712
0.0422139
0.038992
0.0366888
0.0349743
0.0336414
0.0325611
0.0316526
0.0308653
0.0301666
0.0295352
0.028957
0.0284221
0.0279237
0.0274566
0.027017
0.0266017
0.0262083
0.0258348
0.0254794
0.0251408
0.0248177
0.0245091
0.0242143
0.0239414
0.0236828
0.0234328
0.023191
0.022957
0.0227302
0.0225104
0.0222971
0.0220899
0.0218886
0.0216928
0.0215022
0.0213166
0.0211357
0.0209593
0.0207871
0.0206189
0.0204546
0.0202939
0.0201368
0.0199829
0.0198322
0.0196846
0.0195399
0.0193979
0.0192587
0.019122
0.0189878
0.018856
0.0187266
0.0185994
0.0184744
0.0183515
0.0182306
0.0181118
0.0179949
0.0178799
0.0177668
0.0176555
0.017546
0.0174382
0.0173321
0.0172276
0.0171247
0.0170234
0.0169237
0.0168254
0.0167286
0.0166331
0.0165391
0.0164464
0.016355
0.0162649
0.0161759
0.0160882
0.0160016
0.0159161
0.0158317
0.0157483
0.0156658
0.0155843
0.0155035
0.0154235
0.0153441
0.0152656
0.0151885
0.0151121
0.0150366
0.0149617
0.0148876
0.0148142
0.0147413
0.0146691
0.0145974
0.0145263
0.0144556
0.0143854
0.0143156
0.0142462
0.0141772
0.0141084
0.0140399
0.0139716
0.0139034
0.0138354
0.0137675
0.0136995
0.0136316
0.0135635
0.0134951
0.0134265
0.0133601
0.0132691
0.0132011
0.0131319
0.0130616
0.01299
0.0129174
0.0128435
0.0127685
0.0126922
0.0126147
0.0125358
0.0124555
0.0123737
0.0122904
0.0122055
0.0121189
0.0120306
0.0119405
0.0118486
0.0117548
0.0116591
0.0115614
0.0114618
0.0113602
0.0112566
0.0111511
0.0110437
0.0109343
0.0108232
0.0107102
0.0105956
0.0104794
0.0103618
0.0102428
0.0101225
0.0100013
0.00987913
0.00975628
0.00963292
0.00950925
0.00938547
0.00926182
0.0091385
0.00901575
0.0088938
0.00877289
0.00865323
0.00853507
0.00841863
0.00830414
0.0081918
0.00808182
0.0079744
0.00786973
0.00776798
0.00766932
0.00757388
0.00748181
0.00739323
0.00730823
0.00722692
0.00714936
0.00707562
0.00700574
0.00693974
0.00687765
0.00681946
0.00676517
0.00671474
0.00666816
0.00662535
0.00658628
0.00655087
0.00651904
0.00649072
0.0064658
0.00644419
0.00642578
0.00641047
0.00639813
0.00638864
0.00638189
0.00637774
0.00637606
0.0063767
0.00637952
0.00638437
0.00639108
0.00639946
0.00640931
0.00642036
0.0064323
0.00644469
0.00645686
0.00646773
0.0064753
)
;

boundaryField
{
    boundary
    {
        type            empty;
    }
    inlet
    {
        type            fixedValue;
        value           uniform 0.226269;
    }
    outlet
    {
        type            zeroGradient;
    }
}


// ************************************************************************* //
