/*--------------------------------*- C++ -*----------------------------------*\
  =========                 |
  \\      /  F ield         | OpenFOAM: The Open Source CFD Toolbox
   \\    /   O peration     | Website:  https://openfoam.org
    \\  /    A nd           | Version:  7
     \\/     M anipulation  |
\*---------------------------------------------------------------------------*/
FoamFile
{
    version     2.0;
    format      ascii;
    class       volScalarField;
    location    "0.00049";
    object      OH;
}
// * * * * * * * * * * * * * * * * * * * * * * * * * * * * * * * * * * * * * //

dimensions      [0 0 0 0 0 0 0];

internalField   nonuniform List<scalar> 
500
(
9.39985e-48
1.83337e-47
2.44585e-47
2.8623e-47
3.14561e-47
3.33927e-47
3.4728e-47
3.56608e-47
3.63255e-47
3.68128e-47
3.71848e-47
3.74843e-47
3.77413e-47
3.79779e-47
3.82104e-47
3.8452e-47
3.87135e-47
3.90047e-47
3.93344e-47
3.9711e-47
4.01425e-47
4.06363e-47
4.11992e-47
4.1837e-47
4.25546e-47
4.33553e-47
4.42404e-47
4.52096e-47
4.62597e-47
4.73856e-47
4.85792e-47
4.98302e-47
5.11257e-47
5.24513e-47
5.37907e-47
5.5127e-47
5.6443e-47
5.77222e-47
5.89492e-47
6.01104e-47
6.11947e-47
6.21938e-47
6.3102e-47
6.39166e-47
6.46378e-47
6.5268e-47
6.58115e-47
6.62744e-47
6.66637e-47
6.69871e-47
6.72526e-47
6.74679e-47
6.76405e-47
6.77774e-47
6.78846e-47
6.79678e-47
6.80316e-47
6.808e-47
6.81163e-47
6.81434e-47
6.81634e-47
6.8178e-47
6.81885e-47
6.81962e-47
6.82017e-47
6.82056e-47
6.82084e-47
6.82105e-47
6.8212e-47
6.82132e-47
6.82141e-47
6.82149e-47
6.82156e-47
6.82162e-47
6.82168e-47
6.82174e-47
6.8218e-47
6.82186e-47
6.82193e-47
6.82199e-47
6.82207e-47
6.82214e-47
6.82222e-47
6.8223e-47
6.82239e-47
6.82248e-47
6.82258e-47
6.82268e-47
6.82279e-47
6.8229e-47
6.82302e-47
6.82314e-47
6.82327e-47
6.8234e-47
6.82354e-47
6.82369e-47
6.82384e-47
6.824e-47
6.82417e-47
6.82434e-47
6.82452e-47
6.82471e-47
6.8249e-47
6.8251e-47
6.82531e-47
6.82553e-47
6.82576e-47
6.82599e-47
6.82623e-47
6.82648e-47
6.82674e-47
6.82701e-47
6.82728e-47
6.82757e-47
6.82786e-47
6.82817e-47
6.82848e-47
6.8288e-47
6.82913e-47
6.82947e-47
6.82981e-47
6.83015e-47
6.83045e-47
6.83059e-47
6.83021e-47
6.82951e-47
6.8302e-47
6.83095e-47
6.83173e-47
6.83249e-47
6.83322e-47
6.83389e-47
6.83451e-47
6.83508e-47
6.83562e-47
6.83613e-47
6.83662e-47
6.83711e-47
6.8376e-47
6.83809e-47
6.83858e-47
6.83907e-47
6.83957e-47
6.84007e-47
6.84058e-47
6.84109e-47
6.8416e-47
6.84211e-47
6.84263e-47
6.84316e-47
6.8437e-47
6.84424e-47
6.8448e-47
6.84537e-47
6.84595e-47
6.84654e-47
6.84714e-47
6.84775e-47
6.84838e-47
6.84901e-47
6.84964e-47
6.85028e-47
6.85092e-47
6.85155e-47
6.85218e-47
6.8528e-47
6.85341e-47
6.854e-47
6.85458e-47
6.85513e-47
6.85567e-47
6.85619e-47
6.85668e-47
6.85714e-47
6.85758e-47
6.85799e-47
6.85837e-47
6.85872e-47
6.85904e-47
6.85932e-47
6.85957e-47
6.85978e-47
6.85996e-47
6.86009e-47
6.86018e-47
6.86022e-47
6.86022e-47
6.86017e-47
6.86007e-47
6.85991e-47
6.85969e-47
6.85942e-47
6.85909e-47
6.85869e-47
6.85822e-47
6.85768e-47
6.85707e-47
6.85639e-47
6.85563e-47
6.8548e-47
6.85395e-47
6.85331e-47
6.85391e-47
6.86054e-47
6.8949e-47
7.05444e-47
7.7733e-47
1.09689e-46
2.50363e-46
8.64139e-46
3.51876e-45
1.49e-44
6.32676e-44
2.67005e-43
1.11759e-42
4.637e-42
1.90686e-41
7.77127e-41
3.13863e-40
1.25616e-39
4.98189e-39
1.95784e-38
7.62407e-38
2.94183e-37
1.12478e-36
4.26131e-36
1.59974e-35
5.95111e-35
2.19387e-34
8.01511e-34
2.9022e-33
1.0416e-32
3.70575e-32
1.3071e-31
4.57148e-31
1.58561e-30
5.45523e-30
1.86213e-29
6.30833e-29
2.12176e-28
7.08884e-28
2.35424e-27
7.77901e-27
2.56061e-26
8.41069e-26
2.76277e-25
9.10173e-25
3.01816e-24
1.01192e-23
3.44848e-23
1.20142e-22
4.33277e-22
1.60751e-21
6.1595e-21
2.44218e-20
9.99845e-20
4.20878e-19
1.81221e-18
7.94107e-18
3.52557e-17
1.58013e-16
7.12955e-16
3.23182e-15
1.46962e-14
6.69704e-14
3.05605e-13
1.39581e-12
6.37886e-12
2.91632e-11
1.33374e-10
6.17568e-10
2.888e-09
1.35984e-08
6.46985e-08
3.18842e-07
1.73812e-06
1.12072e-05
7.54456e-05
0.000338832
0.000686174
0.000862169
0.00107405
0.00160508
0.00257641
0.00387185
0.00525413
0.00669005
0.00778075
0.0086502
0.00933101
0.00986103
0.0102751
0.010601
0.0108599
0.0110672
0.0112345
0.0113701
0.0114802
0.0115696
0.0116418
0.0116998
0.0117458
0.0117816
0.0118086
0.0118282
0.0118414
0.0118489
0.0118516
0.01185
0.0118446
0.011836
0.0118246
0.0118111
0.011796
0.0117791
0.0117607
0.0117408
0.0117197
0.0116973
0.0116739
0.0116495
0.0116243
0.0115982
0.0115715
0.0115441
0.0115161
0.0114877
0.0114587
0.0114293
0.0113995
0.0113694
0.0113389
0.0113082
0.0112772
0.011246
0.0112146
0.011183
0.0111513
0.0111194
0.0110875
0.0110554
0.0110233
0.0109911
0.0109589
0.0109266
0.0108944
0.0108622
0.01083
0.0107978
0.0107657
0.0107336
0.0107016
0.0106697
0.0106379
0.0106062
0.0105746
0.0105431
0.0105117
0.0104804
0.0104493
0.0104183
0.0103874
0.0103567
0.0103261
0.0102957
0.0102654
0.0102352
0.0102052
0.0101754
0.0101457
0.0101162
0.0100868
0.0100575
0.0100284
0.00999944
0.00997057
0.00994183
0.00991322
0.00988478
0.00985649
0.00982835
0.00980035
0.00977248
0.00974474
0.00971713
0.00968965
0.0096623
0.00963506
0.00960793
0.00958092
0.009554
0.00952719
0.00950046
0.00947381
0.00944723
0.00942071
0.00939424
0.00936781
0.00934139
0.00931498
0.00928856
0.00926217
0.00923594
0.00921041
0.00917808
0.00915187
0.00912531
0.00909844
0.00907129
0.00904388
0.0090162
0.00898823
0.00895994
0.00893133
0.00890235
0.00887298
0.00884321
0.00881299
0.00878232
0.00875116
0.00871948
0.00868728
0.00865453
0.0086212
0.00858729
0.00855277
0.00851764
0.00848189
0.00844551
0.00840851
0.00837088
0.00833264
0.0082938
0.00825438
0.00821439
0.00817386
0.00813283
0.00809134
0.00804943
0.00800715
0.00796455
0.00792169
0.00787863
0.00783544
0.00779219
0.00774895
0.0077058
0.00766282
0.00762009
0.00757769
0.0075357
0.0074942
0.00745328
0.00741299
0.00737344
0.00733467
0.00729676
0.00725976
0.00722374
0.00718873
0.00715479
0.00712194
0.00709021
0.00705962
0.00703018
0.0070019
0.00697475
0.00694874
0.00692383
0.0069
0.00687721
0.00685541
0.00683455
0.00681457
0.00679541
0.00677701
0.0067593
0.0067422
0.00672563
0.00670953
0.00669382
0.00667842
0.00666328
0.00664831
0.00663347
0.0066187
0.00660396
0.00658923
0.00657448
0.00655973
0.00654502
0.0065304
0.00651599
0.00650195
0.0064885
0.00647596
0.00646471
0.00645524
0.00644811
0.00644397
)
;

boundaryField
{
    boundary
    {
        type            empty;
    }
    inlet
    {
        type            fixedValue;
        value           uniform 0;
    }
    outlet
    {
        type            zeroGradient;
    }
}


// ************************************************************************* //
