/*--------------------------------*- C++ -*----------------------------------*\
  =========                 |
  \\      /  F ield         | OpenFOAM: The Open Source CFD Toolbox
   \\    /   O peration     | Website:  https://openfoam.org
    \\  /    A nd           | Version:  7
     \\/     M anipulation  |
\*---------------------------------------------------------------------------*/
FoamFile
{
    version     2.0;
    format      ascii;
    class       surfaceScalarField;
    location    "0.00049";
    object      phi;
}
// * * * * * * * * * * * * * * * * * * * * * * * * * * * * * * * * * * * * * //

dimensions      [1 0 -1 0 0 0 0];

internalField   nonuniform List<scalar> 
499
(
6.9355e-06
6.93513e-06
6.93476e-06
6.93439e-06
6.93403e-06
6.93367e-06
6.93331e-06
6.93294e-06
6.93257e-06
6.93219e-06
6.93181e-06
6.93141e-06
6.931e-06
6.93056e-06
6.9301e-06
6.9296e-06
6.92905e-06
6.92846e-06
6.92781e-06
6.92709e-06
6.92629e-06
6.92541e-06
6.92443e-06
6.92336e-06
6.92218e-06
6.92089e-06
6.91951e-06
6.91803e-06
6.91645e-06
6.9148e-06
6.91308e-06
6.91132e-06
6.90952e-06
6.90771e-06
6.9059e-06
6.90413e-06
6.90239e-06
6.90072e-06
6.89912e-06
6.89761e-06
6.8962e-06
6.89489e-06
6.89368e-06
6.89258e-06
6.89157e-06
6.89067e-06
6.88985e-06
6.88912e-06
6.88847e-06
6.88788e-06
6.88736e-06
6.88688e-06
6.88645e-06
6.88605e-06
6.88569e-06
6.88535e-06
6.88503e-06
6.88472e-06
6.88443e-06
6.88415e-06
6.88387e-06
6.8836e-06
6.88334e-06
6.88308e-06
6.88282e-06
6.88256e-06
6.88231e-06
6.88205e-06
6.8818e-06
6.88154e-06
6.88129e-06
6.88104e-06
6.88078e-06
6.88053e-06
6.88028e-06
6.88003e-06
6.87977e-06
6.87952e-06
6.87927e-06
6.87902e-06
6.87876e-06
6.87851e-06
6.87826e-06
6.87801e-06
6.87776e-06
6.8775e-06
6.87725e-06
6.877e-06
6.87675e-06
6.8765e-06
6.87625e-06
6.876e-06
6.87575e-06
6.87549e-06
6.87524e-06
6.87499e-06
6.87474e-06
6.87449e-06
6.87424e-06
6.87399e-06
6.87374e-06
6.87349e-06
6.87324e-06
6.87299e-06
6.87274e-06
6.87249e-06
6.87224e-06
6.87199e-06
6.87174e-06
6.87149e-06
6.87124e-06
6.87099e-06
6.87074e-06
6.87049e-06
6.87025e-06
6.87e-06
6.86975e-06
6.8695e-06
6.86925e-06
6.869e-06
6.86875e-06
6.86851e-06
6.86826e-06
6.86801e-06
6.86776e-06
6.86751e-06
6.86726e-06
6.86701e-06
6.86676e-06
6.86651e-06
6.86626e-06
6.86601e-06
6.86577e-06
6.86552e-06
6.86527e-06
6.86503e-06
6.86478e-06
6.86453e-06
6.86429e-06
6.86404e-06
6.8638e-06
6.86355e-06
6.86331e-06
6.86306e-06
6.86282e-06
6.86257e-06
6.86233e-06
6.86208e-06
6.86184e-06
6.8616e-06
6.86135e-06
6.86111e-06
6.86087e-06
6.86062e-06
6.86038e-06
6.86014e-06
6.85989e-06
6.85965e-06
6.85941e-06
6.85917e-06
6.85893e-06
6.85869e-06
6.85845e-06
6.8582e-06
6.85796e-06
6.85772e-06
6.85748e-06
6.85725e-06
6.85701e-06
6.85677e-06
6.85653e-06
6.85629e-06
6.85606e-06
6.85582e-06
6.85558e-06
6.85535e-06
6.85511e-06
6.85488e-06
6.85465e-06
6.85441e-06
6.85418e-06
6.85395e-06
6.85372e-06
6.85349e-06
6.85326e-06
6.85303e-06
6.8528e-06
6.85258e-06
6.85235e-06
6.85212e-06
6.8519e-06
6.85168e-06
6.85145e-06
6.85123e-06
6.85101e-06
6.85079e-06
6.85057e-06
6.85035e-06
6.85014e-06
6.84992e-06
6.84971e-06
6.84949e-06
6.84928e-06
6.84907e-06
6.84886e-06
6.84865e-06
6.84845e-06
6.84824e-06
6.84804e-06
6.84783e-06
6.84763e-06
6.84743e-06
6.84723e-06
6.84704e-06
6.84684e-06
6.84665e-06
6.84645e-06
6.84626e-06
6.84607e-06
6.84589e-06
6.8457e-06
6.84552e-06
6.84533e-06
6.84515e-06
6.84498e-06
6.8448e-06
6.84462e-06
6.84445e-06
6.84428e-06
6.84411e-06
6.84394e-06
6.84377e-06
6.84361e-06
6.84345e-06
6.84329e-06
6.84313e-06
6.84297e-06
6.84281e-06
6.84266e-06
6.84251e-06
6.84236e-06
6.84221e-06
6.84206e-06
6.84192e-06
6.84178e-06
6.84163e-06
6.84149e-06
6.84136e-06
6.84122e-06
6.84108e-06
6.84095e-06
6.84081e-06
6.84068e-06
6.84055e-06
6.84041e-06
6.84028e-06
6.84015e-06
6.84003e-06
6.8399e-06
6.83978e-06
6.83966e-06
6.83954e-06
6.83942e-06
6.8393e-06
6.83919e-06
6.83907e-06
6.83896e-06
6.83885e-06
6.83874e-06
6.83865e-06
6.83862e-06
6.83876e-06
6.83942e-06
6.84165e-06
6.84835e-06
6.86692e-06
6.91014e-06
6.97958e-06
7.0484e-06
7.09705e-06
7.12844e-06
7.14962e-06
7.16465e-06
7.1754e-06
7.18306e-06
7.18852e-06
7.19249e-06
7.19549e-06
7.19784e-06
7.19973e-06
7.2013e-06
7.20262e-06
7.20375e-06
7.20474e-06
7.20561e-06
7.20639e-06
7.20708e-06
7.20771e-06
7.20828e-06
7.20881e-06
7.20929e-06
7.20973e-06
7.21014e-06
7.21052e-06
7.21088e-06
7.21121e-06
7.21151e-06
7.2118e-06
7.21207e-06
7.21232e-06
7.21255e-06
7.21277e-06
7.21296e-06
7.21314e-06
7.21332e-06
7.21348e-06
7.21363e-06
7.21378e-06
7.21391e-06
7.21404e-06
7.21417e-06
7.21428e-06
7.2144e-06
7.2145e-06
7.2146e-06
7.2147e-06
7.21479e-06
7.21488e-06
7.21496e-06
7.21505e-06
7.21513e-06
7.2152e-06
7.21528e-06
7.21535e-06
7.21542e-06
7.21549e-06
7.21555e-06
7.21562e-06
7.21568e-06
7.21574e-06
7.2158e-06
7.21586e-06
7.21591e-06
7.21596e-06
7.21601e-06
7.21606e-06
7.21611e-06
7.21615e-06
7.21619e-06
7.21623e-06
7.21627e-06
7.21631e-06
7.21634e-06
7.21637e-06
7.2164e-06
7.21642e-06
7.21645e-06
7.21647e-06
7.21649e-06
7.21651e-06
7.21652e-06
7.21654e-06
7.21655e-06
7.21656e-06
7.21656e-06
7.21657e-06
7.21657e-06
7.21657e-06
7.21657e-06
7.21657e-06
7.21656e-06
7.21655e-06
7.21654e-06
7.21653e-06
7.21651e-06
7.21649e-06
7.21646e-06
7.21644e-06
7.21641e-06
7.21637e-06
7.21634e-06
7.21629e-06
7.21625e-06
7.2162e-06
7.21615e-06
7.21609e-06
7.21603e-06
7.21597e-06
7.2159e-06
7.21584e-06
7.21577e-06
7.21569e-06
7.21562e-06
7.21555e-06
7.21547e-06
7.2154e-06
7.21533e-06
7.21526e-06
7.2152e-06
7.21514e-06
7.21511e-06
7.21505e-06
7.21469e-06
7.21417e-06
7.21384e-06
7.21399e-06
7.21406e-06
7.21412e-06
7.21417e-06
7.21423e-06
7.21428e-06
7.21434e-06
7.21441e-06
7.2145e-06
7.2146e-06
7.21472e-06
7.21486e-06
7.21503e-06
7.21522e-06
7.21543e-06
7.21567e-06
7.21593e-06
7.21622e-06
7.21654e-06
7.21688e-06
7.21724e-06
7.21761e-06
7.218e-06
7.21841e-06
7.21882e-06
7.21923e-06
7.21964e-06
7.22003e-06
7.22041e-06
7.22075e-06
7.22106e-06
7.22133e-06
7.22153e-06
7.22167e-06
7.22172e-06
7.22167e-06
7.22152e-06
7.22124e-06
7.22082e-06
7.22025e-06
7.21951e-06
7.21859e-06
7.21747e-06
7.21614e-06
7.21458e-06
7.21278e-06
7.21073e-06
7.20841e-06
7.20582e-06
7.20295e-06
7.19979e-06
7.19633e-06
7.19258e-06
7.18853e-06
7.18418e-06
7.17954e-06
7.17462e-06
7.16941e-06
7.16394e-06
7.15822e-06
7.15226e-06
7.14608e-06
7.1397e-06
7.13315e-06
7.12645e-06
7.11962e-06
7.11269e-06
7.1057e-06
7.09866e-06
7.09162e-06
7.0846e-06
7.07763e-06
7.07074e-06
7.06396e-06
7.05733e-06
7.05086e-06
7.04459e-06
7.03853e-06
7.03272e-06
7.02717e-06
7.0219e-06
7.01693e-06
7.01227e-06
7.00793e-06
7.00393e-06
7.00027e-06
6.99695e-06
6.99398e-06
6.99135e-06
6.98906e-06
6.9871e-06
6.98547e-06
6.98413e-06
6.98304e-06
)
;

boundaryField
{
    boundary
    {
        type            empty;
        value           nonuniform 0();
    }
    inlet
    {
        type            calculated;
        value           uniform -6.93587e-06;
    }
    outlet
    {
        type            calculated;
        value           uniform 6.98212e-06;
    }
}


// ************************************************************************* //
