/*--------------------------------*- C++ -*----------------------------------*\
  =========                 |
  \\      /  F ield         | OpenFOAM: The Open Source CFD Toolbox
   \\    /   O peration     | Website:  https://openfoam.org
    \\  /    A nd           | Version:  7
     \\/     M anipulation  |
\*---------------------------------------------------------------------------*/
FoamFile
{
    version     2.0;
    format      ascii;
    class       volScalarField;
    location    "0.00049";
    object      rho;
}
// * * * * * * * * * * * * * * * * * * * * * * * * * * * * * * * * * * * * * //

dimensions      [1 -3 0 0 0 0 0];

internalField   nonuniform List<scalar> 
500
(
0.865379
0.865365
0.865351
0.865338
0.865325
0.865312
0.865299
0.865285
0.86527
0.865254
0.865237
0.865218
0.865197
0.865172
0.865143
0.865109
0.86507
0.865023
0.864968
0.864904
0.86483
0.864745
0.864647
0.864538
0.864415
0.864279
0.864132
0.863972
0.863803
0.863624
0.863439
0.863248
0.863055
0.862862
0.862672
0.862485
0.862306
0.862135
0.861974
0.861825
0.861688
0.861563
0.861452
0.861353
0.861267
0.861192
0.861128
0.861074
0.861028
0.860991
0.860961
0.860936
0.860916
0.8609
0.860888
0.860879
0.860871
0.860866
0.860862
0.860859
0.860856
0.860855
0.860853
0.860852
0.860852
0.860851
0.860851
0.860851
0.860851
0.86085
0.86085
0.86085
0.86085
0.86085
0.86085
0.86085
0.86085
0.86085
0.860849
0.860849
0.860849
0.860849
0.860849
0.860849
0.860849
0.860849
0.860848
0.860848
0.860848
0.860848
0.860848
0.860848
0.860848
0.860847
0.860847
0.860847
0.860847
0.860847
0.860846
0.860846
0.860846
0.860846
0.860845
0.860845
0.860845
0.860845
0.860844
0.860844
0.860844
0.860843
0.860843
0.860843
0.860842
0.860842
0.860842
0.860841
0.860841
0.86084
0.86084
0.860839
0.860839
0.860839
0.860838
0.860838
0.860838
0.860838
0.860837
0.860837
0.860836
0.860835
0.860834
0.860834
0.860833
0.860832
0.860832
0.860831
0.860831
0.86083
0.860829
0.860829
0.860828
0.860828
0.860827
0.860826
0.860826
0.860825
0.860824
0.860824
0.860823
0.860822
0.860822
0.860821
0.86082
0.86082
0.860819
0.860818
0.860818
0.860817
0.860816
0.860815
0.860815
0.860814
0.860813
0.860812
0.860812
0.860811
0.86081
0.860809
0.860809
0.860808
0.860807
0.860807
0.860806
0.860805
0.860805
0.860804
0.860804
0.860803
0.860803
0.860803
0.860802
0.860802
0.860802
0.860802
0.860801
0.860801
0.860801
0.860801
0.860801
0.860801
0.860802
0.860802
0.860802
0.860802
0.860803
0.860803
0.860804
0.860805
0.860806
0.860806
0.860807
0.860808
0.86081
0.860811
0.860812
0.860814
0.860815
0.860817
0.860819
0.860821
0.860823
0.860825
0.860828
0.86083
0.860833
0.860835
0.860838
0.860841
0.860845
0.860848
0.860851
0.860855
0.860859
0.860863
0.860867
0.860871
0.860876
0.86088
0.860885
0.86089
0.860895
0.8609
0.860906
0.860912
0.860917
0.860923
0.860929
0.860936
0.860942
0.860948
0.860955
0.860962
0.860969
0.860976
0.860983
0.860991
0.860998
0.861006
0.861014
0.861022
0.861031
0.86104
0.861048
0.861056
0.861064
0.861072
0.86108
0.861089
0.861097
0.861106
0.861115
0.861124
0.861133
0.861143
0.861152
0.861162
0.861172
0.861182
0.861187
0.861175
0.861102
0.860834
0.859966
0.857297
0.849367
0.826905
0.770165
0.660931
0.52461
0.412024
0.337025
0.287832
0.253753
0.229484
0.212515
0.199973
0.190324
0.1834
0.178295
0.174201
0.170845
0.168033
0.165631
0.163549
0.16172
0.160097
0.158644
0.157333
0.156142
0.155054
0.154055
0.153135
0.152282
0.15149
0.150751
0.15006
0.149413
0.148804
0.14823
0.147689
0.147178
0.146694
0.146249
0.145833
0.145433
0.145049
0.144681
0.144326
0.143985
0.143656
0.143338
0.143032
0.142736
0.14245
0.142173
0.141905
0.141646
0.141394
0.14115
0.140913
0.140682
0.140459
0.140241
0.140029
0.139824
0.139623
0.139428
0.139237
0.139052
0.138871
0.138694
0.138522
0.138353
0.138189
0.138028
0.137871
0.137717
0.137567
0.137419
0.137275
0.137134
0.136996
0.136861
0.136728
0.136598
0.13647
0.136345
0.136222
0.136102
0.135983
0.135867
0.135753
0.135641
0.135531
0.135422
0.135316
0.135211
0.135108
0.135007
0.134908
0.134809
0.134713
0.134618
0.134524
0.134432
0.134342
0.134253
0.134164
0.134078
0.133992
0.133907
0.133824
0.133742
0.133661
0.133581
0.133502
0.133424
0.133347
0.133271
0.133196
0.133122
0.133049
0.132977
0.132906
0.132836
0.132766
0.132698
0.13263
0.132564
0.132498
0.132434
0.132369
0.132306
0.132244
0.132168
0.132107
0.13205
0.131992
0.131935
0.131879
0.131824
0.131769
0.131715
0.131662
0.131611
0.13156
0.13151
0.131461
0.131413
0.131367
0.131321
0.131276
0.131232
0.13119
0.131148
0.131107
0.131067
0.131027
0.130989
0.13095
0.130913
0.130875
0.130838
0.130801
0.130763
0.130726
0.130687
0.130649
0.130609
0.130568
0.130525
0.130481
0.130436
0.130387
0.130337
0.130284
0.130228
0.130169
0.130106
0.13004
0.12997
0.129896
0.129818
0.129735
0.129648
0.129557
0.129461
0.12936
0.129255
0.129145
0.129031
0.128913
0.12879
0.128664
0.128534
0.128401
0.128266
0.128128
0.127988
0.127846
0.127703
0.12756
0.127416
0.127274
0.127132
0.126991
0.126853
0.126717
0.126584
0.126455
0.126329
0.126208
0.126092
0.125981
0.125875
0.125775
0.125681
0.125592
0.12551
0.125434
0.125364
0.1253
0.125242
0.12519
0.125142
0.1251
0.125061
0.125027
0.124998
0.124979
)
;

boundaryField
{
    boundary
    {
        type            empty;
    }
    inlet
    {
        type            calculated;
        value           uniform 0.86539;
    }
    outlet
    {
        type            calculated;
        value           uniform 0.124979;
    }
}


// ************************************************************************* //
