/*--------------------------------*- C++ -*----------------------------------*\
  =========                 |
  \\      /  F ield         | OpenFOAM: The Open Source CFD Toolbox
   \\    /   O peration     | Website:  https://openfoam.org
    \\  /    A nd           | Version:  7
     \\/     M anipulation  |
\*---------------------------------------------------------------------------*/
FoamFile
{
    version     2.0;
    format      ascii;
    class       volScalarField;
    location    "0.0006";
    object      T;
}
// * * * * * * * * * * * * * * * * * * * * * * * * * * * * * * * * * * * * * //

dimensions      [0 0 0 1 0 0 0];

internalField   nonuniform List<scalar> 
125
(
301.498
301.495
301.492
301.49
301.487
301.484
301.481
301.478
301.475
301.472
301.469
301.466
301.464
301.461
301.458
301.456
301.456
301.463
301.486
301.558
301.766
302.363
304.061
308.871
322.287
357.323
433.901
559.145
711.328
865.026
1010.99
1146.19
1265.46
1363.58
1446.4
1517.03
1573.37
1618.47
1657.14
1690.68
1720.2
1746.5
1770.15
1791.6
1811.2
1829.2
1845.84
1861.27
1875.64
1889.08
1901.68
1913.53
1924.7
1935.26
1945.26
1954.75
1963.78
1972.37
1980.56
1988.37
1995.83
2002.76
2009.28
2015.6
2021.7
2027.6
2033.32
2038.86
2044.23
2049.44
2054.5
2059.42
2064.19
2068.84
2073.37
2077.77
2082.06
2086.24
2090.32
2094.3
2098.18
2101.97
2105.68
2109.3
2112.83
2116.29
2119.68
2122.99
2126.23
2129.4
2132.51
2135.56
2138.54
2141.47
2144.34
2147.16
2149.92
2152.63
2155.3
2157.91
2160.48
2163.01
2165.49
2167.93
2170.33
2172.68
2175
2177.29
2179.53
2181.74
2183.92
2186.06
2188.17
2190.25
2192.3
2194.32
2196.3
2198.26
2200.19
2202.1
2203.97
2205.83
2207.65
2209.45
2211.23
)
;

boundaryField
{
    boundary
    {
        type            empty;
    }
    inlet
    {
        type            fixedValue;
        value           nonuniform 0();
    }
    outlet
    {
        type            zeroGradient;
    }
    procBoundary1to0
    {
        type            processor;
        value           uniform 2212.98;
    }
    procBoundary1to3
    {
        type            processor;
        value           uniform 301.5;
    }
}


// ************************************************************************* //
