/*--------------------------------*- C++ -*----------------------------------*\
  =========                 |
  \\      /  F ield         | OpenFOAM: The Open Source CFD Toolbox
   \\    /   O peration     | Website:  https://openfoam.org
    \\  /    A nd           | Version:  7
     \\/     M anipulation  |
\*---------------------------------------------------------------------------*/
FoamFile
{
    version     2.0;
    format      ascii;
    class       volScalarField;
    location    "0.0006";
    object      H2O;
}
// * * * * * * * * * * * * * * * * * * * * * * * * * * * * * * * * * * * * * //

dimensions      [0 0 0 0 0 0 0];

internalField   nonuniform List<scalar> 
500
(
7.86385e-48
2.27158e-47
4.08707e-47
6.12765e-47
8.32286e-47
1.06256e-46
1.30042e-46
1.54374e-46
1.79106e-46
2.04142e-46
2.29415e-46
2.54886e-46
2.80532e-46
3.06346e-46
3.32333e-46
3.58511e-46
3.84908e-46
4.11566e-46
4.38537e-46
4.65888e-46
4.93698e-46
5.22059e-46
5.51077e-46
5.80869e-46
6.1156e-46
6.43284e-46
6.76176e-46
7.10366e-46
7.45976e-46
7.8311e-46
8.21845e-46
8.62228e-46
9.04264e-46
9.4791e-46
9.93072e-46
1.0396e-45
1.08728e-45
1.13587e-45
1.18503e-45
1.23444e-45
1.28369e-45
1.33239e-45
1.38012e-45
1.42649e-45
1.47112e-45
1.51366e-45
1.55381e-45
1.59134e-45
1.62607e-45
1.65787e-45
1.6867e-45
1.71257e-45
1.73554e-45
1.75572e-45
1.77329e-45
1.78841e-45
1.8013e-45
1.81217e-45
1.82125e-45
1.82876e-45
1.8349e-45
1.83988e-45
1.84388e-45
1.84706e-45
1.84957e-45
1.85152e-45
1.85303e-45
1.85419e-45
1.85507e-45
1.85573e-45
1.85623e-45
1.85659e-45
1.85686e-45
1.85706e-45
1.85721e-45
1.85731e-45
1.85739e-45
1.85744e-45
1.85748e-45
1.85752e-45
1.85754e-45
1.85756e-45
1.85758e-45
1.8576e-45
1.85761e-45
1.85763e-45
1.85764e-45
1.85766e-45
1.85767e-45
1.85769e-45
1.85771e-45
1.85773e-45
1.85775e-45
1.85777e-45
1.85779e-45
1.85781e-45
1.85784e-45
1.85787e-45
1.85789e-45
1.85792e-45
1.85796e-45
1.85799e-45
1.85802e-45
1.85806e-45
1.8581e-45
1.85814e-45
1.85818e-45
1.85822e-45
1.85827e-45
1.85831e-45
1.85836e-45
1.85842e-45
1.85847e-45
1.85852e-45
1.85858e-45
1.85864e-45
1.85871e-45
1.85877e-45
1.85884e-45
1.8589e-45
1.85896e-45
1.859e-45
1.85894e-45
1.85851e-45
1.85672e-45
1.85335e-45
1.85343e-45
1.85352e-45
1.85361e-45
1.85373e-45
1.85386e-45
1.85403e-45
1.85423e-45
1.85447e-45
1.85477e-45
1.85512e-45
1.85553e-45
1.85599e-45
1.8565e-45
1.85705e-45
1.85762e-45
1.85821e-45
1.8588e-45
1.85936e-45
1.85989e-45
1.86038e-45
1.8608e-45
1.86117e-45
1.86147e-45
1.86171e-45
1.86188e-45
1.86201e-45
1.86209e-45
1.86214e-45
1.86217e-45
1.86217e-45
1.86217e-45
1.86218e-45
1.86219e-45
1.86222e-45
1.86226e-45
1.86234e-45
1.86244e-45
1.86257e-45
1.86272e-45
1.86291e-45
1.86312e-45
1.86335e-45
1.86359e-45
1.86385e-45
1.86412e-45
1.86439e-45
1.86467e-45
1.86494e-45
1.8652e-45
1.86545e-45
1.86569e-45
1.86592e-45
1.86613e-45
1.86633e-45
1.86652e-45
1.86668e-45
1.86684e-45
1.86697e-45
1.8671e-45
1.86721e-45
1.8673e-45
1.86739e-45
1.86746e-45
1.86751e-45
1.86755e-45
1.86758e-45
1.8676e-45
1.8676e-45
1.86759e-45
1.86756e-45
1.86752e-45
1.86747e-45
1.8674e-45
1.86736e-45
1.86743e-45
1.86808e-45
1.87112e-45
1.88404e-45
1.93719e-45
2.15287e-45
3.02064e-45
6.48751e-45
2.02507e-44
7.45712e-44
2.87833e-43
1.12126e-42
4.36623e-42
1.69673e-41
6.58367e-41
2.55413e-40
9.92354e-40
3.86868e-39
1.51636e-38
5.98744e-38
2.38577e-37
9.6058e-37
3.91077e-36
1.60998e-35
6.69748e-35
2.81179e-34
1.18934e-33
5.05884e-33
2.15966e-32
9.23674e-32
3.95141e-31
1.68847e-30
7.19883e-30
3.05974e-29
1.29563e-28
5.46328e-28
2.29338e-27
9.58253e-27
3.98513e-26
1.64961e-25
6.79743e-25
2.78875e-24
1.13938e-23
4.63695e-23
1.88027e-22
7.59908e-22
3.06182e-21
1.23029e-20
4.93137e-20
1.97234e-19
7.87348e-19
3.15462e-18
1.25854e-17
5.00534e-17
1.98792e-16
7.88856e-16
3.1285e-15
1.24016e-14
4.91432e-14
1.94684e-13
7.71076e-13
3.05333e-12
1.20881e-11
4.7845e-11
1.89315e-10
7.48799e-10
2.9602e-09
1.16945e-08
4.61588e-08
1.81981e-07
7.16371e-07
2.81432e-06
1.1024e-05
4.29645e-05
0.000165672
0.000622454
0.00219235
0.00669607
0.0162423
0.0306665
0.0486025
0.0702855
0.0954668
0.121244
0.143592
0.160229
0.174456
0.182686
0.18822
0.19201
0.194696
0.196688
0.198239
0.199508
0.200589
0.201541
0.202402
0.203194
0.203932
0.204626
0.205283
0.205908
0.206504
0.207074
0.207621
0.208146
0.208651
0.209137
0.209605
0.210057
0.210494
0.210915
0.211309
0.211685
0.212051
0.212408
0.212756
0.213096
0.213428
0.213752
0.214069
0.214379
0.214682
0.214978
0.215269
0.215553
0.215832
0.216105
0.216373
0.216635
0.216893
0.217145
0.217393
0.217637
0.217876
0.218111
0.218342
0.218569
0.218792
0.219011
0.219227
0.219439
0.219648
0.219853
0.220055
0.220254
0.22045
0.220642
0.220832
0.221019
0.221204
0.221385
0.221564
0.22174
0.221914
0.222085
0.222254
0.222421
0.222585
0.222747
0.222906
0.223064
0.22322
0.223373
0.223524
0.223674
0.223821
0.223967
0.224111
0.224253
0.224393
0.224532
0.224669
0.224804
0.224938
0.225069
0.2252
0.225329
0.225457
0.225584
0.225709
0.225833
0.225956
0.226078
0.226198
0.226317
0.226435
0.226552
0.226668
0.226782
0.226896
0.227009
0.22712
0.227231
0.22734
0.227449
0.227556
0.227663
0.227769
0.227874
0.227978
0.228081
0.228184
0.228285
0.228386
0.228486
0.228586
0.228684
0.228782
0.228879
0.228976
0.229071
0.229167
0.229261
0.229356
0.229449
0.229542
0.229635
0.229727
0.229819
0.22991
0.230001
0.230092
0.230182
0.230273
0.230363
0.230453
0.230543
0.230633
0.230723
0.230813
0.230903
0.230993
0.231084
0.231175
0.231266
0.231357
0.231449
0.231541
0.231634
0.231738
0.231857
0.231953
0.232051
0.232151
0.232251
0.232353
0.232457
0.232562
0.232668
0.232776
0.232885
0.232997
0.233109
0.233224
0.23334
0.233459
0.233578
0.2337
0.233823
0.233949
0.234075
0.234204
0.234333
0.234465
0.234597
0.234731
0.234866
0.235002
0.235139
0.235277
0.235415
0.235553
0.235692
0.23583
0.235968
0.236106
0.236243
0.23638
0.236515
0.236649
0.236782
0.236913
0.237042
0.23717
0.237295
0.237418
0.237538
0.237656
0.237771
0.237883
0.237992
0.238097
0.238199
0.238297
0.23839
0.238477
0.238556
0.238622
0.238665
)
;

boundaryField
{
    boundary
    {
        type            empty;
    }
    inlet
    {
        type            fixedValue;
        value           uniform 0;
    }
    outlet
    {
        type            zeroGradient;
    }
}


// ************************************************************************* //
