/*--------------------------------*- C++ -*----------------------------------*\
  =========                 |
  \\      /  F ield         | OpenFOAM: The Open Source CFD Toolbox
   \\    /   O peration     | Website:  https://openfoam.org
    \\  /    A nd           | Version:  7
     \\/     M anipulation  |
\*---------------------------------------------------------------------------*/
FoamFile
{
    version     2.0;
    format      ascii;
    class       volScalarField;
    location    "0.0006";
    object      H2O2;
}
// * * * * * * * * * * * * * * * * * * * * * * * * * * * * * * * * * * * * * //

dimensions      [0 0 0 0 0 0 0];

internalField   nonuniform List<scalar> 
500
(
1.98973e-52
6.39098e-52
1.27071e-51
2.09459e-51
3.1117e-51
4.32307e-51
5.7297e-51
7.33255e-51
9.13252e-51
1.11305e-50
1.33277e-50
1.57252e-50
1.83247e-50
2.11287e-50
2.41401e-50
2.73629e-50
3.08024e-50
3.44652e-50
3.83597e-50
4.24962e-50
4.68871e-50
5.15467e-50
5.64919e-50
6.17413e-50
6.73152e-50
7.32351e-50
7.95224e-50
8.61982e-50
9.32811e-50
1.00786e-49
1.08723e-49
1.17094e-49
1.25895e-49
1.35108e-49
1.44706e-49
1.5465e-49
1.64887e-49
1.75355e-49
1.85978e-49
1.96673e-49
2.07349e-49
2.17911e-49
2.28264e-49
2.38315e-49
2.47976e-49
2.5717e-49
2.65828e-49
2.73898e-49
2.81341e-49
2.88131e-49
2.9426e-49
2.99734e-49
3.0457e-49
3.08797e-49
3.12452e-49
3.1558e-49
3.18227e-49
3.20445e-49
3.22284e-49
3.23793e-49
3.25018e-49
3.26004e-49
3.26789e-49
3.27407e-49
3.2789e-49
3.28264e-49
3.2855e-49
3.28768e-49
3.28931e-49
3.29053e-49
3.29144e-49
3.2921e-49
3.29258e-49
3.29293e-49
3.29319e-49
3.29337e-49
3.29351e-49
3.2936e-49
3.29368e-49
3.29373e-49
3.29377e-49
3.29381e-49
3.29384e-49
3.29387e-49
3.2939e-49
3.29393e-49
3.29396e-49
3.29399e-49
3.29402e-49
3.29405e-49
3.29409e-49
3.29412e-49
3.29416e-49
3.29421e-49
3.29425e-49
3.2943e-49
3.29435e-49
3.2944e-49
3.29445e-49
3.29451e-49
3.29457e-49
3.29464e-49
3.2947e-49
3.29477e-49
3.29485e-49
3.29492e-49
3.29501e-49
3.29509e-49
3.29518e-49
3.29527e-49
3.29537e-49
3.29547e-49
3.29557e-49
3.29568e-49
3.29579e-49
3.29591e-49
3.29603e-49
3.29616e-49
3.29629e-49
3.29642e-49
3.29653e-49
3.29658e-49
3.29637e-49
3.29507e-49
3.28951e-49
3.27834e-49
3.27849e-49
3.27865e-49
3.27883e-49
3.27903e-49
3.27926e-49
3.27955e-49
3.27991e-49
3.28035e-49
3.2809e-49
3.28156e-49
3.28235e-49
3.28329e-49
3.28435e-49
3.28554e-49
3.28683e-49
3.28819e-49
3.28958e-49
3.29095e-49
3.29225e-49
3.29343e-49
3.29446e-49
3.29532e-49
3.29597e-49
3.29643e-49
3.2967e-49
3.29681e-49
3.29678e-49
3.29667e-49
3.2965e-49
3.29632e-49
3.29616e-49
3.29607e-49
3.29606e-49
3.29616e-49
3.29638e-49
3.29672e-49
3.29719e-49
3.29776e-49
3.29845e-49
3.29922e-49
3.30006e-49
3.30095e-49
3.30188e-49
3.30282e-49
3.30375e-49
3.30467e-49
3.30556e-49
3.30641e-49
3.30722e-49
3.30797e-49
3.30866e-49
3.30929e-49
3.30987e-49
3.31039e-49
3.31086e-49
3.31128e-49
3.31165e-49
3.31198e-49
3.31227e-49
3.31252e-49
3.31273e-49
3.31292e-49
3.31307e-49
3.31319e-49
3.31329e-49
3.31335e-49
3.31339e-49
3.3134e-49
3.31339e-49
3.31334e-49
3.31326e-49
3.31315e-49
3.31301e-49
3.31284e-49
3.31263e-49
3.31239e-49
3.31214e-49
3.31196e-49
3.31244e-49
3.31702e-49
3.34575e-49
3.51463e-49
4.48864e-49
1.00457e-48
4.14567e-48
2.17398e-47
1.19398e-46
6.56544e-46
3.58412e-45
1.93945e-44
1.03999e-43
5.52599e-43
2.9095e-42
1.51796e-41
7.84787e-41
4.02077e-40
2.04154e-39
1.02738e-38
5.12457e-38
2.53388e-37
1.24212e-36
6.03729e-36
2.90995e-35
1.3911e-34
6.59685e-34
3.10385e-33
1.44924e-32
6.71663e-32
3.09059e-31
1.4123e-30
6.41106e-30
2.89193e-29
1.2967e-28
5.78155e-28
2.56422e-27
1.13172e-26
4.97235e-26
2.17568e-25
9.48437e-25
4.12064e-24
1.78493e-23
7.71139e-23
3.32383e-22
1.42979e-21
6.13981e-21
2.64737e-20
1.13649e-19
4.86481e-19
2.07999e-18
8.88731e-18
3.79564e-17
1.62053e-16
6.91703e-16
2.95187e-15
1.2595e-14
5.37311e-14
2.29175e-13
9.77237e-13
4.16572e-12
1.77495e-11
7.55828e-11
3.21597e-10
1.36694e-09
5.80231e-09
2.45859e-08
1.03914e-07
4.37194e-07
1.81868e-06
7.30937e-06
2.63726e-05
7.07638e-05
0.000112376
0.000121799
8.35784e-05
3.97209e-05
1.59916e-05
7.12015e-06
4.66842e-06
4.49735e-06
5.01327e-06
5.7273e-06
6.22512e-06
6.55432e-06
6.72737e-06
6.77717e-06
6.7375e-06
6.63643e-06
6.49514e-06
6.3288e-06
6.14821e-06
5.96076e-06
5.77149e-06
5.5838e-06
5.39994e-06
5.22134e-06
5.0489e-06
4.8831e-06
4.72418e-06
4.5722e-06
4.42708e-06
4.28865e-06
4.1567e-06
4.03099e-06
3.91127e-06
3.79731e-06
3.68892e-06
3.58902e-06
3.49506e-06
3.4049e-06
3.31834e-06
3.23521e-06
3.15534e-06
3.07857e-06
3.00475e-06
2.93375e-06
2.86542e-06
2.79964e-06
2.73628e-06
2.67523e-06
2.61638e-06
2.55963e-06
2.50488e-06
2.45203e-06
2.401e-06
2.35171e-06
2.30407e-06
2.25801e-06
2.21346e-06
2.17036e-06
2.12864e-06
2.08823e-06
2.0491e-06
2.01117e-06
1.97441e-06
1.93875e-06
1.90416e-06
1.8706e-06
1.83801e-06
1.80637e-06
1.77563e-06
1.74576e-06
1.71672e-06
1.68849e-06
1.66103e-06
1.63431e-06
1.60831e-06
1.583e-06
1.55835e-06
1.53435e-06
1.51096e-06
1.48817e-06
1.46595e-06
1.44428e-06
1.42316e-06
1.40254e-06
1.38243e-06
1.36281e-06
1.34364e-06
1.32493e-06
1.30666e-06
1.28881e-06
1.27137e-06
1.25433e-06
1.23766e-06
1.22137e-06
1.20545e-06
1.18987e-06
1.17463e-06
1.15973e-06
1.14516e-06
1.13088e-06
1.11688e-06
1.10317e-06
1.08973e-06
1.07657e-06
1.06367e-06
1.05103e-06
1.03864e-06
1.0265e-06
1.01459e-06
1.00291e-06
9.91447e-07
9.80205e-07
9.69174e-07
9.58349e-07
9.47723e-07
9.37292e-07
9.27051e-07
9.16994e-07
9.07118e-07
8.97417e-07
8.87887e-07
8.78525e-07
8.69325e-07
8.60284e-07
8.51398e-07
8.42664e-07
8.34078e-07
8.25635e-07
8.17334e-07
8.09171e-07
8.01142e-07
7.93245e-07
7.85475e-07
7.77831e-07
7.70309e-07
7.62907e-07
7.55622e-07
7.48451e-07
7.4139e-07
7.34439e-07
7.27594e-07
7.20853e-07
7.14212e-07
7.07671e-07
7.01226e-07
6.94875e-07
6.88617e-07
6.82447e-07
6.76366e-07
6.70369e-07
6.64456e-07
6.58624e-07
6.52871e-07
6.47194e-07
6.41593e-07
6.36065e-07
6.30608e-07
6.25219e-07
6.19896e-07
6.14638e-07
6.09444e-07
6.04325e-07
5.99204e-07
5.93908e-07
5.87595e-07
5.82713e-07
5.77783e-07
5.7287e-07
5.67987e-07
5.63136e-07
5.58313e-07
5.53516e-07
5.48741e-07
5.43984e-07
5.39242e-07
5.34511e-07
5.29789e-07
5.25071e-07
5.20355e-07
5.15637e-07
5.10914e-07
5.06182e-07
5.01438e-07
4.9668e-07
4.91904e-07
4.87107e-07
4.82288e-07
4.77443e-07
4.7257e-07
4.67667e-07
4.62733e-07
4.57766e-07
4.52764e-07
4.47728e-07
4.42655e-07
4.37548e-07
4.32406e-07
4.27229e-07
4.22021e-07
4.16781e-07
4.11514e-07
4.06222e-07
4.00909e-07
3.95578e-07
3.90236e-07
3.84887e-07
3.79537e-07
3.74193e-07
3.68862e-07
3.63551e-07
3.5827e-07
3.53028e-07
3.47833e-07
3.42699e-07
3.37636e-07
3.32662e-07
3.27797e-07
3.23069e-07
3.18521e-07
3.14228e-07
3.10316e-07
3.07026e-07
3.04849e-07
)
;

boundaryField
{
    boundary
    {
        type            empty;
    }
    inlet
    {
        type            fixedValue;
        value           uniform 0;
    }
    outlet
    {
        type            zeroGradient;
    }
}


// ************************************************************************* //
