/*--------------------------------*- C++ -*----------------------------------*\
  =========                 |
  \\      /  F ield         | OpenFOAM: The Open Source CFD Toolbox
   \\    /   O peration     | Website:  https://openfoam.org
    \\  /    A nd           | Version:  7
     \\/     M anipulation  |
\*---------------------------------------------------------------------------*/
FoamFile
{
    version     2.0;
    format      ascii;
    class       surfaceScalarField;
    location    "0.0006";
    object      phi;
}
// * * * * * * * * * * * * * * * * * * * * * * * * * * * * * * * * * * * * * //

dimensions      [1 0 -1 0 0 0 0];

internalField   nonuniform List<scalar> 
499
(
6.93363e-06
6.93443e-06
6.93519e-06
6.93591e-06
6.93659e-06
6.93724e-06
6.93784e-06
6.93842e-06
6.93896e-06
6.93949e-06
6.94e-06
6.9405e-06
6.94099e-06
6.94147e-06
6.94194e-06
6.9424e-06
6.94285e-06
6.94329e-06
6.94372e-06
6.94413e-06
6.94451e-06
6.94486e-06
6.94518e-06
6.94546e-06
6.94569e-06
6.94587e-06
6.94599e-06
6.94604e-06
6.94601e-06
6.94591e-06
6.94573e-06
6.94547e-06
6.94512e-06
6.94469e-06
6.94418e-06
6.94359e-06
6.94293e-06
6.94222e-06
6.94146e-06
6.94066e-06
6.93984e-06
6.93901e-06
6.93819e-06
6.93739e-06
6.93663e-06
6.93591e-06
6.93524e-06
6.93465e-06
6.93413e-06
6.93369e-06
6.93333e-06
6.93306e-06
6.93287e-06
6.93276e-06
6.93274e-06
6.93279e-06
6.93291e-06
6.9331e-06
6.93334e-06
6.93364e-06
6.93399e-06
6.93437e-06
6.93479e-06
6.93524e-06
6.93572e-06
6.93621e-06
6.93673e-06
6.93726e-06
6.9378e-06
6.93834e-06
6.9389e-06
6.93946e-06
6.94003e-06
6.9406e-06
6.94117e-06
6.94174e-06
6.94232e-06
6.9429e-06
6.94347e-06
6.94405e-06
6.94463e-06
6.9452e-06
6.94578e-06
6.94636e-06
6.94694e-06
6.94752e-06
6.94809e-06
6.94867e-06
6.94925e-06
6.94983e-06
6.9504e-06
6.95098e-06
6.95156e-06
6.95213e-06
6.95271e-06
6.95329e-06
6.95386e-06
6.95444e-06
6.95502e-06
6.95559e-06
6.95617e-06
6.95674e-06
6.95732e-06
6.95789e-06
6.95847e-06
6.95904e-06
6.95962e-06
6.96019e-06
6.96076e-06
6.96134e-06
6.96191e-06
6.96248e-06
6.96306e-06
6.96363e-06
6.9642e-06
6.96477e-06
6.96534e-06
6.96591e-06
6.96649e-06
6.96706e-06
6.96763e-06
6.9682e-06
6.96877e-06
6.96934e-06
6.96991e-06
6.97049e-06
6.97106e-06
6.97163e-06
6.97221e-06
6.97278e-06
6.97335e-06
6.97392e-06
6.9745e-06
6.97506e-06
6.97563e-06
6.9762e-06
6.97677e-06
6.97733e-06
6.9779e-06
6.97846e-06
6.97903e-06
6.97959e-06
6.98016e-06
6.98072e-06
6.98129e-06
6.98185e-06
6.98242e-06
6.98298e-06
6.98355e-06
6.98411e-06
6.98468e-06
6.98524e-06
6.9858e-06
6.98637e-06
6.98693e-06
6.98749e-06
6.98805e-06
6.98862e-06
6.98918e-06
6.98974e-06
6.9903e-06
6.99086e-06
6.99142e-06
6.99198e-06
6.99254e-06
6.9931e-06
6.99366e-06
6.99422e-06
6.99478e-06
6.99534e-06
6.9959e-06
6.99646e-06
6.99702e-06
6.99758e-06
6.99813e-06
6.99869e-06
6.99925e-06
6.99981e-06
7.00037e-06
7.00092e-06
7.00148e-06
7.00204e-06
7.0026e-06
7.00315e-06
7.00371e-06
7.00427e-06
7.00483e-06
7.00539e-06
7.00594e-06
7.0065e-06
7.00706e-06
7.00762e-06
7.00818e-06
7.00874e-06
7.00929e-06
7.00985e-06
7.01041e-06
7.01097e-06
7.01153e-06
7.01209e-06
7.01265e-06
7.01321e-06
7.01377e-06
7.01433e-06
7.0149e-06
7.01546e-06
7.01602e-06
7.01658e-06
7.01715e-06
7.01771e-06
7.01828e-06
7.01884e-06
7.01941e-06
7.01997e-06
7.02054e-06
7.02111e-06
7.02168e-06
7.02224e-06
7.02281e-06
7.02338e-06
7.02396e-06
7.02453e-06
7.0251e-06
7.02567e-06
7.02625e-06
7.02682e-06
7.0274e-06
7.02798e-06
7.02856e-06
7.02914e-06
7.02972e-06
7.0303e-06
7.03088e-06
7.03146e-06
7.03204e-06
7.03263e-06
7.03322e-06
7.0338e-06
7.03439e-06
7.03498e-06
7.03557e-06
7.03616e-06
7.03675e-06
7.03734e-06
7.03794e-06
7.03853e-06
7.03913e-06
7.03972e-06
7.04032e-06
7.04092e-06
7.04152e-06
7.04213e-06
7.04273e-06
7.04334e-06
7.04394e-06
7.04455e-06
7.04516e-06
7.04577e-06
7.04637e-06
7.04698e-06
7.04759e-06
7.04819e-06
7.0488e-06
7.04941e-06
7.05001e-06
7.05062e-06
7.05123e-06
7.05184e-06
7.05245e-06
7.05309e-06
7.05378e-06
7.05464e-06
7.05598e-06
7.05867e-06
7.065e-06
7.08009e-06
7.10989e-06
7.1491e-06
7.18242e-06
7.20466e-06
7.21918e-06
7.22922e-06
7.23642e-06
7.24159e-06
7.24532e-06
7.24803e-06
7.25005e-06
7.25162e-06
7.25288e-06
7.25393e-06
7.25482e-06
7.25559e-06
7.25627e-06
7.25687e-06
7.25741e-06
7.2579e-06
7.25835e-06
7.25877e-06
7.25915e-06
7.25951e-06
7.25984e-06
7.26016e-06
7.26045e-06
7.26073e-06
7.261e-06
7.26125e-06
7.26149e-06
7.26172e-06
7.26194e-06
7.26215e-06
7.26236e-06
7.26255e-06
7.26273e-06
7.2629e-06
7.26307e-06
7.26324e-06
7.2634e-06
7.26356e-06
7.26371e-06
7.26387e-06
7.26402e-06
7.26416e-06
7.26431e-06
7.26445e-06
7.26459e-06
7.26473e-06
7.26487e-06
7.26501e-06
7.26515e-06
7.26528e-06
7.26542e-06
7.26555e-06
7.26568e-06
7.26581e-06
7.26595e-06
7.26608e-06
7.26621e-06
7.26634e-06
7.26647e-06
7.2666e-06
7.26673e-06
7.26686e-06
7.26699e-06
7.26712e-06
7.26725e-06
7.26738e-06
7.2675e-06
7.26763e-06
7.26776e-06
7.26788e-06
7.268e-06
7.26813e-06
7.26825e-06
7.26837e-06
7.26849e-06
7.26861e-06
7.26873e-06
7.26884e-06
7.26896e-06
7.26907e-06
7.26918e-06
7.26929e-06
7.2694e-06
7.26951e-06
7.26961e-06
7.26972e-06
7.26982e-06
7.26992e-06
7.27002e-06
7.27012e-06
7.27022e-06
7.27032e-06
7.27042e-06
7.27051e-06
7.27061e-06
7.27071e-06
7.27082e-06
7.27092e-06
7.27102e-06
7.27111e-06
7.27121e-06
7.27131e-06
7.2714e-06
7.2715e-06
7.2716e-06
7.2717e-06
7.2718e-06
7.2719e-06
7.27201e-06
7.27211e-06
7.27221e-06
7.27232e-06
7.27242e-06
7.27252e-06
7.27263e-06
7.27273e-06
7.27283e-06
7.27293e-06
7.27303e-06
7.27313e-06
7.27323e-06
7.27333e-06
7.27343e-06
7.27352e-06
7.27362e-06
7.27371e-06
7.2738e-06
7.27388e-06
7.27397e-06
7.27405e-06
7.27413e-06
7.27421e-06
7.27429e-06
7.27436e-06
7.27444e-06
7.2745e-06
7.27457e-06
7.27464e-06
7.2747e-06
7.27476e-06
7.27482e-06
7.27487e-06
7.27493e-06
7.27498e-06
7.27503e-06
7.27509e-06
7.27514e-06
7.27519e-06
7.27525e-06
7.27531e-06
7.27537e-06
7.27543e-06
7.27551e-06
7.27558e-06
7.27567e-06
7.27576e-06
7.27587e-06
7.27598e-06
7.27608e-06
7.27643e-06
7.27533e-06
7.27561e-06
7.27577e-06
7.27592e-06
7.27607e-06
7.27625e-06
7.27644e-06
7.27665e-06
7.27688e-06
7.27714e-06
7.27741e-06
7.2777e-06
7.27801e-06
7.27834e-06
7.27869e-06
7.27906e-06
7.27944e-06
7.27984e-06
7.28024e-06
7.28066e-06
7.28108e-06
7.28151e-06
7.28193e-06
7.28234e-06
7.28273e-06
7.28311e-06
7.28345e-06
7.28376e-06
7.28402e-06
7.28423e-06
7.28437e-06
7.28444e-06
7.28442e-06
7.2843e-06
7.28408e-06
7.28372e-06
7.28324e-06
7.28261e-06
7.28181e-06
7.28085e-06
7.2797e-06
7.27836e-06
7.27682e-06
7.27506e-06
7.27307e-06
7.27086e-06
7.26841e-06
7.26572e-06
7.26279e-06
7.25962e-06
7.25619e-06
7.25253e-06
7.24863e-06
7.2445e-06
7.24014e-06
7.23556e-06
7.23079e-06
7.22583e-06
7.2207e-06
)
;

boundaryField
{
    boundary
    {
        type            empty;
        value           nonuniform 0();
    }
    inlet
    {
        type            calculated;
        value           uniform -6.93282e-06;
    }
    outlet
    {
        type            calculated;
        value           uniform 7.21546e-06;
    }
}


// ************************************************************************* //
