/*--------------------------------*- C++ -*----------------------------------*\
  =========                 |
  \\      /  F ield         | OpenFOAM: The Open Source CFD Toolbox
   \\    /   O peration     | Website:  https://openfoam.org
    \\  /    A nd           | Version:  7
     \\/     M anipulation  |
\*---------------------------------------------------------------------------*/
FoamFile
{
    version     2.0;
    format      ascii;
    class       volScalarField;
    location    "0.0006";
    object      Qdot;
}
// * * * * * * * * * * * * * * * * * * * * * * * * * * * * * * * * * * * * * //

dimensions      [1 -1 -3 0 0 0 0];

internalField   nonuniform List<scalar> 
500
(
-2.44858e-27
-1.85467e-27
-1.72424e-27
-1.69441e-27
-1.68695e-27
-1.68495e-27
-1.68469e-27
-1.68527e-27
-1.6864e-27
-1.68795e-27
-1.68981e-27
-1.69191e-27
-1.6942e-27
-1.69668e-27
-1.69935e-27
-1.70223e-27
-1.70538e-27
-1.70884e-27
-1.71271e-27
-1.71708e-27
-1.72207e-27
-1.7278e-27
-1.73441e-27
-1.74206e-27
-1.7509e-27
-1.76111e-27
-1.77285e-27
-1.78629e-27
-1.8016e-27
-1.81891e-27
-1.83835e-27
-1.86001e-27
-1.88397e-27
-1.91023e-27
-1.93879e-27
-1.96956e-27
-2.00241e-27
-2.03716e-27
-2.07357e-27
-2.11136e-27
-2.15019e-27
-2.18969e-27
-2.22945e-27
-2.26907e-27
-2.30813e-27
-2.34622e-27
-2.38298e-27
-2.41806e-27
-2.45118e-27
-2.4821e-27
-2.51067e-27
-2.53677e-27
-2.56036e-27
-2.58145e-27
-2.60011e-27
-2.61645e-27
-2.63061e-27
-2.64275e-27
-2.65306e-27
-2.66173e-27
-2.66895e-27
-2.6749e-27
-2.67976e-27
-2.68369e-27
-2.68685e-27
-2.68936e-27
-2.69133e-27
-2.69288e-27
-2.69407e-27
-2.69499e-27
-2.69569e-27
-2.69622e-27
-2.69662e-27
-2.69692e-27
-2.69715e-27
-2.69731e-27
-2.69744e-27
-2.69753e-27
-2.6976e-27
-2.69766e-27
-2.6977e-27
-2.69774e-27
-2.69777e-27
-2.6978e-27
-2.69782e-27
-2.69785e-27
-2.69787e-27
-2.6979e-27
-2.69792e-27
-2.69795e-27
-2.69798e-27
-2.69801e-27
-2.69804e-27
-2.69807e-27
-2.6981e-27
-2.69813e-27
-2.69817e-27
-2.69821e-27
-2.69825e-27
-2.69829e-27
-2.69833e-27
-2.69837e-27
-2.69842e-27
-2.69847e-27
-2.69852e-27
-2.69857e-27
-2.69863e-27
-2.69868e-27
-2.69874e-27
-2.6988e-27
-2.69887e-27
-2.69893e-27
-2.699e-27
-2.69907e-27
-2.69915e-27
-2.69922e-27
-2.6993e-27
-2.69938e-27
-2.69947e-27
-2.69955e-27
-2.69964e-27
-2.69974e-27
-2.69985e-27
-2.70002e-27
-2.70033e-27
-2.70086e-27
-2.70096e-27
-2.70095e-27
-2.7009e-27
-2.70086e-27
-2.70083e-27
-2.70084e-27
-2.70088e-27
-2.70095e-27
-2.70106e-27
-2.70118e-27
-2.70133e-27
-2.70148e-27
-2.70165e-27
-2.70182e-27
-2.70198e-27
-2.70215e-27
-2.70231e-27
-2.70248e-27
-2.70264e-27
-2.7028e-27
-2.70296e-27
-2.70312e-27
-2.70328e-27
-2.70344e-27
-2.7036e-27
-2.70377e-27
-2.70393e-27
-2.7041e-27
-2.70427e-27
-2.70444e-27
-2.70461e-27
-2.70479e-27
-2.70496e-27
-2.70514e-27
-2.70533e-27
-2.70551e-27
-2.7057e-27
-2.70589e-27
-2.70608e-27
-2.70627e-27
-2.70646e-27
-2.70666e-27
-2.70685e-27
-2.70705e-27
-2.70724e-27
-2.70743e-27
-2.70763e-27
-2.70781e-27
-2.708e-27
-2.70818e-27
-2.70835e-27
-2.70852e-27
-2.70869e-27
-2.70885e-27
-2.709e-27
-2.70914e-27
-2.70928e-27
-2.7094e-27
-2.70952e-27
-2.70963e-27
-2.70972e-27
-2.70981e-27
-2.70989e-27
-2.70995e-27
-2.71e-27
-2.71004e-27
-2.71006e-27
-2.71007e-27
-2.71007e-27
-2.71004e-27
-2.71001e-27
-2.70995e-27
-2.70988e-27
-2.70979e-27
-2.70967e-27
-2.70954e-27
-2.70939e-27
-2.70921e-27
-2.70901e-27
-2.70879e-27
-2.70854e-27
-2.70826e-27
-2.70796e-27
-2.7076e-27
-2.70712e-27
-2.70629e-27
-2.70419e-27
-2.69745e-27
-2.67354e-27
-2.58658e-27
-2.26944e-27
-1.1181e-27
3.03394e-27
1.78995e-26
7.07325e-26
2.57128e-25
9.09945e-25
3.17984e-24
1.10162e-23
3.78794e-23
1.2933e-22
4.3854e-22
1.47708e-21
4.9426e-21
1.64339e-20
5.43056e-20
1.78388e-19
5.8265e-19
1.89274e-18
6.11703e-18
1.96742e-17
6.29957e-17
2.00885e-16
6.3825e-16
2.02137e-15
6.38494e-15
2.01287e-14
6.3385e-14
1.99593e-13
6.29391e-13
1.99136e-12
6.33818e-12
2.03637e-11
6.63344e-11
2.20263e-10
7.53396e-10
2.65193e-09
9.65926e-09
3.65438e-08
1.43592e-07
5.84171e-07
2.4481e-06
1.05065e-05
4.59192e-05
0.000203413
0.000909898
0.00409931
0.0185707
0.0845367
0.386772
1.7807
8.2703
39.4345
204.839
1235.52
9152.91
70064.1
619006
5.83326e+06
5.5076e+07
4.64699e+08
2.67587e+09
8.00149e+09
1.25356e+10
1.3804e+10
1.39173e+10
1.39131e+10
1.34063e+10
1.20952e+10
1.02196e+10
8.26914e+09
6.72828e+09
5.59045e+09
4.7212e+09
4.05618e+09
3.53894e+09
3.12863e+09
2.79666e+09
2.52309e+09
2.29404e+09
2.09955e+09
1.93242e+09
1.78731e+09
1.6602e+09
1.548e+09
1.44829e+09
1.35914e+09
1.27901e+09
1.20665e+09
1.14103e+09
1.08127e+09
1.02667e+09
9.7662e+08
9.30607e+08
8.88212e+08
8.49131e+08
8.13974e+08
7.818e+08
7.5155e+08
7.23167e+08
6.96466e+08
6.71314e+08
6.47572e+08
6.25138e+08
6.03913e+08
5.83804e+08
5.64733e+08
5.46623e+08
5.29411e+08
5.13034e+08
4.97436e+08
4.82567e+08
4.68379e+08
4.54831e+08
4.41881e+08
4.29494e+08
4.17636e+08
4.06276e+08
3.95386e+08
3.84939e+08
3.74909e+08
3.65275e+08
3.56015e+08
3.47108e+08
3.38537e+08
3.30283e+08
3.22332e+08
3.14667e+08
3.07275e+08
3.00142e+08
2.93255e+08
2.86604e+08
2.80178e+08
2.73965e+08
2.67956e+08
2.62142e+08
2.56514e+08
2.51064e+08
2.45785e+08
2.40669e+08
2.3571e+08
2.309e+08
2.26234e+08
2.21706e+08
2.17309e+08
2.1304e+08
2.08893e+08
2.04863e+08
2.00946e+08
1.97137e+08
1.93432e+08
1.89828e+08
1.8632e+08
1.82906e+08
1.79582e+08
1.76344e+08
1.7319e+08
1.70118e+08
1.67127e+08
1.64216e+08
1.61373e+08
1.58591e+08
1.55876e+08
1.53227e+08
1.50641e+08
1.48117e+08
1.45652e+08
1.43244e+08
1.40892e+08
1.38593e+08
1.36346e+08
1.34149e+08
1.32002e+08
1.29901e+08
1.27847e+08
1.25837e+08
1.2387e+08
1.21945e+08
1.20061e+08
1.18217e+08
1.16411e+08
1.14643e+08
1.12911e+08
1.11215e+08
1.09553e+08
1.07925e+08
1.0633e+08
1.04766e+08
1.03233e+08
1.01731e+08
1.00258e+08
9.88139e+07
9.73977e+07
9.60088e+07
9.46466e+07
9.33103e+07
9.19994e+07
9.07129e+07
8.94508e+07
8.82123e+07
8.69967e+07
8.58036e+07
8.46323e+07
8.34825e+07
8.23536e+07
8.12451e+07
8.01566e+07
7.90876e+07
7.80377e+07
7.70065e+07
7.59935e+07
7.49983e+07
7.40206e+07
7.30603e+07
7.21164e+07
7.11889e+07
7.02776e+07
6.93821e+07
6.85023e+07
6.76385e+07
6.67928e+07
6.59733e+07
6.52433e+07
6.45491e+07
6.32573e+07
6.2438e+07
6.17069e+07
6.09619e+07
6.02181e+07
5.9479e+07
5.87454e+07
5.80209e+07
5.73044e+07
5.65961e+07
5.58958e+07
5.52033e+07
5.45182e+07
5.38401e+07
5.31685e+07
5.25025e+07
5.18426e+07
5.11878e+07
5.05376e+07
4.98915e+07
4.92491e+07
4.86099e+07
4.79734e+07
4.73392e+07
4.67067e+07
4.60754e+07
4.5445e+07
4.48149e+07
4.41848e+07
4.3554e+07
4.29223e+07
4.22893e+07
4.16545e+07
4.10176e+07
4.03783e+07
3.97364e+07
3.90915e+07
3.84435e+07
3.77922e+07
3.71376e+07
3.64795e+07
3.58179e+07
3.51528e+07
3.44845e+07
3.38129e+07
3.31383e+07
3.24609e+07
3.17811e+07
3.10991e+07
3.04153e+07
2.97301e+07
2.90437e+07
2.83563e+07
2.76674e+07
2.69764e+07
2.62824e+07
2.55813e+07
2.4875e+07
2.41831e+07
2.36285e+07
)
;

boundaryField
{
    boundary
    {
        type            empty;
    }
    inlet
    {
        type            calculated;
        value           uniform 0;
    }
    outlet
    {
        type            calculated;
        value           uniform 0;
    }
}


// ************************************************************************* //
