/*--------------------------------*- C++ -*----------------------------------*\
  =========                 |
  \\      /  F ield         | OpenFOAM: The Open Source CFD Toolbox
   \\    /   O peration     | Website:  https://openfoam.org
    \\  /    A nd           | Version:  7
     \\/     M anipulation  |
\*---------------------------------------------------------------------------*/
FoamFile
{
    version     2.0;
    format      ascii;
    class       volScalarField;
    location    "0.0006";
    object      T;
}
// * * * * * * * * * * * * * * * * * * * * * * * * * * * * * * * * * * * * * //

dimensions      [0 0 0 1 0 0 0];

internalField   nonuniform List<scalar> 
500
(
299.993
299.985
299.979
299.974
299.971
299.969
299.969
299.97
299.972
299.975
299.979
299.983
299.987
299.992
299.997
300.003
300.009
300.016
300.023
300.032
300.042
300.053
300.065
300.08
300.097
300.116
300.138
300.163
300.191
300.223
300.258
300.297
300.34
300.386
300.435
300.487
300.542
300.599
300.658
300.719
300.779
300.84
300.9
300.959
301.017
301.071
301.124
301.173
301.219
301.261
301.3
301.335
301.366
301.394
301.418
301.44
301.458
301.474
301.487
301.498
301.508
301.515
301.522
301.527
301.531
301.534
301.537
301.539
301.54
301.541
301.542
301.543
301.543
301.544
301.544
301.544
301.544
301.545
301.545
301.545
301.545
301.545
301.545
301.545
301.545
301.545
301.545
301.545
301.545
301.545
301.545
301.545
301.545
301.545
301.545
301.545
301.545
301.545
301.545
301.546
301.546
301.546
301.546
301.546
301.546
301.546
301.546
301.546
301.546
301.546
301.546
301.546
301.546
301.546
301.547
301.547
301.547
301.547
301.547
301.547
301.547
301.547
301.547
301.548
301.548
301.549
301.549
301.549
301.549
301.549
301.549
301.549
301.549
301.549
301.549
301.549
301.549
301.549
301.55
301.55
301.55
301.55
301.55
301.551
301.551
301.551
301.551
301.551
301.552
301.552
301.552
301.552
301.553
301.553
301.553
301.553
301.553
301.554
301.554
301.554
301.554
301.554
301.555
301.555
301.555
301.555
301.556
301.556
301.556
301.556
301.557
301.557
301.557
301.557
301.558
301.558
301.558
301.558
301.558
301.559
301.559
301.559
301.559
301.559
301.559
301.56
301.56
301.56
301.56
301.56
301.56
301.56
301.56
301.56
301.56
301.56
301.56
301.56
301.56
301.56
301.56
301.559
301.559
301.559
301.559
301.559
301.558
301.558
301.558
301.557
301.557
301.556
301.556
301.555
301.555
301.554
301.553
301.553
301.552
301.551
301.55
301.549
301.548
301.547
301.546
301.545
301.544
301.543
301.541
301.54
301.539
301.537
301.536
301.534
301.533
301.531
301.529
301.528
301.526
301.524
301.522
301.52
301.518
301.516
301.514
301.512
301.509
301.507
301.505
301.502
301.5
301.498
301.495
301.492
301.49
301.487
301.484
301.481
301.478
301.475
301.472
301.469
301.466
301.464
301.461
301.458
301.456
301.456
301.463
301.486
301.558
301.766
302.363
304.061
308.871
322.287
357.323
433.901
559.145
711.328
865.026
1010.99
1146.19
1265.46
1363.58
1446.4
1517.03
1573.37
1618.47
1657.14
1690.68
1720.2
1746.5
1770.15
1791.6
1811.2
1829.2
1845.84
1861.27
1875.64
1889.08
1901.68
1913.53
1924.7
1935.26
1945.26
1954.75
1963.78
1972.37
1980.56
1988.37
1995.83
2002.76
2009.28
2015.6
2021.7
2027.6
2033.32
2038.86
2044.23
2049.44
2054.5
2059.42
2064.19
2068.84
2073.37
2077.77
2082.06
2086.24
2090.32
2094.3
2098.18
2101.97
2105.68
2109.3
2112.83
2116.29
2119.68
2122.99
2126.23
2129.4
2132.51
2135.56
2138.54
2141.47
2144.34
2147.16
2149.92
2152.63
2155.3
2157.91
2160.48
2163.01
2165.49
2167.93
2170.33
2172.68
2175
2177.29
2179.53
2181.74
2183.92
2186.06
2188.17
2190.25
2192.3
2194.32
2196.3
2198.26
2200.19
2202.1
2203.97
2205.83
2207.65
2209.45
2211.23
2212.98
2214.71
2216.41
2218.09
2219.75
2221.39
2223.01
2224.6
2226.18
2227.73
2229.27
2230.78
2232.28
2233.76
2235.22
2236.66
2238.08
2239.49
2240.88
2242.26
2243.61
2244.96
2246.29
2247.6
2248.9
2250.18
2251.45
2252.7
2253.95
2255.17
2256.39
2257.59
2258.78
2259.96
2261.12
2262.28
2263.42
2264.55
2265.66
2266.77
2267.86
2268.95
2270.02
2271.08
2272.13
2273.17
2274.2
2275.21
2276.22
2277.21
2278.19
2279.16
2280.12
2281.06
2282
2282.92
2283.82
2284.72
2285.6
2286.46
2287.31
2288.15
2288.95
2289.82
2290.62
2291.62
2292.38
2293.13
2293.87
2294.58
2295.28
2295.96
2296.62
2297.27
2297.89
2298.5
2299.08
2299.65
2300.2
2300.74
2301.25
2301.75
2302.24
2302.71
2303.16
2303.61
2304.04
2304.47
2304.9
2305.32
2305.74
2306.16
2306.59
2307.03
2307.48
2307.95
2308.44
2308.95
2309.5
2310.08
2310.69
2311.35
2312.06
2312.81
2313.62
2314.49
2315.43
2316.43
2317.5
2318.64
2319.86
2321.15
2322.52
2323.97
2325.49
2327.1
2328.77
2330.52
2332.33
2334.18
2336.04
2337.85
2339.45
2340.55
)
;

boundaryField
{
    boundary
    {
        type            empty;
    }
    inlet
    {
        type            fixedValue;
        value           uniform 300;
    }
    outlet
    {
        type            zeroGradient;
    }
}


// ************************************************************************* //
