/*--------------------------------*- C++ -*----------------------------------*\
  =========                 |
  \\      /  F ield         | OpenFOAM: The Open Source CFD Toolbox
   \\    /   O peration     | Website:  https://openfoam.org
    \\  /    A nd           | Version:  7
     \\/     M anipulation  |
\*---------------------------------------------------------------------------*/
FoamFile
{
    version     2.0;
    format      ascii;
    class       volScalarField;
    location    "0.00086";
    object      H;
}
// * * * * * * * * * * * * * * * * * * * * * * * * * * * * * * * * * * * * * //

dimensions      [0 0 0 0 0 0 0];

internalField   nonuniform List<scalar> 
125
(
1.48613e-41
2.01349e-41
2.12763e-41
2.15263e-41
2.15835e-41
2.15982e-41
2.16023e-41
2.16025e-41
2.15996e-41
2.15936e-41
2.15844e-41
2.15717e-41
2.15557e-41
2.15367e-41
2.1515e-41
2.14912e-41
2.14661e-41
2.14403e-41
2.14149e-41
2.13905e-41
2.13681e-41
2.13483e-41
2.13318e-41
2.13193e-41
2.13112e-41
2.13078e-41
2.13095e-41
2.13163e-41
2.13286e-41
2.13464e-41
2.13699e-41
2.13993e-41
2.14348e-41
2.14769e-41
2.1526e-41
2.15826e-41
2.16475e-41
2.17215e-41
2.18054e-41
2.19004e-41
2.20074e-41
2.21277e-41
2.22624e-41
2.24126e-41
2.25797e-41
2.27645e-41
2.29682e-41
2.31914e-41
2.3435e-41
2.36992e-41
2.39844e-41
2.42904e-41
2.46169e-41
2.4963e-41
2.53279e-41
2.57099e-41
2.61075e-41
2.65185e-41
2.69405e-41
2.7371e-41
2.7807e-41
2.82455e-41
2.86834e-41
2.91176e-41
2.95449e-41
2.99624e-41
3.03672e-41
3.07568e-41
3.1129e-41
3.14818e-41
3.18138e-41
3.21239e-41
3.24112e-41
3.26756e-41
3.29169e-41
3.31357e-41
3.33325e-41
3.35083e-41
3.36642e-41
3.38015e-41
3.39215e-41
3.40257e-41
3.41155e-41
3.41924e-41
3.42579e-41
3.43132e-41
3.43597e-41
3.43984e-41
3.44306e-41
3.4457e-41
3.44787e-41
3.44964e-41
3.45106e-41
3.45221e-41
3.45314e-41
3.45387e-41
3.45446e-41
3.45492e-41
3.45528e-41
3.45557e-41
3.4558e-41
3.45598e-41
3.45613e-41
3.45625e-41
3.45634e-41
3.45642e-41
3.45649e-41
3.45655e-41
3.45661e-41
3.45666e-41
3.45671e-41
3.45676e-41
3.45681e-41
3.45685e-41
3.4569e-41
3.45695e-41
3.45701e-41
3.45706e-41
3.45712e-41
3.45718e-41
3.45724e-41
3.4573e-41
3.45736e-41
3.45741e-41
3.45743e-41
)
;

boundaryField
{
    boundary
    {
        type            empty;
    }
    inlet
    {
        type            fixedValue;
        value           uniform 0;
    }
    outlet
    {
        type            zeroGradient;
    }
    procBoundary2to3
    {
        type            processor;
        value           uniform 3.45745e-41;
    }
}


// ************************************************************************* //
