/*--------------------------------*- C++ -*----------------------------------*\
  =========                 |
  \\      /  F ield         | OpenFOAM: The Open Source CFD Toolbox
   \\    /   O peration     | Website:  https://openfoam.org
    \\  /    A nd           | Version:  7
     \\/     M anipulation  |
\*---------------------------------------------------------------------------*/
FoamFile
{
    version     2.0;
    format      ascii;
    class       volScalarField;
    location    "0.00086";
    object      OH;
}
// * * * * * * * * * * * * * * * * * * * * * * * * * * * * * * * * * * * * * //

dimensions      [0 0 0 0 0 0 0];

internalField   nonuniform List<scalar> 
125
(
9.38478e-48
1.82909e-47
2.43816e-47
2.85071e-47
3.12963e-47
3.31833e-47
3.44621e-47
3.53301e-47
3.59199e-47
3.63201e-47
3.65905e-47
3.67711e-47
3.68893e-47
3.69637e-47
3.70076e-47
3.70303e-47
3.70389e-47
3.70386e-47
3.70337e-47
3.70277e-47
3.70234e-47
3.70231e-47
3.70288e-47
3.7042e-47
3.7064e-47
3.70956e-47
3.71376e-47
3.71904e-47
3.72544e-47
3.73301e-47
3.74177e-47
3.75179e-47
3.76311e-47
3.77583e-47
3.79004e-47
3.80588e-47
3.8235e-47
3.84308e-47
3.86484e-47
3.889e-47
3.91581e-47
3.94552e-47
3.97842e-47
4.01476e-47
4.05482e-47
4.09884e-47
4.14706e-47
4.19969e-47
4.25687e-47
4.31874e-47
4.38534e-47
4.4567e-47
4.53272e-47
4.61328e-47
4.69815e-47
4.78702e-47
4.87953e-47
4.9752e-47
5.07351e-47
5.17385e-47
5.27558e-47
5.37801e-47
5.4804e-47
5.58203e-47
5.68217e-47
5.78012e-47
5.8752e-47
5.96682e-47
6.05443e-47
6.13758e-47
6.21589e-47
6.28908e-47
6.35697e-47
6.41947e-47
6.47657e-47
6.52836e-47
6.57497e-47
6.61662e-47
6.65356e-47
6.68609e-47
6.71454e-47
6.73923e-47
6.76052e-47
6.77876e-47
6.79426e-47
6.80736e-47
6.81835e-47
6.82752e-47
6.83512e-47
6.84137e-47
6.84649e-47
6.85065e-47
6.85402e-47
6.85673e-47
6.8589e-47
6.86063e-47
6.862e-47
6.86309e-47
6.86394e-47
6.86462e-47
6.86516e-47
6.86558e-47
6.86592e-47
6.86619e-47
6.86642e-47
6.86661e-47
6.86677e-47
6.86691e-47
6.86704e-47
6.86716e-47
6.86728e-47
6.86739e-47
6.86751e-47
6.86762e-47
6.86774e-47
6.86786e-47
6.86798e-47
6.86811e-47
6.86824e-47
6.86838e-47
6.86851e-47
6.86865e-47
6.86875e-47
6.86877e-47
6.86851e-47
)
;

boundaryField
{
    boundary
    {
        type            empty;
    }
    inlet
    {
        type            fixedValue;
        value           uniform 0;
    }
    outlet
    {
        type            zeroGradient;
    }
    procBoundary2to3
    {
        type            processor;
        value           uniform 6.86806e-47;
    }
}


// ************************************************************************* //
