/*--------------------------------*- C++ -*----------------------------------*\
  =========                 |
  \\      /  F ield         | OpenFOAM: The Open Source CFD Toolbox
   \\    /   O peration     | Website:  https://openfoam.org
    \\  /    A nd           | Version:  7
     \\/     M anipulation  |
\*---------------------------------------------------------------------------*/
FoamFile
{
    version     2.0;
    format      ascii;
    class       surfaceScalarField;
    location    "0.00086";
    object      phi;
}
// * * * * * * * * * * * * * * * * * * * * * * * * * * * * * * * * * * * * * //

dimensions      [1 0 -1 0 0 0 0];

internalField   nonuniform List<scalar> 
124
(
6.93045e-06
6.93037e-06
6.93029e-06
6.93022e-06
6.93014e-06
6.93007e-06
6.93e-06
6.92994e-06
6.92989e-06
6.92985e-06
6.92982e-06
6.9298e-06
6.92979e-06
6.92979e-06
6.92981e-06
6.92983e-06
6.92986e-06
6.92989e-06
6.92992e-06
6.92996e-06
6.92998e-06
6.93e-06
6.93001e-06
6.93001e-06
6.92999e-06
6.92995e-06
6.9299e-06
6.92983e-06
6.92975e-06
6.92964e-06
6.92951e-06
6.92937e-06
6.9292e-06
6.92902e-06
6.92881e-06
6.92857e-06
6.92831e-06
6.92802e-06
6.92771e-06
6.92735e-06
6.92696e-06
6.92653e-06
6.92605e-06
6.92553e-06
6.92496e-06
6.92434e-06
6.92366e-06
6.92292e-06
6.92213e-06
6.92127e-06
6.92037e-06
6.9194e-06
6.91839e-06
6.91732e-06
6.91622e-06
6.91507e-06
6.91389e-06
6.91269e-06
6.91147e-06
6.91024e-06
6.90901e-06
6.90778e-06
6.90657e-06
6.90539e-06
6.90423e-06
6.90311e-06
6.90203e-06
6.901e-06
6.90002e-06
6.8991e-06
6.89824e-06
6.89743e-06
6.89668e-06
6.89599e-06
6.89536e-06
6.89478e-06
6.89426e-06
6.89379e-06
6.89337e-06
6.89299e-06
6.89265e-06
6.89235e-06
6.89208e-06
6.89185e-06
6.89164e-06
6.89145e-06
6.89129e-06
6.89114e-06
6.89101e-06
6.89089e-06
6.89078e-06
6.89069e-06
6.8906e-06
6.89051e-06
6.89044e-06
6.89036e-06
6.89029e-06
6.89023e-06
6.89016e-06
6.8901e-06
6.89004e-06
6.88998e-06
6.88992e-06
6.88987e-06
6.88981e-06
6.88975e-06
6.8897e-06
6.88964e-06
6.88958e-06
6.88953e-06
6.88947e-06
6.88942e-06
6.88936e-06
6.88931e-06
6.88925e-06
6.88919e-06
6.88914e-06
6.88908e-06
6.88903e-06
6.88897e-06
6.88892e-06
6.88886e-06
6.88881e-06
6.88875e-06
)
;

boundaryField
{
    boundary
    {
        type            empty;
        value           nonuniform 0();
    }
    inlet
    {
        type            calculated;
        value           uniform -6.93052e-06;
    }
    outlet
    {
        type            calculated;
        value           nonuniform 0();
    }
    procBoundary2to3
    {
        type            processor;
        value           uniform 6.88869e-06;
    }
}


// ************************************************************************* //
