/*--------------------------------*- C++ -*----------------------------------*\
  =========                 |
  \\      /  F ield         | OpenFOAM: The Open Source CFD Toolbox
   \\    /   O peration     | Website:  https://openfoam.org
    \\  /    A nd           | Version:  7
     \\/     M anipulation  |
\*---------------------------------------------------------------------------*/
FoamFile
{
    version     2.0;
    format      ascii;
    class       volScalarField;
    location    "0.00014";
    object      cellCpuTimes;
}
// * * * * * * * * * * * * * * * * * * * * * * * * * * * * * * * * * * * * * //

dimensions      [0 0 0 0 0 0 0];

internalField   nonuniform List<scalar> 
500
(
8.6e-05
5.1e-05
4.9e-05
5e-05
4.8e-05
4.9e-05
4.8e-05
4.9e-05
4.8e-05
4.9e-05
4.8e-05
4.9e-05
4.8e-05
4.7e-05
4.7e-05
4.8e-05
4.9e-05
4.8e-05
4.8e-05
4.9e-05
4.8e-05
4.7e-05
4.8e-05
4.8e-05
4.8e-05
4.8e-05
4.8e-05
4.8e-05
4.9e-05
4.8e-05
4.8e-05
4.8e-05
4.6e-05
4.9e-05
4.8e-05
4.9e-05
4.9e-05
4.9e-05
4.8e-05
4.8e-05
4.8e-05
4.8e-05
4.8e-05
4.8e-05
4.7e-05
4.8e-05
4.8e-05
4.7e-05
4.8e-05
4.8e-05
4.7e-05
4.8e-05
6.4e-05
4.9e-05
4.7e-05
4.8e-05
4.8e-05
4.7e-05
4.8e-05
4.7e-05
4.8e-05
4.8e-05
4.8e-05
4.8e-05
4.8e-05
4.7e-05
4.8e-05
4.7e-05
4.8e-05
4.8e-05
4.8e-05
4.7e-05
4.8e-05
4.7e-05
4.8e-05
4.7e-05
4.7e-05
4.8e-05
4.8e-05
4.8e-05
4.7e-05
4.8e-05
4.8e-05
4.8e-05
4.9e-05
4.8e-05
4.8e-05
4.8e-05
4.8e-05
4.8e-05
4.7e-05
4.8e-05
4.8e-05
4.8e-05
4.8e-05
4.8e-05
4.9e-05
4.8e-05
4.8e-05
4.8e-05
4.8e-05
4.8e-05
4.8e-05
4.7e-05
4.9e-05
4.8e-05
4.8e-05
4.8e-05
4.7e-05
4.8e-05
4.7e-05
4.8e-05
4.8e-05
4.7e-05
4.8e-05
4.8e-05
4.7e-05
4.8e-05
4.7e-05
4.8e-05
4.7e-05
4.8e-05
4.8e-05
4.7e-05
4.8e-05
8.4e-05
5.6e-05
4.8e-05
4.8e-05
4.7e-05
4.7e-05
4.7e-05
4.8e-05
4.6e-05
4.7e-05
4.7e-05
4.7e-05
4.6e-05
4.7e-05
4.7e-05
4.7e-05
4.6e-05
4.8e-05
4.8e-05
4.6e-05
4.7e-05
4.7e-05
4.6e-05
4.7e-05
4.7e-05
4.7e-05
4.6e-05
4.8e-05
4.7e-05
4.7e-05
4.7e-05
4.6e-05
4.7e-05
4.7e-05
4.6e-05
4.7e-05
4.7e-05
4.6e-05
4.7e-05
4.7e-05
4.7e-05
4.7e-05
4.6e-05
4.7e-05
4.7e-05
4.6e-05
4.7e-05
4.7e-05
4.7e-05
4.7e-05
4.7e-05
4.6e-05
4.7e-05
5.2e-05
4.6e-05
4.7e-05
4.7e-05
4.7e-05
4.6e-05
4.6e-05
4.7e-05
4.6e-05
4.7e-05
4.7e-05
4.6e-05
4.7e-05
4.6e-05
4.7e-05
4.6e-05
4.7e-05
4.7e-05
4.7e-05
4.7e-05
4.6e-05
4.7e-05
4.6e-05
4.7e-05
4.6e-05
4.6e-05
4.7e-05
4.7e-05
4.7e-05
4.7e-05
4.7e-05
4.7e-05
4.6e-05
4.7e-05
4.6e-05
4.7e-05
4.7e-05
4.7e-05
4.7e-05
4.7e-05
4.7e-05
4.6e-05
4.7e-05
4.7e-05
4.7e-05
4.6e-05
4.6e-05
4.6e-05
4.7e-05
4.6e-05
4.7e-05
4.6e-05
4.6e-05
4.6e-05
4.6e-05
4.7e-05
4.7e-05
4.6e-05
4.7e-05
4.7e-05
4.6e-05
4.6e-05
4.7e-05
4.7e-05
4.7e-05
4.6e-05
4.7e-05
4.6e-05
4.7e-05
4.7e-05
4.6e-05
4.7e-05
4.7e-05
4.6e-05
4.6e-05
4.7e-05
4.7e-05
4.7e-05
4.7e-05
4.6e-05
4.7e-05
4.6e-05
4.7e-05
5.7e-05
4.7e-05
4.6e-05
4.6e-05
4.7e-05
4.7e-05
4.6e-05
4.6e-05
4.7e-05
4.6e-05
4.7e-05
5e-05
5.7e-05
6.9e-05
9e-05
0.000112
0.000139
0.000155
0.000164
0.000166
0.000164
0.000194
0.000248
0.000263
0.000255
0.000274
0.000285
0.000289
0.000274
0.000216
0.000217
0.000203
0.000173
0.000185
0.000167
0.000158
0.00016
0.000148
0.000149
0.000199
0.000151
0.000147
0.000142
0.000139
0.000137
0.000146
0.000145
0.000145
0.000141
0.000131
0.00013
0.000126
0.000126
0.000128
0.000124
0.000123
0.000124
0.000126
0.000132
0.000127
0.000122
0.000122
0.000126
0.000127
0.000125
0.000126
0.000124
0.000123
0.00012
0.000119
0.000119
0.00012
0.000123
0.000124
0.000119
0.000119
0.000119
0.000119
0.000118
0.000119
0.000119
0.000124
0.000117
0.000117
0.000118
0.000116
0.000118
0.000119
0.000119
0.00012
0.000122
0.00012
0.000119
0.00012
0.00012
0.000119
0.00012
0.00012
0.000119
0.000126
0.000125
0.000125
0.000126
0.000125
0.000125
0.000125
0.000123
0.000124
0.000122
0.000123
0.000119
0.000119
0.000119
0.00012
0.000115
0.000117
0.000119
0.000161
0.000122
0.000128
0.000127
0.000127
0.000127
0.000125
0.000127
0.000123
0.000123
0.000124
0.000109
0.000108
0.000108
0.000107
0.000107
0.000107
0.000106
0.000106
0.000106
0.000106
0.000104
0.000108
9.8e-05
9.6e-05
9.6e-05
9.7e-05
9.1e-05
8.9e-05
8.9e-05
8.5e-05
9e-05
9e-05
8.8e-05
8.7e-05
8.6e-05
8.2e-05
8.4e-05
8.5e-05
7.9e-05
8.1e-05
7.8e-05
7.7e-05
7.4e-05
7.6e-05
7.1e-05
7e-05
6.6e-05
6.4e-05
6.3e-05
6.9e-05
6.9e-05
6.5e-05
6.3e-05
6.4e-05
6.5e-05
6.5e-05
6.5e-05
6.2e-05
6.5e-05
6.4e-05
6.5e-05
6.3e-05
6.3e-05
6.3e-05
6.3e-05
6.2e-05
6.3e-05
6.3e-05
6.3e-05
6.3e-05
6.2e-05
6.3e-05
6.2e-05
6.3e-05
7.2e-05
6.4e-05
6.3e-05
6.3e-05
6.3e-05
6.3e-05
6.2e-05
6.3e-05
6.3e-05
6.3e-05
6.2e-05
6.2e-05
6.3e-05
6.3e-05
6.2e-05
6.2e-05
6.3e-05
6.2e-05
6.3e-05
6.3e-05
6.3e-05
6.3e-05
6.3e-05
6.2e-05
6.3e-05
6.3e-05
6.3e-05
6.3e-05
6.2e-05
6.3e-05
6.3e-05
6.3e-05
6.2e-05
6.3e-05
6.2e-05
6.2e-05
6.3e-05
6.2e-05
6.2e-05
6.2e-05
6.3e-05
6.2e-05
6.3e-05
6.2e-05
6.2e-05
6.3e-05
6.2e-05
)
;

boundaryField
{
    boundary
    {
        type            empty;
    }
    inlet
    {
        type            calculated;
        value           uniform 0;
    }
    outlet
    {
        type            calculated;
        value           uniform 0;
    }
}


// ************************************************************************* //
