/*--------------------------------*- C++ -*----------------------------------*\
  =========                 |
  \\      /  F ield         | OpenFOAM: The Open Source CFD Toolbox
   \\    /   O peration     | Website:  https://openfoam.org
    \\  /    A nd           | Version:  7
     \\/     M anipulation  |
\*---------------------------------------------------------------------------*/
FoamFile
{
    version     2.0;
    format      ascii;
    class       volScalarField;
    location    "0.00014";
    object      H;
}
// * * * * * * * * * * * * * * * * * * * * * * * * * * * * * * * * * * * * * //

dimensions      [0 0 0 0 0 0 0];

internalField   nonuniform List<scalar> 
500
(
1.50519e-41
2.06822e-41
2.22478e-41
2.30162e-41
2.37133e-41
2.45067e-41
2.54249e-41
2.64474e-41
2.75288e-41
2.86113e-41
2.96375e-41
3.056e-41
3.13478e-41
3.19884e-41
3.24858e-41
3.28554e-41
3.3119e-41
3.33e-41
3.34197e-41
3.34962e-41
3.35436e-41
3.35721e-41
3.35887e-41
3.35982e-41
3.36035e-41
3.36064e-41
3.3608e-41
3.36089e-41
3.36094e-41
3.36098e-41
3.36101e-41
3.36103e-41
3.36105e-41
3.36107e-41
3.3611e-41
3.36112e-41
3.36114e-41
3.36117e-41
3.3612e-41
3.36122e-41
3.36125e-41
3.36128e-41
3.36131e-41
3.36134e-41
3.36137e-41
3.36141e-41
3.36144e-41
3.36148e-41
3.36152e-41
3.36155e-41
3.36159e-41
3.36164e-41
3.36168e-41
3.36172e-41
3.36177e-41
3.36182e-41
3.36187e-41
3.36192e-41
3.36197e-41
3.36202e-41
3.36208e-41
3.36214e-41
3.3622e-41
3.36226e-41
3.36232e-41
3.36239e-41
3.36246e-41
3.36253e-41
3.3626e-41
3.36268e-41
3.36276e-41
3.36284e-41
3.36292e-41
3.363e-41
3.36309e-41
3.36318e-41
3.36328e-41
3.36337e-41
3.36347e-41
3.36357e-41
3.36368e-41
3.36379e-41
3.3639e-41
3.36401e-41
3.36413e-41
3.36425e-41
3.36437e-41
3.3645e-41
3.36463e-41
3.36476e-41
3.3649e-41
3.36504e-41
3.36519e-41
3.36533e-41
3.36548e-41
3.36564e-41
3.3658e-41
3.36596e-41
3.36612e-41
3.36629e-41
3.36646e-41
3.36664e-41
3.36682e-41
3.367e-41
3.36718e-41
3.36737e-41
3.36756e-41
3.36776e-41
3.36796e-41
3.36816e-41
3.36836e-41
3.36857e-41
3.36878e-41
3.369e-41
3.36921e-41
3.36943e-41
3.36965e-41
3.36988e-41
3.3701e-41
3.37033e-41
3.37055e-41
3.37077e-41
3.37098e-41
3.37116e-41
3.37126e-41
3.37133e-41
3.37158e-41
3.37177e-41
3.37194e-41
3.37211e-41
3.37231e-41
3.37254e-41
3.3728e-41
3.37309e-41
3.3734e-41
3.37372e-41
3.37403e-41
3.37432e-41
3.37461e-41
3.37487e-41
3.37511e-41
3.37535e-41
3.37556e-41
3.37577e-41
3.37597e-41
3.37615e-41
3.37633e-41
3.3765e-41
3.37666e-41
3.3768e-41
3.37694e-41
3.37707e-41
3.37718e-41
3.37728e-41
3.37737e-41
3.37744e-41
3.3775e-41
3.37754e-41
3.37757e-41
3.37757e-41
3.37756e-41
3.37753e-41
3.37748e-41
3.3774e-41
3.3773e-41
3.37718e-41
3.37704e-41
3.37686e-41
3.37666e-41
3.37643e-41
3.37618e-41
3.37589e-41
3.37556e-41
3.37521e-41
3.37482e-41
3.37439e-41
3.37393e-41
3.37343e-41
3.37289e-41
3.37231e-41
3.37169e-41
3.37103e-41
3.37032e-41
3.36956e-41
3.36876e-41
3.36791e-41
3.36701e-41
3.36606e-41
3.36506e-41
3.36401e-41
3.3629e-41
3.36174e-41
3.36052e-41
3.35925e-41
3.35792e-41
3.35653e-41
3.35508e-41
3.35357e-41
3.352e-41
3.35037e-41
3.34869e-41
3.34693e-41
3.34512e-41
3.34325e-41
3.34131e-41
3.33931e-41
3.33725e-41
3.33512e-41
3.33294e-41
3.33069e-41
3.32839e-41
3.32602e-41
3.32359e-41
3.32111e-41
3.31857e-41
3.31597e-41
3.31332e-41
3.31061e-41
3.30785e-41
3.30504e-41
3.30218e-41
3.29927e-41
3.29632e-41
3.29332e-41
3.29028e-41
3.2872e-41
3.28409e-41
3.28094e-41
3.27779e-41
3.27486e-41
3.27369e-41
3.2851e-41
3.38539e-41
4.10755e-41
9.14813e-41
4.39412e-40
2.82019e-39
1.89688e-38
1.27503e-37
8.4997e-37
5.61091e-36
3.66558e-35
2.36878e-34
1.5135e-33
9.55698e-33
5.96144e-32
3.67186e-31
2.23224e-30
1.33886e-29
7.91937e-29
4.61766e-28
2.69067e-27
1.52721e-26
8.54241e-26
4.70824e-25
2.55684e-24
1.3681e-23
7.21343e-23
3.74862e-22
1.92074e-21
9.70923e-21
4.84606e-20
2.39123e-19
1.16856e-18
5.66994e-18
2.74114e-17
1.32674e-16
6.46878e-16
3.20068e-15
1.6196e-14
8.43564e-14
4.55281e-13
2.79184e-12
2.31065e-11
2.38879e-10
2.23828e-09
2.10227e-08
1.93514e-07
1.65996e-06
1.1965e-05
6.20184e-05
0.000200581
0.000435804
0.000749688
0.00110966
0.00145295
0.00171314
0.00186426
0.0019222
0.00191229
0.00186451
0.00179764
0.00172331
0.0016481
0.0015755
0.00150712
0.00144355
0.00138485
0.00133077
0.00128097
0.00123505
0.00119262
0.00115334
0.00111686
0.00108291
0.00105121
0.00102154
0.000993692
0.000967494
0.000942781
0.000919411
0.000897256
0.000876818
0.000857759
0.000839431
0.000821768
0.00080471
0.0007882
0.000772184
0.000756612
0.000741436
0.000726614
0.000712103
0.000697866
0.000683867
0.000670075
0.000656458
0.00064299
0.000629646
0.000616404
0.000603246
0.000590155
0.000577117
0.000564121
0.000551159
0.000538225
0.000525316
0.00051243
0.000499568
0.000486735
0.000473936
0.000461178
0.000448469
0.00043582
0.000423244
0.000410752
0.000398359
0.000386079
0.000373927
0.000361917
0.000350066
0.000338389
0.000326901
0.000315616
0.000304548
0.000293712
0.000283119
0.000272782
0.000262711
0.000252917
0.000243407
0.000234191
0.000225273
0.00021666
0.000208355
0.000200362
0.000192682
0.000185316
0.000178263
0.000171522
0.000165089
0.000158962
0.000153137
0.000147607
0.000142367
0.000137411
0.000132732
0.000128323
0.000124174
0.000120277
0.000116623
0.000113202
0.000110006
0.000107024
0.000104247
0.000101666
9.92718e-05
9.7054e-05
9.50039e-05
9.31124e-05
9.13704e-05
8.97694e-05
8.83007e-05
8.6956e-05
8.57275e-05
8.46072e-05
8.35879e-05
8.26622e-05
8.18235e-05
8.10651e-05
8.03809e-05
7.9765e-05
7.92117e-05
7.87159e-05
7.82726e-05
7.78772e-05
7.75253e-05
7.72129e-05
7.69362e-05
7.66918e-05
7.64763e-05
7.62869e-05
7.61208e-05
7.59755e-05
7.58488e-05
7.57384e-05
7.56427e-05
7.55598e-05
7.54882e-05
7.54266e-05
7.53737e-05
7.53284e-05
7.52897e-05
7.52568e-05
7.52288e-05
7.52051e-05
7.51851e-05
7.51683e-05
7.51542e-05
7.51424e-05
7.51325e-05
7.51244e-05
7.51176e-05
7.5112e-05
7.51075e-05
7.51037e-05
7.51007e-05
7.50983e-05
7.50963e-05
7.50947e-05
7.50935e-05
7.50925e-05
7.50918e-05
7.50912e-05
7.50908e-05
7.50905e-05
7.50903e-05
7.50902e-05
7.50902e-05
7.50901e-05
7.50902e-05
7.50902e-05
7.50903e-05
7.50904e-05
7.50905e-05
7.50906e-05
7.50907e-05
7.50909e-05
7.5091e-05
7.50911e-05
7.50913e-05
7.50914e-05
7.50915e-05
7.50916e-05
7.50918e-05
7.50919e-05
7.5092e-05
7.50921e-05
7.50922e-05
7.50923e-05
7.50924e-05
7.50925e-05
7.50926e-05
7.50927e-05
7.50927e-05
7.50928e-05
7.50929e-05
7.50929e-05
7.5093e-05
7.50931e-05
7.50931e-05
7.50931e-05
7.50932e-05
7.50932e-05
7.50932e-05
7.50932e-05
7.50933e-05
7.50933e-05
7.50933e-05
7.50933e-05
7.50933e-05
7.50933e-05
7.50932e-05
7.50932e-05
7.50932e-05
7.50932e-05
7.50931e-05
7.50931e-05
7.50931e-05
7.50931e-05
)
;

boundaryField
{
    boundary
    {
        type            empty;
    }
    inlet
    {
        type            fixedValue;
        value           uniform 0;
    }
    outlet
    {
        type            zeroGradient;
    }
}


// ************************************************************************* //
