/*--------------------------------*- C++ -*----------------------------------*\
  =========                 |
  \\      /  F ield         | OpenFOAM: The Open Source CFD Toolbox
   \\    /   O peration     | Website:  https://openfoam.org
    \\  /    A nd           | Version:  7
     \\/     M anipulation  |
\*---------------------------------------------------------------------------*/
FoamFile
{
    version     2.0;
    format      ascii;
    class       volScalarField;
    location    "0.00014";
    object      O;
}
// * * * * * * * * * * * * * * * * * * * * * * * * * * * * * * * * * * * * * //

dimensions      [0 0 0 0 0 0 0];

internalField   nonuniform List<scalar> 
500
(
1.62503e-47
3.94018e-47
6.34546e-47
8.84061e-47
1.1424e-46
1.40766e-46
1.67555e-46
1.93964e-46
2.19221e-46
2.42554e-46
2.63321e-46
2.81102e-46
2.95738e-46
3.07323e-46
3.16148e-46
3.22622e-46
3.27202e-46
3.3033e-46
3.32396e-46
3.33717e-46
3.34534e-46
3.35026e-46
3.35313e-46
3.35475e-46
3.35564e-46
3.35612e-46
3.35637e-46
3.35649e-46
3.35654e-46
3.35656e-46
3.35657e-46
3.35656e-46
3.35655e-46
3.35654e-46
3.35653e-46
3.35652e-46
3.35651e-46
3.3565e-46
3.35649e-46
3.35647e-46
3.35646e-46
3.35645e-46
3.35644e-46
3.35643e-46
3.35643e-46
3.35642e-46
3.35641e-46
3.3564e-46
3.3564e-46
3.35639e-46
3.35639e-46
3.35639e-46
3.35639e-46
3.35639e-46
3.35639e-46
3.35639e-46
3.3564e-46
3.3564e-46
3.35641e-46
3.35642e-46
3.35643e-46
3.35645e-46
3.35646e-46
3.35648e-46
3.3565e-46
3.35652e-46
3.35655e-46
3.35657e-46
3.3566e-46
3.35663e-46
3.35667e-46
3.35671e-46
3.35675e-46
3.35679e-46
3.35684e-46
3.35689e-46
3.35694e-46
3.357e-46
3.35706e-46
3.35712e-46
3.35719e-46
3.35726e-46
3.35733e-46
3.35741e-46
3.35749e-46
3.35757e-46
3.35766e-46
3.35775e-46
3.35785e-46
3.35795e-46
3.35806e-46
3.35816e-46
3.35828e-46
3.35839e-46
3.35852e-46
3.35864e-46
3.35877e-46
3.35891e-46
3.35904e-46
3.35919e-46
3.35934e-46
3.35949e-46
3.35964e-46
3.3598e-46
3.35997e-46
3.36014e-46
3.36031e-46
3.36049e-46
3.36067e-46
3.36086e-46
3.36105e-46
3.36124e-46
3.36144e-46
3.36164e-46
3.36185e-46
3.36205e-46
3.36227e-46
3.36248e-46
3.36268e-46
3.36285e-46
3.36297e-46
3.36296e-46
3.36268e-46
3.3619e-46
3.36019e-46
3.35736e-46
3.35512e-46
3.35241e-46
3.34962e-46
3.34727e-46
3.34586e-46
3.34568e-46
3.34679e-46
3.34895e-46
3.35179e-46
3.35489e-46
3.35789e-46
3.36055e-46
3.36277e-46
3.36452e-46
3.36585e-46
3.36683e-46
3.36755e-46
3.36809e-46
3.3685e-46
3.36881e-46
3.36907e-46
3.3693e-46
3.36949e-46
3.36967e-46
3.36983e-46
3.36997e-46
3.37011e-46
3.37022e-46
3.37033e-46
3.37041e-46
3.37048e-46
3.37054e-46
3.37057e-46
3.37059e-46
3.37058e-46
3.37055e-46
3.3705e-46
3.37043e-46
3.37033e-46
3.3702e-46
3.37005e-46
3.36986e-46
3.36965e-46
3.3694e-46
3.36912e-46
3.36881e-46
3.36846e-46
3.36807e-46
3.36764e-46
3.36717e-46
3.36666e-46
3.3661e-46
3.3655e-46
3.36485e-46
3.36416e-46
3.36341e-46
3.36261e-46
3.36176e-46
3.36086e-46
3.3599e-46
3.35888e-46
3.3578e-46
3.35666e-46
3.35547e-46
3.3542e-46
3.35288e-46
3.35149e-46
3.35003e-46
3.34851e-46
3.34691e-46
3.34525e-46
3.34352e-46
3.34171e-46
3.33983e-46
3.33788e-46
3.33586e-46
3.33376e-46
3.33159e-46
3.32935e-46
3.32703e-46
3.32464e-46
3.32217e-46
3.31963e-46
3.31701e-46
3.31432e-46
3.31156e-46
3.30873e-46
3.30583e-46
3.30286e-46
3.29982e-46
3.29671e-46
3.29354e-46
3.29031e-46
3.28706e-46
3.28422e-46
3.28536e-46
3.32188e-46
3.6653e-46
6.63778e-46
3.18675e-45
2.43247e-44
1.99205e-43
1.62745e-42
1.31377e-41
1.04638e-40
8.21886e-40
6.36418e-39
4.85698e-38
3.65242e-37
2.70582e-36
1.97443e-35
1.41885e-34
1.00394e-33
6.99316e-33
4.79433e-32
3.2341e-31
2.14586e-30
1.39992e-29
8.97557e-29
5.65283e-28
3.49532e-27
2.12072e-26
1.26185e-25
7.35876e-25
4.20355e-24
2.36013e-23
1.29139e-22
6.90552e-22
3.60762e-21
1.84017e-20
9.1584e-20
4.44452e-19
2.10183e-18
9.67997e-18
4.3392e-17
1.89229e-16
8.02471e-16
3.30826e-15
1.32564e-14
5.16298e-14
1.95484e-13
7.19853e-13
2.57993e-12
9.00891e-12
3.06981e-11
1.02298e-10
3.34376e-10
1.07644e-09
3.43371e-09
1.09801e-08
3.63352e-08
1.36464e-07
6.87258e-07
4.69878e-06
3.00207e-05
0.000139939
0.000519285
0.00138919
0.00267493
0.00402183
0.00511228
0.00584149
0.00624715
0.00639553
0.00640018
0.0063184
0.00618744
0.00603074
0.00586252
0.00569115
0.00552139
0.0053558
0.00519568
0.00504152
0.00489342
0.00475118
0.00461452
0.00448306
0.00435642
0.00423424
0.00411615
0.00400185
0.00389104
0.0037835
0.00367904
0.00357753
0.00348188
0.00339025
0.00330051
0.00321261
0.00312652
0.00304222
0.00295972
0.00287904
0.00280018
0.00272319
0.00264808
0.00257488
0.00250361
0.00243428
0.00236691
0.00230149
0.00223801
0.00217645
0.00211677
0.00205893
0.00200289
0.00194856
0.0018959
0.00184481
0.00179522
0.00174703
0.00170018
0.00165456
0.00161009
0.00156671
0.00152432
0.00148287
0.00144229
0.00140254
0.00136356
0.00132534
0.00128783
0.00125102
0.00121491
0.00117949
0.00114477
0.00111076
0.00107747
0.00104493
0.00101314
0.000982151
0.000951969
0.000922624
0.000894136
0.000866529
0.000839821
0.000814029
0.000789165
0.000765241
0.000742263
0.000720234
0.000699153
0.000679017
0.000659818
0.000641546
0.000624186
0.00060772
0.000592127
0.000577389
0.000563492
0.000550422
0.000538144
0.00052662
0.000515819
0.000505711
0.000496265
0.000487454
0.000479249
0.000471621
0.000464542
0.000457986
0.000451925
0.000446333
0.000441183
0.00043645
0.000432109
0.000428135
0.000424506
0.000421199
0.00041819
0.000415461
0.000412989
0.000410756
0.000408743
0.000406933
0.00040531
0.000403857
0.000402559
0.000401404
0.000400377
0.000399467
0.000398663
0.000397953
0.00039733
0.000396783
0.000396304
0.000395887
0.000395524
0.000395209
0.000394936
0.000394701
0.000394499
0.000394326
0.000394178
0.000394051
0.000393944
0.000393853
0.000393777
0.000393713
0.000393659
0.000393614
0.000393577
0.000393546
0.000393521
0.000393501
0.000393484
0.000393471
0.000393461
0.000393453
0.000393446
0.000393442
0.000393439
0.000393436
0.000393435
0.000393435
0.000393435
0.000393435
0.000393436
0.000393437
0.000393439
0.000393441
0.000393442
0.000393444
0.000393446
0.000393448
0.000393451
0.000393453
0.000393455
0.000393457
0.000393459
0.000393461
0.000393464
0.000393466
0.000393468
0.00039347
0.000393472
0.000393474
0.000393476
0.000393478
0.00039348
0.000393482
0.000393484
0.000393485
0.000393487
0.000393489
0.000393491
0.000393492
0.000393494
0.000393495
0.000393497
0.000393498
0.0003935
0.000393501
0.000393502
0.000393503
0.000393505
0.000393506
0.000393507
0.000393508
0.000393509
0.00039351
0.000393511
0.000393511
0.000393512
0.000393513
0.000393513
0.000393514
0.000393515
0.000393515
0.000393516
0.000393516
0.000393516
0.000393516
)
;

boundaryField
{
    boundary
    {
        type            empty;
    }
    inlet
    {
        type            fixedValue;
        value           uniform 0;
    }
    outlet
    {
        type            zeroGradient;
    }
}


// ************************************************************************* //
