/*--------------------------------*- C++ -*----------------------------------*\
  =========                 |
  \\      /  F ield         | OpenFOAM: The Open Source CFD Toolbox
   \\    /   O peration     | Website:  https://openfoam.org
    \\  /    A nd           | Version:  7
     \\/     M anipulation  |
\*---------------------------------------------------------------------------*/
FoamFile
{
    version     2.0;
    format      ascii;
    class       volScalarField;
    location    "0.00014";
    object      OH;
}
// * * * * * * * * * * * * * * * * * * * * * * * * * * * * * * * * * * * * * //

dimensions      [0 0 0 0 0 0 0];

internalField   nonuniform List<scalar> 
500
(
9.58505e-48
1.89794e-47
2.57793e-47
3.08684e-47
3.49204e-47
3.83949e-47
4.1568e-47
4.45704e-47
4.74279e-47
5.01024e-47
5.25293e-47
5.46481e-47
5.64214e-47
5.78428e-47
5.89343e-47
5.97383e-47
6.03073e-47
6.0695e-47
6.09497e-47
6.11113e-47
6.12106e-47
6.12696e-47
6.13038e-47
6.13229e-47
6.13334e-47
6.13389e-47
6.13418e-47
6.13433e-47
6.13441e-47
6.13444e-47
6.13447e-47
6.13448e-47
6.13449e-47
6.1345e-47
6.1345e-47
6.13451e-47
6.13452e-47
6.13453e-47
6.13454e-47
6.13456e-47
6.13457e-47
6.13458e-47
6.1346e-47
6.13462e-47
6.13464e-47
6.13466e-47
6.13468e-47
6.13471e-47
6.13473e-47
6.13476e-47
6.1348e-47
6.13483e-47
6.13487e-47
6.1349e-47
6.13495e-47
6.13499e-47
6.13504e-47
6.13509e-47
6.13514e-47
6.1352e-47
6.13526e-47
6.13533e-47
6.1354e-47
6.13547e-47
6.13555e-47
6.13563e-47
6.13571e-47
6.1358e-47
6.1359e-47
6.136e-47
6.13611e-47
6.13622e-47
6.13633e-47
6.13645e-47
6.13658e-47
6.13671e-47
6.13685e-47
6.137e-47
6.13715e-47
6.13731e-47
6.13747e-47
6.13765e-47
6.13782e-47
6.13801e-47
6.1382e-47
6.1384e-47
6.13861e-47
6.13882e-47
6.13905e-47
6.13928e-47
6.13951e-47
6.13976e-47
6.14001e-47
6.14028e-47
6.14055e-47
6.14083e-47
6.14111e-47
6.14141e-47
6.14171e-47
6.14202e-47
6.14234e-47
6.14267e-47
6.14301e-47
6.14335e-47
6.1437e-47
6.14407e-47
6.14444e-47
6.14481e-47
6.1452e-47
6.14559e-47
6.146e-47
6.1464e-47
6.14682e-47
6.14725e-47
6.14768e-47
6.14812e-47
6.14856e-47
6.14901e-47
6.14946e-47
6.14992e-47
6.15038e-47
6.15082e-47
6.15123e-47
6.15158e-47
6.15178e-47
6.1518e-47
6.15207e-47
6.15229e-47
6.15249e-47
6.15272e-47
6.15305e-47
6.15352e-47
6.15412e-47
6.15484e-47
6.15563e-47
6.15645e-47
6.15726e-47
6.15802e-47
6.15873e-47
6.15938e-47
6.15997e-47
6.16052e-47
6.16102e-47
6.1615e-47
6.16195e-47
6.16237e-47
6.16278e-47
6.16317e-47
6.16353e-47
6.16388e-47
6.16421e-47
6.16451e-47
6.16479e-47
6.16505e-47
6.16528e-47
6.16548e-47
6.16564e-47
6.16578e-47
6.16588e-47
6.16595e-47
6.16597e-47
6.16595e-47
6.1659e-47
6.16579e-47
6.16564e-47
6.16544e-47
6.16519e-47
6.16488e-47
6.16451e-47
6.16409e-47
6.1636e-47
6.16305e-47
6.16243e-47
6.16175e-47
6.16098e-47
6.16015e-47
6.15923e-47
6.15824e-47
6.15716e-47
6.156e-47
6.15475e-47
6.1534e-47
6.15196e-47
6.15043e-47
6.14879e-47
6.14706e-47
6.14521e-47
6.14327e-47
6.14121e-47
6.13904e-47
6.13675e-47
6.13435e-47
6.13183e-47
6.12919e-47
6.12643e-47
6.12355e-47
6.12053e-47
6.11739e-47
6.11413e-47
6.11073e-47
6.1072e-47
6.10354e-47
6.09975e-47
6.09582e-47
6.09176e-47
6.08757e-47
6.08325e-47
6.07879e-47
6.07421e-47
6.06949e-47
6.06464e-47
6.05967e-47
6.05456e-47
6.04934e-47
6.04399e-47
6.03852e-47
6.03293e-47
6.02723e-47
6.02142e-47
6.01551e-47
6.00957e-47
6.00421e-47
6.00489e-47
6.05937e-47
6.58276e-47
1.11429e-46
5.0054e-46
3.77864e-45
3.10632e-44
2.55396e-43
2.07701e-42
1.66828e-41
1.32302e-40
1.03578e-39
8.00421e-39
6.10496e-38
4.59537e-37
3.41342e-36
2.50172e-35
1.80887e-34
1.2901e-33
9.07392e-33
6.29246e-32
4.30119e-31
2.89721e-30
1.92252e-29
1.25645e-28
8.08495e-28
5.12108e-27
3.19219e-26
1.95776e-25
1.18413e-24
7.02588e-24
4.09834e-23
2.35044e-22
1.32523e-21
7.34548e-21
4.00257e-20
2.14429e-19
1.12958e-18
5.85249e-18
2.98326e-17
1.49677e-16
7.39578e-16
3.60168e-15
1.73044e-14
8.21333e-14
3.8578e-13
1.79697e-12
8.32134e-12
3.84082e-11
1.7733e-10
8.30933e-10
3.9357e-09
1.88272e-08
9.14361e-08
4.64124e-07
2.64456e-06
1.77218e-05
0.000115264
0.000435389
0.000747143
0.000901728
0.00117067
0.00181158
0.00288691
0.00422874
0.00559543
0.00697533
0.00800178
0.00881147
0.00944149
0.00992949
0.0103085
0.0106044
0.0108365
0.0110191
0.0111624
0.0112742
0.01136
0.011424
0.0114697
0.0114994
0.0115152
0.0115187
0.0115113
0.011494
0.0114678
0.0114336
0.0113922
0.0113442
0.0112904
0.0112334
0.0111733
0.0111095
0.0110423
0.0109723
0.0109
0.0108259
0.0107506
0.0106746
0.0105984
0.0105224
0.0104473
0.0103733
0.010301
0.0102308
0.0101628
0.0100974
0.0100347
0.00997484
0.00991791
0.00986383
0.00981251
0.00976377
0.00971737
0.00967301
0.00963033
0.00958894
0.00954841
0.00950826
0.00946802
0.00942722
0.00938538
0.00934205
0.00929679
0.00924921
0.00919896
0.00914574
0.00908931
0.00902949
0.00896614
0.00889921
0.0088287
0.00875468
0.00867727
0.00859663
0.008513
0.00842664
0.00833785
0.00824697
0.00815436
0.00806038
0.00796543
0.0078699
0.00777417
0.00767863
0.00758364
0.00748958
0.00739678
0.00730555
0.00721619
0.00712898
0.00704417
0.00696195
0.00688248
0.00680576
0.00673206
0.00666147
0.00659402
0.00652975
0.00646866
0.00641074
0.00635597
0.00630432
0.00625573
0.00621015
0.0061675
0.00612769
0.00609063
0.00605623
0.00602438
0.00599496
0.00596787
0.00594298
0.00592019
0.00589936
0.00588038
0.00586314
0.00584751
0.00583338
0.00582065
0.0058092
0.00579894
0.00578976
0.00578158
0.00577431
0.00576786
0.00576216
0.00575713
0.00575271
0.00574884
0.00574546
0.0057425
0.00573994
0.00573773
0.00573581
0.00573416
0.00573275
0.00573155
0.00573052
0.00572965
0.00572892
0.0057283
0.00572779
0.00572737
0.00572702
0.00572673
0.0057265
0.00572631
0.00572616
0.00572605
0.00572597
0.00572591
0.00572586
0.00572584
0.00572582
0.00572582
0.00572583
0.00572585
0.00572587
0.0057259
0.00572593
0.00572596
0.005726
0.00572604
0.00572608
0.00572612
0.00572617
0.00572621
0.00572625
0.0057263
0.00572634
0.00572639
0.00572643
0.00572648
0.00572652
0.00572657
0.00572661
0.00572665
0.0057267
0.00572674
0.00572678
0.00572682
0.00572686
0.0057269
0.00572694
0.00572698
0.00572702
0.00572706
0.00572709
0.00572713
0.00572717
0.0057272
0.00572723
0.00572727
0.0057273
0.00572733
0.00572736
0.00572739
0.00572742
0.00572745
0.00572748
0.00572751
0.00572753
0.00572756
0.00572758
0.00572761
0.00572763
0.00572765
0.00572767
0.00572769
0.00572771
0.00572773
0.00572775
0.00572777
0.00572778
0.00572779
0.00572781
0.00572781
)
;

boundaryField
{
    boundary
    {
        type            empty;
    }
    inlet
    {
        type            fixedValue;
        value           uniform 0;
    }
    outlet
    {
        type            zeroGradient;
    }
}


// ************************************************************************* //
