/*--------------------------------*- C++ -*----------------------------------*\
  =========                 |
  \\      /  F ield         | OpenFOAM: The Open Source CFD Toolbox
   \\    /   O peration     | Website:  https://openfoam.org
    \\  /    A nd           | Version:  7
     \\/     M anipulation  |
\*---------------------------------------------------------------------------*/
FoamFile
{
    version     2.0;
    format      ascii;
    class       volScalarField;
    location    "0.00014";
    object      Qdot;
}
// * * * * * * * * * * * * * * * * * * * * * * * * * * * * * * * * * * * * * //

dimensions      [1 -1 -3 0 0 0 0];

internalField   nonuniform List<scalar> 
500
(
-2.4668e-27
-1.90297e-27
-1.80751e-27
-1.81914e-27
-1.86183e-27
-1.92013e-27
-1.99009e-27
-2.06859e-27
-2.15158e-27
-2.23431e-27
-2.31217e-27
-2.38148e-27
-2.43998e-27
-2.4869e-27
-2.52278e-27
-2.54901e-27
-2.5674e-27
-2.57979e-27
-2.58784e-27
-2.59289e-27
-2.59595e-27
-2.59776e-27
-2.59879e-27
-2.59936e-27
-2.59968e-27
-2.59984e-27
-2.59993e-27
-2.59998e-27
-2.60001e-27
-2.60002e-27
-2.60004e-27
-2.60005e-27
-2.60006e-27
-2.60007e-27
-2.60008e-27
-2.60009e-27
-2.6001e-27
-2.60011e-27
-2.60012e-27
-2.60013e-27
-2.60015e-27
-2.60016e-27
-2.60017e-27
-2.60019e-27
-2.6002e-27
-2.60022e-27
-2.60024e-27
-2.60026e-27
-2.60028e-27
-2.6003e-27
-2.60032e-27
-2.60034e-27
-2.60036e-27
-2.60039e-27
-2.60041e-27
-2.60044e-27
-2.60047e-27
-2.6005e-27
-2.60053e-27
-2.60056e-27
-2.60059e-27
-2.60063e-27
-2.60067e-27
-2.6007e-27
-2.60074e-27
-2.60078e-27
-2.60083e-27
-2.60087e-27
-2.60092e-27
-2.60097e-27
-2.60102e-27
-2.60107e-27
-2.60112e-27
-2.60118e-27
-2.60124e-27
-2.6013e-27
-2.60136e-27
-2.60142e-27
-2.60149e-27
-2.60156e-27
-2.60163e-27
-2.60171e-27
-2.60178e-27
-2.60186e-27
-2.60194e-27
-2.60203e-27
-2.60211e-27
-2.6022e-27
-2.60229e-27
-2.60239e-27
-2.60249e-27
-2.60259e-27
-2.60269e-27
-2.60279e-27
-2.6029e-27
-2.60301e-27
-2.60313e-27
-2.60324e-27
-2.60336e-27
-2.60349e-27
-2.60361e-27
-2.60374e-27
-2.60387e-27
-2.604e-27
-2.60414e-27
-2.60428e-27
-2.60442e-27
-2.60456e-27
-2.60471e-27
-2.60486e-27
-2.60501e-27
-2.60516e-27
-2.60532e-27
-2.60548e-27
-2.60564e-27
-2.6058e-27
-2.60597e-27
-2.60614e-27
-2.6063e-27
-2.60647e-27
-2.60664e-27
-2.60681e-27
-2.60697e-27
-2.60713e-27
-2.60731e-27
-2.60743e-27
-2.60746e-27
-2.60757e-27
-2.60768e-27
-2.60781e-27
-2.60796e-27
-2.60813e-27
-2.60834e-27
-2.60856e-27
-2.6088e-27
-2.60904e-27
-2.60928e-27
-2.6095e-27
-2.60971e-27
-2.60991e-27
-2.6101e-27
-2.61027e-27
-2.61044e-27
-2.6106e-27
-2.61074e-27
-2.61089e-27
-2.61102e-27
-2.61115e-27
-2.61127e-27
-2.61139e-27
-2.61149e-27
-2.61159e-27
-2.61168e-27
-2.61176e-27
-2.61183e-27
-2.61189e-27
-2.61194e-27
-2.61197e-27
-2.61199e-27
-2.612e-27
-2.612e-27
-2.61198e-27
-2.61194e-27
-2.61189e-27
-2.61182e-27
-2.61174e-27
-2.61163e-27
-2.6115e-27
-2.61136e-27
-2.61119e-27
-2.611e-27
-2.61079e-27
-2.61055e-27
-2.61029e-27
-2.61e-27
-2.60969e-27
-2.60935e-27
-2.60898e-27
-2.60858e-27
-2.60815e-27
-2.60769e-27
-2.60719e-27
-2.60667e-27
-2.6061e-27
-2.60551e-27
-2.60487e-27
-2.60421e-27
-2.6035e-27
-2.60275e-27
-2.60197e-27
-2.60114e-27
-2.60028e-27
-2.59937e-27
-2.59842e-27
-2.59743e-27
-2.59639e-27
-2.59531e-27
-2.59419e-27
-2.59302e-27
-2.5918e-27
-2.59054e-27
-2.58923e-27
-2.58788e-27
-2.58648e-27
-2.58503e-27
-2.58354e-27
-2.582e-27
-2.58041e-27
-2.57878e-27
-2.5771e-27
-2.57538e-27
-2.57361e-27
-2.57179e-27
-2.56994e-27
-2.56804e-27
-2.56609e-27
-2.56411e-27
-2.56208e-27
-2.56002e-27
-2.55792e-27
-2.55578e-27
-2.5536e-27
-2.55139e-27
-2.54915e-27
-2.54688e-27
-2.54457e-27
-2.54224e-27
-2.53987e-27
-2.53743e-27
-2.53463e-27
-2.52932e-27
-2.5056e-27
-2.34706e-27
-1.2061e-27
7.0457e-27
6.63817e-26
4.8972e-25
3.48407e-24
2.44684e-23
1.70086e-22
1.17014e-21
7.96347e-21
5.35843e-20
3.56301e-19
2.34001e-18
1.51713e-17
9.70577e-17
6.12405e-16
3.80947e-15
2.33524e-14
1.41017e-13
8.44059e-13
4.94527e-12
2.85168e-11
1.61837e-10
9.03784e-10
4.96621e-09
2.68505e-08
1.42849e-07
7.47947e-07
3.85524e-06
1.95703e-05
9.78969e-05
0.000482977
0.00235282
0.0113362
0.0541477
0.257234
1.22075
5.8207
28.2293
150.739
943.352
6746.3
51454
451429
4.24761e+06
4.06627e+07
3.56627e+08
2.22643e+09
7.29918e+09
1.2218e+10
1.37316e+10
1.38497e+10
1.38445e+10
1.34162e+10
1.21889e+10
1.0338e+10
8.37559e+09
6.80698e+09
5.64539e+09
4.75831e+09
4.08085e+09
3.5551e+09
3.13896e+09
2.80296e+09
2.52655e+09
2.29545e+09
2.09941e+09
1.93107e+09
1.78496e+09
1.65697e+09
1.54395e+09
1.44341e+09
1.35341e+09
1.27236e+09
1.19897e+09
1.13219e+09
1.07115e+09
1.0151e+09
9.63458e+08
9.15784e+08
8.72731e+08
8.33204e+08
7.95822e+08
7.60487e+08
7.26976e+08
6.95096e+08
6.64698e+08
6.35625e+08
6.07763e+08
5.81004e+08
5.55262e+08
5.30456e+08
5.06518e+08
4.83392e+08
4.61031e+08
4.39399e+08
4.18462e+08
3.98198e+08
3.78585e+08
3.59611e+08
3.41265e+08
3.23538e+08
3.06424e+08
2.89921e+08
2.74023e+08
2.58728e+08
2.44031e+08
2.29928e+08
2.16414e+08
2.03481e+08
1.91122e+08
1.79327e+08
1.68084e+08
1.57382e+08
1.47207e+08
1.37544e+08
1.28379e+08
1.19694e+08
1.11474e+08
1.03702e+08
9.63619e+07
8.94363e+07
8.29092e+07
7.67645e+07
7.09863e+07
6.55593e+07
6.04685e+07
5.5699e+07
5.12366e+07
4.70672e+07
4.31771e+07
3.95527e+07
3.61809e+07
3.30485e+07
3.01429e+07
2.74517e+07
2.49626e+07
2.26638e+07
2.05435e+07
1.85904e+07
1.67923e+07
1.51359e+07
1.35989e+07
1.21877e+07
1.0972e+07
9.81058e+06
8.74879e+06
7.7823e+06
6.90341e+06
6.10452e+06
5.37948e+06
4.72232e+06
4.12763e+06
3.59016e+06
3.10531e+06
2.66869e+06
2.27616e+06
1.9241e+06
1.60864e+06
1.32669e+06
1.0752e+06
851200
652279
476231
320285
182729
61692.9
-44503
-137607
-218619
-289434
-350491
-403573
-449265
-488553
-522078
-550590
-575248
-595891
-613387
-628129
-639933
-651156
-659622
-666651
-672598
-677831
-681740
-684965
-687909
-690129
-692191
-693976
-695519
-696910
-698213
-699414
-700403
-701241
-702298
-703337
-704320
-705266
-706186
-707108
-708026
-708959
-709899
-710848
-711803
-712765
-713732
-714703
-715677
-716653
-717631
-718610
-719588
-720565
-721540
-722512
-723480
-724445
-725404
-726358
-727307
-728248
-729182
-730109
-731028
-731939
-732841
-733734
-734616
-735489
-736352
-737203
-738043
-738872
-739689
-740493
-741285
-742064
-742829
-743580
-744318
-745043
-745754
-746450
-747132
-747798
-748450
-749086
-749707
-750312
-750901
-751475
-752034
-752578
-753109
-753627
-754124
-754601
-755059
-755494
-755901
-756263
-756529
)
;

boundaryField
{
    boundary
    {
        type            empty;
    }
    inlet
    {
        type            calculated;
        value           uniform 0;
    }
    outlet
    {
        type            calculated;
        value           uniform 0;
    }
}


// ************************************************************************* //
