/*--------------------------------*- C++ -*----------------------------------*\
  =========                 |
  \\      /  F ield         | OpenFOAM: The Open Source CFD Toolbox
   \\    /   O peration     | Website:  https://openfoam.org
    \\  /    A nd           | Version:  7
     \\/     M anipulation  |
\*---------------------------------------------------------------------------*/
FoamFile
{
    version     2.0;
    format      ascii;
    class       volScalarField;
    location    "0.00014";
    object      rho;
}
// * * * * * * * * * * * * * * * * * * * * * * * * * * * * * * * * * * * * * //

dimensions      [1 -3 0 0 0 0 0];

internalField   nonuniform List<scalar> 
500
(
0.863762
0.863616
0.863442
0.863233
0.86298
0.862682
0.862342
0.861977
0.861605
0.861248
0.860921
0.860637
0.860402
0.860215
0.860074
0.85997
0.859898
0.859848
0.859816
0.859795
0.859783
0.859775
0.859771
0.859769
0.859767
0.859766
0.859766
0.859766
0.859766
0.859766
0.859766
0.859766
0.859766
0.859766
0.859766
0.859766
0.859766
0.859766
0.859766
0.859765
0.859765
0.859765
0.859765
0.859765
0.859765
0.859765
0.859765
0.859765
0.859765
0.859765
0.859765
0.859765
0.859765
0.859765
0.859765
0.859765
0.859764
0.859764
0.859764
0.859764
0.859764
0.859764
0.859764
0.859764
0.859763
0.859763
0.859763
0.859763
0.859763
0.859763
0.859763
0.859762
0.859762
0.859762
0.859762
0.859761
0.859761
0.859761
0.859761
0.85976
0.85976
0.85976
0.85976
0.859759
0.859759
0.859759
0.859758
0.859758
0.859758
0.859757
0.859757
0.859756
0.859756
0.859756
0.859755
0.859755
0.859754
0.859754
0.859753
0.859753
0.859752
0.859752
0.859751
0.859751
0.85975
0.85975
0.859749
0.859748
0.859748
0.859747
0.859746
0.859746
0.859745
0.859744
0.859744
0.859743
0.859742
0.859741
0.859741
0.85974
0.859739
0.859738
0.859738
0.859737
0.859736
0.859736
0.859735
0.859735
0.859734
0.859733
0.859732
0.859732
0.859731
0.85973
0.859729
0.859727
0.859726
0.859725
0.859724
0.859723
0.859722
0.859721
0.85972
0.859719
0.859718
0.859718
0.859717
0.859716
0.859715
0.859714
0.859713
0.859713
0.859712
0.859711
0.85971
0.85971
0.859709
0.859709
0.859708
0.859707
0.859707
0.859706
0.859706
0.859706
0.859705
0.859705
0.859705
0.859705
0.859705
0.859705
0.859705
0.859705
0.859705
0.859705
0.859706
0.859706
0.859707
0.859707
0.859708
0.859709
0.85971
0.859711
0.859712
0.859713
0.859714
0.859716
0.859717
0.859719
0.859721
0.859723
0.859725
0.859727
0.85973
0.859732
0.859735
0.859738
0.859741
0.859744
0.859747
0.85975
0.859754
0.859758
0.859762
0.859766
0.85977
0.859774
0.859779
0.859784
0.859788
0.859793
0.859799
0.859804
0.859809
0.859815
0.859821
0.859827
0.859833
0.859839
0.859845
0.859852
0.859858
0.859865
0.859872
0.859879
0.859886
0.859893
0.859901
0.859908
0.859916
0.859923
0.859931
0.859939
0.859946
0.859954
0.859962
0.85997
0.859978
0.859986
0.859994
0.860002
0.860011
0.860019
0.860027
0.860035
0.860044
0.860052
0.86006
0.860069
0.860077
0.860086
0.860095
0.860104
0.860113
0.860122
0.860131
0.86014
0.86015
0.860159
0.860168
0.860177
0.860187
0.860196
0.860206
0.860216
0.860227
0.860237
0.860249
0.86026
0.860273
0.860286
0.860297
0.860294
0.860235
0.859971
0.859027
0.855941
0.846409
0.818923
0.750802
0.629367
0.493417
0.389722
0.322216
0.277532
0.246267
0.224013
0.208501
0.197005
0.188089
0.181642
0.176858
0.172994
0.16981
0.16713
0.164835
0.162841
0.161088
0.159532
0.158139
0.156885
0.155748
0.154713
0.153766
0.152897
0.152096
0.151355
0.150669
0.15003
0.149435
0.148878
0.148355
0.147864
0.147411
0.146989
0.146581
0.146186
0.145801
0.145424
0.145052
0.144682
0.144312
0.14394
0.143563
0.143178
0.142785
0.142381
0.141964
0.141534
0.141089
0.140628
0.140151
0.139658
0.139149
0.138626
0.138088
0.137538
0.136977
0.136407
0.135829
0.135248
0.134664
0.13408
0.1335
0.132925
0.132359
0.131804
0.131262
0.130735
0.130226
0.129737
0.129269
0.128823
0.128401
0.128004
0.127632
0.127286
0.126965
0.126671
0.126402
0.126158
0.125938
0.125743
0.12557
0.125419
0.125289
0.125178
0.125086
0.12501
0.124949
0.124902
0.124868
0.124846
0.124833
0.124828
0.124829
0.124837
0.124854
0.124875
0.1249
0.124927
0.124957
0.124988
0.12502
0.125053
0.125085
0.125117
0.125148
0.125179
0.125208
0.125237
0.125264
0.125289
0.125313
0.125336
0.125357
0.125376
0.125394
0.12541
0.125426
0.125439
0.125452
0.125463
0.125473
0.125482
0.12549
0.125497
0.125503
0.125509
0.125514
0.125518
0.125521
0.125524
0.125527
0.125529
0.125531
0.125533
0.125534
0.125535
0.125536
0.125536
0.125537
0.125537
0.125537
0.125537
0.125537
0.125537
0.125537
0.125536
0.125536
0.125536
0.125535
0.125535
0.125534
0.125534
0.125533
0.125533
0.125532
0.125532
0.125531
0.125531
0.12553
0.125529
0.125529
0.125528
0.125528
0.125527
0.125527
0.125526
0.125525
0.125525
0.125524
0.125524
0.125523
0.125523
0.125522
0.125522
0.125521
0.12552
0.12552
0.125519
0.125519
0.125518
0.125518
0.125517
0.125517
0.125516
0.125516
0.125515
0.125515
0.125514
0.125514
0.125513
0.125513
0.125512
0.125512
0.125511
0.125511
0.12551
0.12551
0.125509
0.125509
0.125509
0.125508
0.125508
0.125507
0.125507
0.125506
0.125506
0.125506
0.125505
0.125505
0.125504
0.125504
0.125504
0.125503
0.125503
0.125503
0.125502
0.125502
0.125502
)
;

boundaryField
{
    boundary
    {
        type            empty;
    }
    inlet
    {
        type            calculated;
        value           uniform 0.863852;
    }
    outlet
    {
        type            calculated;
        value           uniform 0.125502;
    }
}


// ************************************************************************* //
