/*--------------------------------*- C++ -*----------------------------------*\
  =========                 |
  \\      /  F ield         | OpenFOAM: The Open Source CFD Toolbox
   \\    /   O peration     | Website:  https://openfoam.org
    \\  /    A nd           | Version:  7
     \\/     M anipulation  |
\*---------------------------------------------------------------------------*/
FoamFile
{
    version     2.0;
    format      ascii;
    class       volScalarField;
    location    "0.00014";
    object      T;
}
// * * * * * * * * * * * * * * * * * * * * * * * * * * * * * * * * * * * * * //

dimensions      [0 0 0 1 0 0 0];

internalField   nonuniform List<scalar> 
500
(
300.031
300.082
300.142
300.215
300.303
300.407
300.525
300.652
300.782
300.907
301.021
301.121
301.203
301.268
301.318
301.354
301.38
301.397
301.408
301.415
301.42
301.422
301.424
301.425
301.425
301.426
301.426
301.426
301.426
301.426
301.426
301.426
301.426
301.426
301.426
301.426
301.426
301.426
301.426
301.426
301.426
301.426
301.426
301.426
301.426
301.426
301.426
301.426
301.426
301.426
301.426
301.426
301.426
301.426
301.426
301.426
301.427
301.427
301.427
301.427
301.427
301.427
301.427
301.427
301.427
301.427
301.427
301.427
301.427
301.427
301.427
301.427
301.427
301.427
301.428
301.428
301.428
301.428
301.428
301.428
301.428
301.428
301.428
301.428
301.428
301.429
301.429
301.429
301.429
301.429
301.429
301.429
301.429
301.43
301.43
301.43
301.43
301.43
301.43
301.43
301.431
301.431
301.431
301.431
301.431
301.431
301.432
301.432
301.432
301.432
301.432
301.433
301.433
301.433
301.433
301.433
301.434
301.434
301.434
301.434
301.434
301.435
301.435
301.435
301.435
301.435
301.435
301.436
301.436
301.436
301.436
301.436
301.437
301.437
301.437
301.437
301.438
301.438
301.438
301.439
301.439
301.439
301.439
301.439
301.44
301.44
301.44
301.44
301.44
301.44
301.441
301.441
301.441
301.441
301.441
301.441
301.441
301.441
301.441
301.441
301.441
301.441
301.441
301.441
301.441
301.441
301.441
301.44
301.44
301.44
301.44
301.44
301.439
301.439
301.439
301.438
301.438
301.437
301.437
301.436
301.436
301.435
301.434
301.434
301.433
301.432
301.431
301.43
301.429
301.428
301.427
301.426
301.425
301.424
301.422
301.421
301.42
301.418
301.417
301.415
301.414
301.412
301.41
301.408
301.406
301.404
301.402
301.4
301.398
301.396
301.394
301.392
301.389
301.387
301.384
301.382
301.379
301.377
301.374
301.371
301.368
301.366
301.363
301.36
301.357
301.354
301.351
301.348
301.344
301.341
301.338
301.335
301.331
301.328
301.325
301.322
301.318
301.315
301.311
301.308
301.305
301.301
301.298
301.294
301.291
301.287
301.284
301.28
301.276
301.273
301.269
301.265
301.262
301.258
301.254
301.25
301.246
301.242
301.239
301.235
301.231
301.227
301.223
301.218
301.214
301.21
301.205
301.201
301.196
301.193
301.192
301.201
301.241
301.376
301.801
303.089
306.926
318.107
348.756
419.49
540.91
693.151
848.591
996.323
1133.37
1254.76
1354.96
1439.57
1511.27
1568.47
1614.12
1653.14
1686.88
1716.47
1742.73
1766.27
1787.53
1806.85
1824.52
1840.73
1855.68
1869.5
1882.31
1894.21
1905.3
1915.65
1925.32
1934.38
1942.89
1950.88
1958.42
1965.54
1972.11
1978.25
1984.2
1989.96
1995.58
2001.1
2006.55
2011.97
2017.4
2022.88
2028.45
2034.14
2039.99
2046.04
2052.31
2058.82
2065.61
2072.69
2080.08
2087.78
2095.8
2104.14
2112.8
2121.75
2130.99
2140.48
2150.21
2160.14
2170.24
2180.46
2190.77
2201.12
2211.47
2221.77
2231.98
2242.05
2251.94
2261.61
2271.03
2280.16
2288.96
2297.42
2305.5
2313.19
2320.48
2327.35
2333.8
2339.83
2345.44
2350.63
2355.42
2359.81
2363.81
2367.45
2370.75
2373.71
2376.37
2378.75
2380.85
2382.72
2384.37
2385.82
2387.11
2388.25
2389.18
2389.97
2390.66
2391.24
2391.74
2392.16
2392.51
2392.81
2393.06
2393.27
2393.44
2393.58
2393.7
2393.8
2393.87
2393.94
2393.99
2394.03
2394.06
2394.09
2394.11
2394.13
2394.15
2394.16
2394.18
2394.19
2394.2
2394.21
2394.22
2394.23
2394.24
2394.25
2394.26
2394.27
2394.28
2394.29
2394.3
2394.31
2394.32
2394.33
2394.34
2394.35
2394.36
2394.37
2394.38
2394.39
2394.4
2394.41
2394.42
2394.43
2394.44
2394.45
2394.46
2394.46
2394.47
2394.48
2394.49
2394.5
2394.51
2394.51
2394.52
2394.53
2394.54
2394.55
2394.56
2394.56
2394.57
2394.58
2394.59
2394.6
2394.6
2394.61
2394.62
2394.63
2394.63
2394.64
2394.65
2394.66
2394.66
2394.67
2394.68
2394.69
2394.69
2394.7
2394.71
2394.72
2394.72
2394.73
2394.74
2394.74
2394.75
2394.76
2394.76
2394.77
2394.78
2394.78
2394.79
2394.79
2394.8
2394.81
2394.81
2394.82
2394.82
2394.83
2394.83
2394.84
2394.84
2394.85
2394.85
2394.86
2394.86
2394.87
2394.87
2394.87
2394.88
2394.88
2394.89
2394.89
2394.89
2394.9
2394.9
2394.9
2394.9
2394.91
)
;

boundaryField
{
    boundary
    {
        type            empty;
    }
    inlet
    {
        type            fixedValue;
        value           uniform 300;
    }
    outlet
    {
        type            zeroGradient;
    }
}


// ************************************************************************* //
