/*--------------------------------*- C++ -*----------------------------------*\
  =========                 |
  \\      /  F ield         | OpenFOAM: The Open Source CFD Toolbox
   \\    /   O peration     | Website:  https://openfoam.org
    \\  /    A nd           | Version:  7
     \\/     M anipulation  |
\*---------------------------------------------------------------------------*/
FoamFile
{
    version     2.0;
    format      ascii;
    class       volScalarField;
    location    "0.00083";
    object      H;
}
// * * * * * * * * * * * * * * * * * * * * * * * * * * * * * * * * * * * * * //

dimensions      [0 0 0 0 0 0 0];

internalField   nonuniform List<scalar> 
126
(
3.45565e-41
3.45575e-41
3.45586e-41
3.45599e-41
3.45614e-41
3.4563e-41
3.45648e-41
3.45667e-41
3.45686e-41
3.45706e-41
3.45725e-41
3.45743e-41
3.45761e-41
3.45777e-41
3.45791e-41
3.45805e-41
3.45817e-41
3.45827e-41
3.45837e-41
3.45846e-41
3.45855e-41
3.45863e-41
3.45872e-41
3.45881e-41
3.45891e-41
3.45902e-41
3.45914e-41
3.45928e-41
3.45942e-41
3.45957e-41
3.45974e-41
3.45991e-41
3.4601e-41
3.46029e-41
3.46048e-41
3.46068e-41
3.46089e-41
3.4611e-41
3.46131e-41
3.46152e-41
3.46173e-41
3.46195e-41
3.46217e-41
3.46239e-41
3.46261e-41
3.46284e-41
3.46306e-41
3.46329e-41
3.46352e-41
3.46376e-41
3.46399e-41
3.46423e-41
3.46447e-41
3.46471e-41
3.46495e-41
3.4652e-41
3.46544e-41
3.46569e-41
3.46593e-41
3.46618e-41
3.46642e-41
3.46667e-41
3.46691e-41
3.46715e-41
3.46738e-41
3.46762e-41
3.46784e-41
3.46806e-41
3.46828e-41
3.46849e-41
3.46868e-41
3.46888e-41
3.46906e-41
3.46923e-41
3.46939e-41
3.46954e-41
3.46967e-41
3.46979e-41
3.4699e-41
3.47e-41
3.47008e-41
3.47015e-41
3.47022e-41
3.47033e-41
3.47064e-41
3.4716e-41
3.47475e-41
3.48509e-41
3.51875e-41
3.62768e-41
3.97859e-41
5.10437e-41
8.70252e-41
2.01625e-40
5.65421e-40
1.71671e-39
5.34949e-39
1.6781e-38
5.26612e-38
1.65011e-37
5.16028e-37
1.6105e-36
5.01671e-36
1.55996e-35
4.84297e-35
1.50135e-34
4.64827e-34
1.43749e-33
4.44103e-33
1.37086e-32
4.22855e-32
1.30362e-31
4.01734e-31
1.23778e-30
3.81394e-30
1.17562e-29
3.62681e-29
1.12052e-28
3.47015e-28
1.07865e-27
3.37156e-27
1.06249e-26
3.38767e-26
1.09785e-25
3.63628e-25
1.23853e-24
)
;

boundaryField
{
    boundary
    {
        type            empty;
    }
    inlet
    {
        type            fixedValue;
        value           nonuniform 0();
    }
    outlet
    {
        type            zeroGradient;
    }
    procBoundary3to1
    {
        type            processor;
        value           uniform 4.38606e-24;
    }
    procBoundary3to2
    {
        type            processor;
        value           uniform 3.45561e-41;
    }
}


// ************************************************************************* //
