/*--------------------------------*- C++ -*----------------------------------*\
  =========                 |
  \\      /  F ield         | OpenFOAM: The Open Source CFD Toolbox
   \\    /   O peration     | Website:  https://openfoam.org
    \\  /    A nd           | Version:  7
     \\/     M anipulation  |
\*---------------------------------------------------------------------------*/
FoamFile
{
    version     2.0;
    format      ascii;
    class       volVectorField;
    location    "0.00083";
    object      U;
}
// * * * * * * * * * * * * * * * * * * * * * * * * * * * * * * * * * * * * * //

dimensions      [0 1 -1 0 0 0 0];

internalField   nonuniform List<vector> 
126
(
(2.34676 0 0)
(2.34675 0 0)
(2.34673 0 0)
(2.34672 0 0)
(2.3467 0 0)
(2.34669 0 0)
(2.34667 0 0)
(2.34666 0 0)
(2.34664 0 0)
(2.34663 0 0)
(2.34661 0 0)
(2.3466 0 0)
(2.34658 0 0)
(2.34657 0 0)
(2.34655 0 0)
(2.34654 0 0)
(2.34652 0 0)
(2.3465 0 0)
(2.34649 0 0)
(2.34647 0 0)
(2.34646 0 0)
(2.34644 0 0)
(2.34643 0 0)
(2.34641 0 0)
(2.3464 0 0)
(2.34638 0 0)
(2.34637 0 0)
(2.34635 0 0)
(2.34634 0 0)
(2.34632 0 0)
(2.3463 0 0)
(2.34629 0 0)
(2.34627 0 0)
(2.34626 0 0)
(2.34624 0 0)
(2.34623 0 0)
(2.34621 0 0)
(2.3462 0 0)
(2.34618 0 0)
(2.34616 0 0)
(2.34615 0 0)
(2.34613 0 0)
(2.34612 0 0)
(2.3461 0 0)
(2.34608 0 0)
(2.34607 0 0)
(2.34605 0 0)
(2.34604 0 0)
(2.34602 0 0)
(2.346 0 0)
(2.34599 0 0)
(2.34597 0 0)
(2.34596 0 0)
(2.34594 0 0)
(2.34592 0 0)
(2.34591 0 0)
(2.34589 0 0)
(2.34588 0 0)
(2.34586 0 0)
(2.34584 0 0)
(2.34583 0 0)
(2.34581 0 0)
(2.34579 0 0)
(2.34578 0 0)
(2.34576 0 0)
(2.34574 0 0)
(2.34573 0 0)
(2.34571 0 0)
(2.34569 0 0)
(2.34568 0 0)
(2.34566 0 0)
(2.34564 0 0)
(2.34563 0 0)
(2.34561 0 0)
(2.34559 0 0)
(2.34558 0 0)
(2.34556 0 0)
(2.34554 0 0)
(2.34553 0 0)
(2.34551 0 0)
(2.34549 0 0)
(2.34547 0 0)
(2.34546 0 0)
(2.34544 0 0)
(2.34542 0 0)
(2.34541 0 0)
(2.34539 0 0)
(2.34537 0 0)
(2.34535 0 0)
(2.34534 0 0)
(2.34532 0 0)
(2.3453 0 0)
(2.34529 0 0)
(2.34527 0 0)
(2.34525 0 0)
(2.34523 0 0)
(2.34522 0 0)
(2.3452 0 0)
(2.34518 0 0)
(2.34516 0 0)
(2.34515 0 0)
(2.34513 0 0)
(2.34511 0 0)
(2.34509 0 0)
(2.34508 0 0)
(2.34506 0 0)
(2.34504 0 0)
(2.34502 0 0)
(2.34501 0 0)
(2.34499 0 0)
(2.34497 0 0)
(2.34495 0 0)
(2.34494 0 0)
(2.34492 0 0)
(2.3449 0 0)
(2.34488 0 0)
(2.34486 0 0)
(2.34485 0 0)
(2.34483 0 0)
(2.34481 0 0)
(2.34479 0 0)
(2.34478 0 0)
(2.34476 0 0)
(2.34474 0 0)
(2.34472 0 0)
(2.3447 0 0)
)
;

boundaryField
{
    boundary
    {
        type            empty;
    }
    inlet
    {
        type            fixedValue;
        value           nonuniform 0();
    }
    outlet
    {
        type            zeroGradient;
    }
    procBoundary3to1
    {
        type            processor;
        value           uniform (2.34468 0 0);
    }
    procBoundary3to2
    {
        type            processor;
        value           uniform (2.34678 0 0);
    }
}


// ************************************************************************* //
