/*--------------------------------*- C++ -*----------------------------------*\
  =========                 |
  \\      /  F ield         | OpenFOAM: The Open Source CFD Toolbox
   \\    /   O peration     | Website:  https://openfoam.org
    \\  /    A nd           | Version:  7
     \\/     M anipulation  |
\*---------------------------------------------------------------------------*/
FoamFile
{
    version     2.0;
    format      ascii;
    class       surfaceScalarField;
    location    "0.0006";
    object      phi;
}
// * * * * * * * * * * * * * * * * * * * * * * * * * * * * * * * * * * * * * //

dimensions      [1 0 -1 0 0 0 0];

internalField   nonuniform List<scalar> 
125
(
6.97049e-06
6.97106e-06
6.97163e-06
6.97221e-06
6.97278e-06
6.97335e-06
6.97392e-06
6.9745e-06
6.97506e-06
6.97563e-06
6.9762e-06
6.97677e-06
6.97733e-06
6.9779e-06
6.97846e-06
6.97903e-06
6.97959e-06
6.98016e-06
6.98072e-06
6.98129e-06
6.98185e-06
6.98242e-06
6.98298e-06
6.98355e-06
6.98411e-06
6.98468e-06
6.98524e-06
6.9858e-06
6.98637e-06
6.98693e-06
6.98749e-06
6.98805e-06
6.98862e-06
6.98918e-06
6.98974e-06
6.9903e-06
6.99086e-06
6.99142e-06
6.99198e-06
6.99254e-06
6.9931e-06
6.99366e-06
6.99422e-06
6.99478e-06
6.99534e-06
6.9959e-06
6.99646e-06
6.99702e-06
6.99758e-06
6.99813e-06
6.99869e-06
6.99925e-06
6.99981e-06
7.00037e-06
7.00092e-06
7.00148e-06
7.00204e-06
7.0026e-06
7.00315e-06
7.00371e-06
7.00427e-06
7.00483e-06
7.00539e-06
7.00594e-06
7.0065e-06
7.00706e-06
7.00762e-06
7.00818e-06
7.00874e-06
7.00929e-06
7.00985e-06
7.01041e-06
7.01097e-06
7.01153e-06
7.01209e-06
7.01265e-06
7.01321e-06
7.01377e-06
7.01433e-06
7.0149e-06
7.01546e-06
7.01602e-06
7.01658e-06
7.01715e-06
7.01771e-06
7.01828e-06
7.01884e-06
7.01941e-06
7.01997e-06
7.02054e-06
7.02111e-06
7.02168e-06
7.02224e-06
7.02281e-06
7.02338e-06
7.02396e-06
7.02453e-06
7.0251e-06
7.02567e-06
7.02625e-06
7.02682e-06
7.0274e-06
7.02798e-06
7.02856e-06
7.02914e-06
7.02972e-06
7.0303e-06
7.03088e-06
7.03146e-06
7.03204e-06
7.03263e-06
7.03322e-06
7.0338e-06
7.03439e-06
7.03498e-06
7.03557e-06
7.03616e-06
7.03675e-06
7.03734e-06
7.03794e-06
7.03853e-06
7.03913e-06
7.03972e-06
7.04032e-06
7.04092e-06
)
;

boundaryField
{
    boundary
    {
        type            empty;
        value           nonuniform 0();
    }
    inlet
    {
        type            calculated;
        value           nonuniform 0();
    }
    outlet
    {
        type            calculated;
        value           nonuniform 0();
    }
    procBoundary3to1
    {
        type            processor;
        value           uniform 7.04152e-06;
    }
    procBoundary3to2
    {
        type            processor;
        value           uniform -6.96991e-06;
    }
}


// ************************************************************************* //
