/*--------------------------------*- C++ -*----------------------------------*\
  =========                 |
  \\      /  F ield         | OpenFOAM: The Open Source CFD Toolbox
   \\    /   O peration     | Website:  https://openfoam.org
    \\  /    A nd           | Version:  7
     \\/     M anipulation  |
\*---------------------------------------------------------------------------*/
FoamFile
{
    version     2.0;
    format      ascii;
    class       volScalarField;
    location    "0.00016";
    object      p;
}
// * * * * * * * * * * * * * * * * * * * * * * * * * * * * * * * * * * * * * //

dimensions      [1 -1 -2 0 0 0 0];

internalField   nonuniform List<scalar> 
124
(
103017
103017
103017
103017
103017
103017
103017
103017
103016
103016
103016
103016
103016
103016
103016
103016
103016
103016
103016
103016
103016
103016
103016
103016
103015
103015
103015
103015
103015
103015
103015
103015
103015
103015
103015
103015
103015
103015
103015
103015
103014
103014
103014
103014
103014
103014
103014
103014
103014
103014
103014
103014
103014
103014
103013
103013
103013
103013
103013
103013
103013
103013
103013
103013
103013
103013
103013
103012
103012
103012
103012
103012
103012
103012
103012
103012
103012
103012
103012
103011
103011
103011
103011
103011
103011
103011
103011
103011
103011
103011
103011
103010
103010
103010
103010
103010
103010
103010
103010
103010
103010
103010
103010
103009
103009
103009
103009
103009
103009
103009
103009
103009
103009
103008
103008
103008
103008
103008
103008
103008
103008
103008
103008
103008
)
;

boundaryField
{
    boundary
    {
        type            empty;
    }
    inlet
    {
        type            zeroGradient;
    }
    outlet
    {
        type            waveTransmissive;
        gamma           1.4;
        value           uniform 103007;
    }
    procBoundary0to1
    {
        type            processor;
        value           uniform 103017;
    }
}


// ************************************************************************* //
