/*--------------------------------*- C++ -*----------------------------------*\
  =========                 |
  \\      /  F ield         | OpenFOAM: The Open Source CFD Toolbox
   \\    /   O peration     | Website:  https://openfoam.org
    \\  /    A nd           | Version:  7
     \\/     M anipulation  |
\*---------------------------------------------------------------------------*/
FoamFile
{
    version     2.0;
    format      ascii;
    class       volScalarField;
    location    "0.0009";
    object      H;
}
// * * * * * * * * * * * * * * * * * * * * * * * * * * * * * * * * * * * * * //

dimensions      [0 0 0 0 0 0 0];

internalField   nonuniform List<scalar> 
500
(
1.48613e-41
2.01352e-41
2.12772e-41
2.15279e-41
2.15862e-41
2.16025e-41
2.16092e-41
2.16128e-41
2.16148e-41
2.16148e-41
2.16128e-41
2.16084e-41
2.16013e-41
2.15913e-41
2.15784e-41
2.15628e-41
2.15446e-41
2.15243e-41
2.15024e-41
2.14795e-41
2.14562e-41
2.14334e-41
2.14117e-41
2.13919e-41
2.13746e-41
2.13605e-41
2.135e-41
2.13437e-41
2.13419e-41
2.13449e-41
2.1353e-41
2.13666e-41
2.13856e-41
2.14106e-41
2.14416e-41
2.14791e-41
2.15234e-41
2.15751e-41
2.16348e-41
2.17032e-41
2.1781e-41
2.18692e-41
2.19686e-41
2.20804e-41
2.22056e-41
2.23453e-41
2.25005e-41
2.26723e-41
2.28615e-41
2.30692e-41
2.32958e-41
2.35421e-41
2.38082e-41
2.40944e-41
2.44004e-41
2.47257e-41
2.50696e-41
2.5431e-41
2.58086e-41
2.62005e-41
2.66049e-41
2.70195e-41
2.74417e-41
2.78689e-41
2.82983e-41
2.87268e-41
2.91516e-41
2.95697e-41
2.99784e-41
3.03751e-41
3.07573e-41
3.1123e-41
3.14703e-41
3.17978e-41
3.21044e-41
3.23894e-41
3.26524e-41
3.28934e-41
3.31127e-41
3.33108e-41
3.34885e-41
3.36468e-41
3.37869e-41
3.391e-41
3.40176e-41
3.41108e-41
3.41912e-41
3.426e-41
3.43185e-41
3.4368e-41
3.44096e-41
3.44443e-41
3.44731e-41
3.44969e-41
3.45165e-41
3.45324e-41
3.45454e-41
3.45559e-41
3.45643e-41
3.45711e-41
3.45765e-41
3.45808e-41
3.45842e-41
3.45869e-41
3.45891e-41
3.45909e-41
3.45923e-41
3.45935e-41
3.45945e-41
3.45953e-41
3.45961e-41
3.45967e-41
3.45974e-41
3.45979e-41
3.45985e-41
3.45991e-41
3.45996e-41
3.46002e-41
3.46007e-41
3.46013e-41
3.46019e-41
3.46025e-41
3.4603e-41
3.46035e-41
3.46035e-41
3.46035e-41
3.46045e-41
3.46055e-41
3.46064e-41
3.46074e-41
3.46085e-41
3.46097e-41
3.46109e-41
3.46123e-41
3.46138e-41
3.46154e-41
3.46171e-41
3.46188e-41
3.46206e-41
3.46224e-41
3.46242e-41
3.46259e-41
3.46276e-41
3.46292e-41
3.46307e-41
3.46321e-41
3.46334e-41
3.46347e-41
3.46358e-41
3.46369e-41
3.4638e-41
3.4639e-41
3.46401e-41
3.46412e-41
3.46424e-41
3.46436e-41
3.46449e-41
3.46463e-41
3.46477e-41
3.46493e-41
3.4651e-41
3.46527e-41
3.46545e-41
3.46564e-41
3.46583e-41
3.46603e-41
3.46624e-41
3.46644e-41
3.46665e-41
3.46687e-41
3.46709e-41
3.4673e-41
3.46753e-41
3.46775e-41
3.46797e-41
3.4682e-41
3.46843e-41
3.46866e-41
3.4689e-41
3.46913e-41
3.46937e-41
3.46961e-41
3.46985e-41
3.47009e-41
3.47033e-41
3.47058e-41
3.47082e-41
3.47107e-41
3.47131e-41
3.47156e-41
3.4718e-41
3.47204e-41
3.47228e-41
3.47252e-41
3.47275e-41
3.47298e-41
3.47321e-41
3.47343e-41
3.47364e-41
3.47384e-41
3.47404e-41
3.47423e-41
3.47441e-41
3.47458e-41
3.47474e-41
3.47489e-41
3.47504e-41
3.47522e-41
3.47551e-41
3.47618e-41
3.47812e-41
3.48412e-41
3.50309e-41
3.56324e-41
3.75366e-41
4.35499e-41
6.24899e-41
1.21997e-40
3.08522e-40
8.91916e-40
2.7129e-39
8.38625e-39
2.60314e-38
8.08248e-38
2.5073e-37
7.76893e-37
2.40439e-36
7.43316e-36
2.29566e-35
7.08352e-35
2.18393e-34
6.72845e-34
2.07162e-33
6.37465e-33
1.96058e-32
6.02735e-32
1.85235e-31
5.69141e-31
1.74858e-30
5.373e-30
1.65178e-29
5.08283e-29
1.56669e-28
4.84214e-28
1.50289e-27
4.69448e-27
1.48018e-26
4.72977e-26
1.53945e-25
5.13426e-25
1.76561e-24
6.32938e-24
2.35185e-23
9.0829e-23
3.6413e-22
1.5085e-21
6.42063e-21
2.79167e-20
1.23396e-19
5.52521e-19
2.50078e-18
1.14338e-17
5.28518e-17
2.47614e-16
1.1809e-15
5.76843e-15
2.90842e-14
1.52596e-13
8.59828e-13
5.69828e-12
4.9665e-11
4.81019e-10
4.48474e-09
4.18729e-08
3.79417e-07
3.11436e-06
2.05622e-05
9.27443e-05
0.000260828
0.000521343
0.000853927
0.00121771
0.00154351
0.00177316
0.00189551
0.00192958
0.00190683
0.00185197
0.00178165
0.00170595
0.0016305
0.00155817
0.00149029
0.00142726
0.00136904
0.00131536
0.00126586
0.00122014
0.00117785
0.00113862
0.00110214
0.00106813
0.00103636
0.00100659
0.000978643
0.000952351
0.000927564
0.000904153
0.000882003
0.000861012
0.000841088
0.00082215
0.000804654
0.000788338
0.000772662
0.000757589
0.000743086
0.000729117
0.000715655
0.00070267
0.000690136
0.00067803
0.000666328
0.000655011
0.000644059
0.000633454
0.000623178
0.000613217
0.000603555
0.000594179
0.000585076
0.000576234
0.00056764
0.000559286
0.00055116
0.000543252
0.000535555
0.000528059
0.000520756
0.000513639
0.000506701
0.000499935
0.000493334
0.000486892
0.000480603
0.000474462
0.000468464
0.000462604
0.000456876
0.000451276
0.000445801
0.000440445
0.000435204
0.000430076
0.000425057
0.000420142
0.000415329
0.000410615
0.000405996
0.000401469
0.000397033
0.000392684
0.000388419
0.000384237
0.000380135
0.000376111
0.000372162
0.000368287
0.000364484
0.000360751
0.000357086
0.000353488
0.000349955
0.000346487
0.000343082
0.000339739
0.000336447
0.000333201
0.00033001
0.000326873
0.000323788
0.000320754
0.000317769
0.000314833
0.000311944
0.000309101
0.000306304
0.00030355
0.00030084
0.000298172
0.000295545
0.000292958
0.00029041
0.000287901
0.000285429
0.000282994
0.000280595
0.000278232
0.000275903
0.000273607
0.000271345
0.000269115
0.000266917
0.00026475
0.000262614
0.000260507
0.00025843
0.000256381
0.00025436
0.000252368
0.000250402
0.000248463
0.000246549
0.000244662
0.000242799
0.000240962
0.000239148
0.000237358
0.000235592
0.000233848
0.000232127
0.000230428
0.000228751
0.000227095
0.00022546
0.000223845
0.000222251
0.000220677
0.000219122
0.000217586
0.000216069
0.000214571
0.000213091
0.000211629
0.000210185
0.000208758
0.000207348
0.000205955
0.000204578
0.000203218
0.000201874
0.000200545
0.000199232
0.000197935
0.000196652
0.000195384
0.000194131
0.000192892
0.000191668
0.000190457
0.00018926
0.000188077
0.000186907
0.000185751
0.000184608
0.000183477
0.000182359
0.000181254
0.000180162
0.000179081
0.000178013
0.000176957
0.000175912
0.00017488
0.000173858
0.000172849
0.000171851
0.000170864
0.000169888
0.000168923
0.000167969
0.000167026
0.000166093
0.000165172
0.00016426
0.00016336
0.00016247
0.00016159
0.00016072
0.000159861
0.000159013
0.000158174
0.000157346
0.000156529
0.000155722
0.000154926
0.000154142
0.000153369
0.00015261
0.000151864
0.000151133
0.00015042
0.000149727
0.00014906
0.000148424
0.000147829
0.000147289
0.000146825
0.000146467
0.000146259
)
;

boundaryField
{
    boundary
    {
        type            empty;
    }
    inlet
    {
        type            fixedValue;
        value           uniform 0;
    }
    outlet
    {
        type            zeroGradient;
    }
}


// ************************************************************************* //
