/*--------------------------------*- C++ -*----------------------------------*\
  =========                 |
  \\      /  F ield         | OpenFOAM: The Open Source CFD Toolbox
   \\    /   O peration     | Website:  https://openfoam.org
    \\  /    A nd           | Version:  7
     \\/     M anipulation  |
\*---------------------------------------------------------------------------*/
FoamFile
{
    version     2.0;
    format      ascii;
    class       volScalarField;
    location    "0.0009";
    object      H2;
}
// * * * * * * * * * * * * * * * * * * * * * * * * * * * * * * * * * * * * * //

dimensions      [0 0 0 0 0 0 0];

internalField   nonuniform List<scalar> 
500
(
0.0285116
0.0285116
0.0285116
0.0285116
0.0285116
0.0285116
0.0285116
0.0285116
0.0285116
0.0285116
0.0285116
0.0285116
0.0285116
0.0285116
0.0285116
0.0285116
0.0285116
0.0285116
0.0285116
0.0285116
0.0285116
0.0285116
0.0285116
0.0285116
0.0285116
0.0285116
0.0285116
0.0285116
0.0285116
0.0285116
0.0285116
0.0285116
0.0285116
0.0285116
0.0285116
0.0285116
0.0285116
0.0285116
0.0285116
0.0285116
0.0285116
0.0285116
0.0285116
0.0285116
0.0285116
0.0285116
0.0285116
0.0285116
0.0285116
0.0285116
0.0285116
0.0285116
0.0285116
0.0285116
0.0285116
0.0285116
0.0285116
0.0285116
0.0285116
0.0285116
0.0285116
0.0285116
0.0285116
0.0285116
0.0285116
0.0285116
0.0285116
0.0285116
0.0285116
0.0285116
0.0285116
0.0285116
0.0285116
0.0285116
0.0285116
0.0285116
0.0285116
0.0285116
0.0285116
0.0285116
0.0285116
0.0285116
0.0285116
0.0285116
0.0285116
0.0285116
0.0285116
0.0285116
0.0285116
0.0285116
0.0285116
0.0285116
0.0285116
0.0285116
0.0285116
0.0285116
0.0285116
0.0285116
0.0285116
0.0285116
0.0285116
0.0285116
0.0285116
0.0285116
0.0285116
0.0285116
0.0285116
0.0285116
0.0285116
0.0285116
0.0285116
0.0285116
0.0285116
0.0285116
0.0285116
0.0285116
0.0285116
0.0285116
0.0285116
0.0285116
0.0285116
0.0285116
0.0285116
0.0285116
0.0285116
0.0285116
0.0285116
0.0285116
0.0285116
0.0285116
0.0285116
0.0285116
0.0285116
0.0285116
0.0285116
0.0285116
0.0285116
0.0285116
0.0285116
0.0285116
0.0285116
0.0285116
0.0285116
0.0285116
0.0285116
0.0285116
0.0285116
0.0285116
0.0285116
0.0285116
0.0285116
0.0285116
0.0285116
0.0285116
0.0285116
0.0285116
0.0285116
0.0285116
0.0285116
0.0285116
0.0285116
0.0285116
0.0285116
0.0285116
0.0285116
0.0285116
0.0285116
0.0285116
0.0285116
0.0285116
0.0285116
0.0285116
0.0285116
0.0285116
0.0285116
0.0285116
0.0285116
0.0285116
0.0285116
0.0285116
0.0285116
0.0285116
0.0285116
0.0285116
0.0285116
0.0285116
0.0285116
0.0285116
0.0285116
0.0285116
0.0285116
0.0285116
0.0285116
0.0285116
0.0285116
0.0285116
0.0285116
0.0285116
0.0285116
0.0285116
0.0285116
0.0285116
0.0285116
0.0285116
0.0285116
0.0285116
0.0285116
0.0285116
0.0285116
0.0285116
0.0285116
0.0285116
0.0285116
0.0285116
0.0285116
0.0285116
0.0285116
0.0285116
0.0285116
0.0285116
0.0285116
0.0285116
0.0285116
0.0285116
0.0285116
0.0285116
0.0285116
0.0285116
0.0285116
0.0285116
0.0285116
0.0285116
0.0285116
0.0285116
0.0285116
0.0285116
0.0285116
0.0285116
0.0285116
0.0285116
0.0285116
0.0285116
0.0285116
0.0285116
0.0285116
0.0285116
0.0285116
0.0285116
0.0285116
0.0285116
0.0285116
0.0285116
0.0285116
0.0285116
0.0285116
0.0285116
0.0285116
0.0285116
0.0285116
0.0285116
0.0285116
0.0285115
0.0285115
0.0285113
0.0285111
0.0285106
0.0285094
0.0285071
0.0285022
0.0284921
0.0284709
0.0284268
0.0283354
0.0281475
0.0277702
0.0270535
0.0258214
0.0239727
0.0216112
0.0188942
0.0159049
0.0128392
0.0100603
0.00787075
0.00630165
0.00529124
0.00465603
0.00426397
0.00402232
0.00387124
0.00377374
0.00370757
0.00365954
0.0036219
0.00359016
0.00356171
0.00353511
0.00350955
0.0034846
0.00346003
0.00343576
0.00341175
0.00338801
0.00336455
0.00334139
0.00331855
0.00329605
0.0032739
0.00325211
0.00323069
0.00320963
0.00318895
0.00316924
0.00315033
0.00313169
0.0031133
0.00309517
0.0030773
0.00305967
0.00304229
0.00302514
0.00300823
0.00299156
0.00297511
0.00295889
0.00294288
0.0029271
0.00291152
0.00289615
0.00288099
0.00286602
0.00285126
0.00283668
0.00282229
0.00280809
0.00279407
0.00278023
0.00276655
0.00275305
0.00273972
0.00272655
0.00271354
0.00270069
0.00268799
0.00267544
0.00266304
0.00265079
0.00263867
0.00262669
0.00261485
0.00260315
0.00259157
0.00258012
0.00256879
0.00255759
0.00254651
0.00253555
0.0025247
0.00251396
0.00250334
0.00249282
0.00248241
0.0024721
0.0024619
0.0024518
0.0024418
0.0024319
0.00242209
0.00241237
0.00240275
0.00239323
0.00238379
0.00237444
0.00236518
0.002356
0.00234691
0.00233789
0.00232894
0.00232006
0.00231127
0.00230256
0.00229392
0.00228536
0.00227687
0.00226846
0.00226012
0.00225186
0.00224367
0.00223555
0.0022275
0.00221953
0.00221162
0.00220379
0.00219602
0.00218832
0.00218069
0.00217312
0.00216562
0.00215819
0.00215082
0.00214351
0.00213627
0.00212909
0.00212197
0.00211491
0.00210792
0.00210098
0.0020941
0.00208728
0.00208052
0.00207381
0.00206716
0.00206056
0.00205402
0.00204753
0.0020411
0.00203471
0.00202838
0.0020221
0.00201586
0.00200968
0.00200355
0.00199746
0.00199142
0.00198543
0.00197948
0.00197358
0.00196772
0.00196191
0.00195614
0.00195041
0.00194473
0.00193908
0.00193348
0.00192793
0.00192241
0.00191693
0.00191149
0.00190609
0.00190073
0.00189541
0.00189013
0.00188488
0.00187968
0.00187451
0.00186937
0.00186428
0.00185922
0.00185419
0.00184921
0.00184425
0.00183934
0.00183446
0.00182961
0.0018248
0.00182002
0.00181528
0.00181057
0.00180589
0.00180125
0.00179665
0.00179208
0.00178754
0.00178304
0.00177857
0.00177414
0.00176974
0.00176538
0.00176105
0.00175676
0.0017525
0.00174828
0.0017441
0.00173995
0.00173584
0.00173177
0.00172774
0.00172375
0.00171981
0.0017159
0.00171204
0.00170822
0.00170445
0.00170073
0.00169706
0.00169345
0.0016899
0.00168641
0.00168299
0.00167965
0.00167641
0.00167328
0.00167028
0.00166744
0.00166479
0.00166239
0.00166029
0.00165856
0.00165729
0.00165659
)
;

boundaryField
{
    boundary
    {
        type            empty;
    }
    inlet
    {
        type            fixedValue;
        value           uniform 0.0285116;
    }
    outlet
    {
        type            zeroGradient;
    }
}


// ************************************************************************* //
