/*--------------------------------*- C++ -*----------------------------------*\
  =========                 |
  \\      /  F ield         | OpenFOAM: The Open Source CFD Toolbox
   \\    /   O peration     | Website:  https://openfoam.org
    \\  /    A nd           | Version:  7
     \\/     M anipulation  |
\*---------------------------------------------------------------------------*/
FoamFile
{
    version     2.0;
    format      ascii;
    class       volScalarField;
    location    "0.0009";
    object      H2O;
}
// * * * * * * * * * * * * * * * * * * * * * * * * * * * * * * * * * * * * * //

dimensions      [0 0 0 0 0 0 0];

internalField   nonuniform List<scalar> 
500
(
7.88477e-48
2.27863e-47
4.0998e-47
6.14467e-47
8.34061e-47
1.06386e-46
1.30052e-46
1.54179e-46
1.78609e-46
2.03234e-46
2.27974e-46
2.52776e-46
2.77598e-46
3.02416e-46
3.2721e-46
3.51972e-46
3.76703e-46
4.01407e-46
4.26097e-46
4.5079e-46
4.7551e-46
5.0028e-46
5.25128e-46
5.50083e-46
5.75172e-46
6.00423e-46
6.25861e-46
6.51513e-46
6.774e-46
7.03547e-46
7.29976e-46
7.56713e-46
7.83786e-46
8.11226e-46
8.39072e-46
8.6737e-46
8.96172e-46
9.2554e-46
9.55547e-46
9.86275e-46
1.01781e-45
1.05026e-45
1.08373e-45
1.11832e-45
1.15415e-45
1.19133e-45
1.22998e-45
1.27018e-45
1.31203e-45
1.35561e-45
1.40095e-45
1.44808e-45
1.497e-45
1.54767e-45
1.60001e-45
1.65391e-45
1.70922e-45
1.76575e-45
1.82327e-45
1.88153e-45
1.94025e-45
1.9991e-45
2.05777e-45
2.11592e-45
2.1732e-45
2.22929e-45
2.28386e-45
2.33661e-45
2.38727e-45
2.4356e-45
2.48139e-45
2.52449e-45
2.56477e-45
2.60217e-45
2.63663e-45
2.66818e-45
2.69686e-45
2.72275e-45
2.74596e-45
2.76662e-45
2.78488e-45
2.80091e-45
2.81489e-45
2.82699e-45
2.8374e-45
2.84629e-45
2.85383e-45
2.86019e-45
2.86551e-45
2.86994e-45
2.8736e-45
2.8766e-45
2.87905e-45
2.88104e-45
2.88264e-45
2.88393e-45
2.88495e-45
2.88577e-45
2.88641e-45
2.88691e-45
2.88731e-45
2.88762e-45
2.88786e-45
2.88805e-45
2.8882e-45
2.88832e-45
2.88842e-45
2.8885e-45
2.88857e-45
2.88862e-45
2.88867e-45
2.88872e-45
2.88877e-45
2.88881e-45
2.88885e-45
2.8889e-45
2.88894e-45
2.88899e-45
2.88903e-45
2.88908e-45
2.88912e-45
2.88913e-45
2.88904e-45
2.88858e-45
2.88674e-45
2.88334e-45
2.8834e-45
2.88347e-45
2.88355e-45
2.88362e-45
2.88371e-45
2.88379e-45
2.88388e-45
2.88398e-45
2.88409e-45
2.88419e-45
2.88431e-45
2.88443e-45
2.88455e-45
2.88468e-45
2.88481e-45
2.88494e-45
2.88508e-45
2.88522e-45
2.88536e-45
2.88552e-45
2.88567e-45
2.88584e-45
2.88602e-45
2.88622e-45
2.88644e-45
2.88667e-45
2.88694e-45
2.88723e-45
2.88754e-45
2.88789e-45
2.88826e-45
2.88866e-45
2.88909e-45
2.88954e-45
2.89e-45
2.89048e-45
2.89096e-45
2.89145e-45
2.89193e-45
2.8924e-45
2.89285e-45
2.89329e-45
2.8937e-45
2.89409e-45
2.89445e-45
2.89479e-45
2.8951e-45
2.89538e-45
2.89564e-45
2.89588e-45
2.89611e-45
2.89633e-45
2.89653e-45
2.89673e-45
2.89693e-45
2.89714e-45
2.89735e-45
2.89757e-45
2.8978e-45
2.89804e-45
2.89829e-45
2.89855e-45
2.89883e-45
2.89911e-45
2.8994e-45
2.89971e-45
2.90002e-45
2.90036e-45
2.90077e-45
2.90145e-45
2.90305e-45
2.90779e-45
2.92326e-45
2.97523e-45
3.1506e-45
3.74161e-45
5.72681e-45
1.23717e-44
3.45384e-44
1.08262e-43
3.52833e-43
1.16258e-42
3.84021e-42
1.26909e-41
4.19647e-41
1.38964e-40
4.61403e-40
1.53832e-39
5.15821e-39
1.74251e-38
5.94039e-38
2.04694e-37
7.13886e-37
2.52236e-36
9.03359e-36
3.27933e-35
1.20606e-34
4.48969e-34
1.6897e-33
6.42028e-33
2.45944e-32
9.4856e-32
3.67871e-31
1.43302e-30
5.60174e-30
2.19568e-29
8.62397e-29
3.39246e-28
1.336e-27
5.26543e-27
2.07625e-26
8.18931e-26
3.23038e-25
1.27418e-24
5.02482e-24
1.98094e-23
7.80627e-23
3.07467e-22
1.21035e-21
4.76164e-21
1.8721e-20
7.35567e-20
2.88834e-19
1.13351e-18
4.44608e-18
1.75268e-17
6.88743e-17
2.70073e-16
1.05848e-15
4.14822e-15
1.62597e-14
6.3751e-14
2.50048e-13
9.81179e-13
3.85195e-12
1.51295e-11
5.94542e-11
2.33743e-10
9.19342e-10
3.61721e-09
1.42364e-08
5.60429e-08
2.20643e-07
8.68612e-07
3.41803e-06
1.34327e-05
5.25951e-05
0.000203797
0.000767117
0.00267896
0.00795652
0.0185134
0.0336769
0.0523001
0.0747878
0.100494
0.126084
0.147716
0.164581
0.175959
0.183639
0.188817
0.192383
0.194932
0.196844
0.198351
0.199597
0.200668
0.201618
0.20248
0.203274
0.204014
0.204711
0.205369
0.205994
0.20659
0.207159
0.207704
0.208227
0.20873
0.209214
0.20968
0.21013
0.210564
0.210984
0.211389
0.211768
0.21213
0.212483
0.212828
0.213164
0.213492
0.213813
0.214127
0.214433
0.214733
0.215027
0.215314
0.215596
0.215872
0.216143
0.216408
0.216668
0.216923
0.217174
0.21742
0.217661
0.217898
0.218131
0.21836
0.218586
0.218807
0.219025
0.219239
0.219449
0.219657
0.219861
0.220062
0.22026
0.220455
0.220647
0.220836
0.221022
0.221206
0.221387
0.221565
0.221741
0.221914
0.222085
0.222254
0.22242
0.222584
0.222746
0.222906
0.223064
0.223219
0.223373
0.223525
0.223674
0.223822
0.223968
0.224112
0.224254
0.224395
0.224533
0.22467
0.224805
0.224939
0.225071
0.2252
0.225329
0.225456
0.225583
0.225707
0.225831
0.225953
0.226073
0.226193
0.226311
0.226428
0.226543
0.226658
0.226771
0.226883
0.226994
0.227104
0.227213
0.227321
0.227427
0.227533
0.227638
0.227742
0.227845
0.227947
0.228048
0.228148
0.228247
0.228345
0.228443
0.22854
0.228635
0.228731
0.228825
0.228918
0.229011
0.229103
0.229194
0.229284
0.229374
0.229463
0.229551
0.229638
0.229725
0.229811
0.229896
0.229981
0.230064
0.230148
0.23023
0.230312
0.230393
0.230474
0.230553
0.230632
0.230711
0.230789
0.230866
0.230943
0.231019
0.231094
0.231169
0.231243
0.231317
0.23139
0.231462
0.231534
0.231605
0.231676
0.231746
0.231816
0.231885
0.231953
0.232021
0.232089
0.232156
0.232222
0.232288
0.232353
0.232418
0.232483
0.232546
0.23261
0.232673
0.232735
0.232797
0.232859
0.23292
0.23298
0.233041
0.2331
0.23316
0.233219
0.233277
0.233335
0.233393
0.23345
0.233507
0.233564
0.23362
0.233676
0.233731
0.233786
0.233841
0.233896
0.23395
0.234004
0.234058
0.234112
0.234165
0.234218
0.234271
0.234324
0.234377
0.234429
0.234482
0.234534
0.234585
0.234637
0.234688
0.234737
0.234785
0.234829
0.234868
0.234893
)
;

boundaryField
{
    boundary
    {
        type            empty;
    }
    inlet
    {
        type            fixedValue;
        value           uniform 0;
    }
    outlet
    {
        type            zeroGradient;
    }
}


// ************************************************************************* //
