/*--------------------------------*- C++ -*----------------------------------*\
  =========                 |
  \\      /  F ield         | OpenFOAM: The Open Source CFD Toolbox
   \\    /   O peration     | Website:  https://openfoam.org
    \\  /    A nd           | Version:  7
     \\/     M anipulation  |
\*---------------------------------------------------------------------------*/
FoamFile
{
    version     2.0;
    format      ascii;
    class       volScalarField;
    location    "0.0009";
    object      H2O2;
}
// * * * * * * * * * * * * * * * * * * * * * * * * * * * * * * * * * * * * * //

dimensions      [0 0 0 0 0 0 0];

internalField   nonuniform List<scalar> 
500
(
1.99296e-52
6.40329e-52
1.27301e-51
2.09739e-51
3.11339e-51
4.32079e-51
5.71923e-51
7.30817e-51
9.08686e-51
1.10544e-50
1.32097e-50
1.55516e-50
1.8079e-50
2.07908e-50
2.36864e-50
2.67652e-50
3.00273e-50
3.34735e-50
3.71049e-50
4.09234e-50
4.49315e-50
4.91322e-50
5.35291e-50
5.81261e-50
6.29275e-50
6.79375e-50
7.3161e-50
7.86027e-50
8.42676e-50
9.01612e-50
9.62894e-50
1.02659e-49
1.09277e-49
1.16153e-49
1.23297e-49
1.3072e-49
1.38438e-49
1.46467e-49
1.54824e-49
1.63531e-49
1.72612e-49
1.82091e-49
1.91996e-49
2.02354e-49
2.13195e-49
2.24547e-49
2.36437e-49
2.48889e-49
2.61925e-49
2.75559e-49
2.89802e-49
3.04653e-49
3.20107e-49
3.36143e-49
3.52735e-49
3.69839e-49
3.87405e-49
4.05366e-49
4.23646e-49
4.4216e-49
4.6081e-49
4.79495e-49
4.98105e-49
5.1653e-49
5.34658e-49
5.5238e-49
5.69592e-49
5.86196e-49
6.02105e-49
6.17243e-49
6.31546e-49
6.44965e-49
6.57466e-49
6.69027e-49
6.79643e-49
6.8932e-49
6.98078e-49
7.05947e-49
7.12967e-49
7.19183e-49
7.2465e-49
7.29422e-49
7.33558e-49
7.37119e-49
7.40162e-49
7.42745e-49
7.44923e-49
7.46746e-49
7.48262e-49
7.49514e-49
7.50542e-49
7.5138e-49
7.52059e-49
7.52606e-49
7.53043e-49
7.53392e-49
7.53667e-49
7.53884e-49
7.54055e-49
7.54188e-49
7.54291e-49
7.54372e-49
7.54434e-49
7.54484e-49
7.54522e-49
7.54553e-49
7.54578e-49
7.54598e-49
7.54615e-49
7.54631e-49
7.54644e-49
7.54657e-49
7.54669e-49
7.54681e-49
7.54693e-49
7.54705e-49
7.54717e-49
7.5473e-49
7.54743e-49
7.54756e-49
7.54767e-49
7.54767e-49
7.54727e-49
7.54521e-49
7.5367e-49
7.51984e-49
7.52003e-49
7.52022e-49
7.52043e-49
7.52065e-49
7.52088e-49
7.52113e-49
7.52139e-49
7.52166e-49
7.52195e-49
7.52226e-49
7.52258e-49
7.52291e-49
7.52325e-49
7.52361e-49
7.52397e-49
7.52434e-49
7.52473e-49
7.52512e-49
7.52552e-49
7.52594e-49
7.52639e-49
7.52687e-49
7.52738e-49
7.52795e-49
7.52857e-49
7.52927e-49
7.53004e-49
7.5309e-49
7.53186e-49
7.53292e-49
7.53407e-49
7.53532e-49
7.53666e-49
7.53807e-49
7.53955e-49
7.54107e-49
7.54262e-49
7.54417e-49
7.5457e-49
7.54718e-49
7.54861e-49
7.54995e-49
7.55121e-49
7.55236e-49
7.55341e-49
7.55436e-49
7.55522e-49
7.55599e-49
7.55669e-49
7.55735e-49
7.55797e-49
7.55858e-49
7.5592e-49
7.55985e-49
7.56055e-49
7.56131e-49
7.56213e-49
7.56304e-49
7.56402e-49
7.56508e-49
7.56621e-49
7.56741e-49
7.56868e-49
7.56998e-49
7.57133e-49
7.57269e-49
7.57406e-49
7.57543e-49
7.57678e-49
7.5781e-49
7.57939e-49
7.58064e-49
7.58194e-49
7.58364e-49
7.58747e-49
7.60159e-49
7.66443e-49
7.95544e-49
9.30834e-49
1.5576e-48
4.44716e-48
1.77017e-47
7.81985e-47
3.52985e-46
1.59525e-45
7.1858e-45
3.2235e-44
1.43999e-43
6.40664e-43
2.83932e-42
1.2537e-41
5.51643e-41
2.41932e-40
1.05776e-39
4.61145e-39
2.00507e-38
8.69671e-38
3.7636e-37
1.62541e-36
7.00675e-36
3.0154e-35
1.29576e-34
5.56065e-34
2.38349e-33
1.02057e-32
4.36584e-32
1.86608e-31
7.97009e-31
3.40169e-30
1.45092e-29
6.18467e-29
2.63464e-28
1.12164e-27
4.77202e-27
2.02889e-26
8.62e-26
3.6596e-25
1.55248e-24
6.58071e-24
2.78723e-23
1.17959e-22
4.98838e-22
2.10806e-21
8.90295e-21
3.75799e-20
1.59465e-19
6.74343e-19
2.84582e-18
1.20051e-17
5.06476e-17
2.13735e-16
9.02328e-16
3.81123e-15
1.61065e-14
6.81066e-14
2.88157e-13
1.21988e-12
5.16701e-12
2.18966e-11
9.28337e-11
3.93733e-10
1.67045e-09
7.08853e-09
3.00797e-08
1.27554e-07
5.39282e-07
2.25456e-06
9.05841e-06
3.19949e-05
8.00796e-05
0.000117578
0.000118379
7.48774e-05
3.38543e-05
1.35333e-05
6.35156e-06
4.5377e-06
4.58371e-06
5.18917e-06
5.81046e-06
6.29152e-06
6.59831e-06
6.7511e-06
6.78491e-06
6.73329e-06
6.62344e-06
6.47578e-06
6.30481e-06
6.12096e-06
5.93129e-06
5.74064e-06
5.55222e-06
5.36817e-06
5.18979e-06
5.01787e-06
4.85283e-06
4.69484e-06
4.54388e-06
4.39984e-06
4.26251e-06
4.13165e-06
4.00701e-06
3.8883e-06
3.77526e-06
3.66765e-06
3.56528e-06
3.47088e-06
3.38207e-06
3.2968e-06
3.2149e-06
3.13619e-06
3.06053e-06
2.98775e-06
2.91773e-06
2.85033e-06
2.78543e-06
2.7229e-06
2.66264e-06
2.60453e-06
2.54848e-06
2.49439e-06
2.44217e-06
2.39172e-06
2.34299e-06
2.29588e-06
2.25032e-06
2.20624e-06
2.16359e-06
2.12229e-06
2.08229e-06
2.04353e-06
2.00596e-06
1.96953e-06
1.9342e-06
1.89991e-06
1.86663e-06
1.83432e-06
1.80293e-06
1.77243e-06
1.74279e-06
1.71397e-06
1.68595e-06
1.65868e-06
1.63215e-06
1.60632e-06
1.58117e-06
1.55668e-06
1.53282e-06
1.50956e-06
1.4869e-06
1.4648e-06
1.44325e-06
1.42223e-06
1.40172e-06
1.3817e-06
1.36217e-06
1.34309e-06
1.32446e-06
1.30626e-06
1.28848e-06
1.27111e-06
1.25413e-06
1.23754e-06
1.22131e-06
1.20545e-06
1.18993e-06
1.17476e-06
1.15993e-06
1.14544e-06
1.13127e-06
1.11739e-06
1.10374e-06
1.09036e-06
1.07725e-06
1.06441e-06
1.05182e-06
1.03948e-06
1.02739e-06
1.01553e-06
1.0039e-06
9.92495e-07
9.81307e-07
9.70331e-07
9.5956e-07
9.48989e-07
9.38613e-07
9.28427e-07
9.18425e-07
9.08603e-07
8.98956e-07
8.8948e-07
8.8017e-07
8.71023e-07
8.62034e-07
8.53199e-07
8.44515e-07
8.35977e-07
8.27583e-07
8.1933e-07
8.11213e-07
8.03229e-07
7.95377e-07
7.87652e-07
7.80051e-07
7.72573e-07
7.65215e-07
7.57973e-07
7.50846e-07
7.4383e-07
7.36924e-07
7.30125e-07
7.23431e-07
7.1684e-07
7.1035e-07
7.03959e-07
6.97664e-07
6.91464e-07
6.85357e-07
6.79341e-07
6.73414e-07
6.67575e-07
6.61821e-07
6.56152e-07
6.50565e-07
6.45058e-07
6.39632e-07
6.34283e-07
6.2901e-07
6.23812e-07
6.18687e-07
6.13635e-07
6.08653e-07
6.03741e-07
5.98897e-07
5.94119e-07
5.89407e-07
5.8476e-07
5.80176e-07
5.75654e-07
5.71193e-07
5.66792e-07
5.6245e-07
5.58166e-07
5.53939e-07
5.49768e-07
5.45652e-07
5.41589e-07
5.37581e-07
5.33624e-07
5.29719e-07
5.25864e-07
5.22059e-07
5.18303e-07
5.14595e-07
5.10935e-07
5.07321e-07
5.03753e-07
5.00229e-07
4.9675e-07
4.93315e-07
4.89922e-07
4.86572e-07
4.83263e-07
4.79995e-07
4.76766e-07
4.73578e-07
4.70427e-07
4.67315e-07
4.64241e-07
4.61203e-07
4.58201e-07
4.55235e-07
4.52303e-07
4.49406e-07
4.46543e-07
4.43712e-07
4.40915e-07
4.38151e-07
4.35418e-07
4.32716e-07
4.30046e-07
4.27408e-07
4.24803e-07
4.2223e-07
4.19693e-07
4.17193e-07
4.14736e-07
4.1233e-07
4.09986e-07
4.07728e-07
4.05592e-07
4.03645e-07
4.02011e-07
4.00937e-07
)
;

boundaryField
{
    boundary
    {
        type            empty;
    }
    inlet
    {
        type            fixedValue;
        value           uniform 0;
    }
    outlet
    {
        type            zeroGradient;
    }
}


// ************************************************************************* //
