/*--------------------------------*- C++ -*----------------------------------*\
  =========                 |
  \\      /  F ield         | OpenFOAM: The Open Source CFD Toolbox
   \\    /   O peration     | Website:  https://openfoam.org
    \\  /    A nd           | Version:  7
     \\/     M anipulation  |
\*---------------------------------------------------------------------------*/
FoamFile
{
    version     2.0;
    format      ascii;
    class       volScalarField;
    location    "0.0009";
    object      O;
}
// * * * * * * * * * * * * * * * * * * * * * * * * * * * * * * * * * * * * * //

dimensions      [0 0 0 0 0 0 0];

internalField   nonuniform List<scalar> 
500
(
1.57767e-47
3.76443e-47
5.9637e-47
8.16407e-47
1.03628e-46
1.2559e-46
1.4752e-46
1.69411e-46
1.91253e-46
2.13039e-46
2.34759e-46
2.56403e-46
2.77965e-46
2.9944e-46
3.20826e-46
3.42124e-46
3.6334e-46
3.84485e-46
4.05572e-46
4.2662e-46
4.47647e-46
4.68679e-46
4.89739e-46
5.10852e-46
5.32043e-46
5.53338e-46
5.7476e-46
5.96332e-46
6.18077e-46
6.40016e-46
6.62174e-46
6.84573e-46
7.07241e-46
7.30208e-46
7.53508e-46
7.77182e-46
8.01275e-46
8.2584e-46
8.50936e-46
8.76629e-46
9.02991e-46
9.30099e-46
9.58035e-46
9.86882e-46
1.01672e-45
1.04765e-45
1.07972e-45
1.11303e-45
1.14762e-45
1.18354e-45
1.22082e-45
1.25948e-45
1.29951e-45
1.34086e-45
1.38348e-45
1.42727e-45
1.47213e-45
1.51791e-45
1.56444e-45
1.61153e-45
1.65897e-45
1.70652e-45
1.75395e-45
1.80099e-45
1.84741e-45
1.89295e-45
1.93736e-45
1.98041e-45
2.0219e-45
2.06162e-45
2.09943e-45
2.13518e-45
2.16877e-45
2.20013e-45
2.22921e-45
2.25601e-45
2.28053e-45
2.30284e-45
2.32299e-45
2.34107e-45
2.3572e-45
2.37148e-45
2.38405e-45
2.39503e-45
2.40458e-45
2.41281e-45
2.41988e-45
2.42589e-45
2.43099e-45
2.43527e-45
2.43886e-45
2.44184e-45
2.44429e-45
2.44631e-45
2.44796e-45
2.4493e-45
2.45038e-45
2.45125e-45
2.45194e-45
2.45249e-45
2.45293e-45
2.45328e-45
2.45355e-45
2.45377e-45
2.45394e-45
2.45407e-45
2.45418e-45
2.45427e-45
2.45434e-45
2.4544e-45
2.45446e-45
2.4545e-45
2.45455e-45
2.45459e-45
2.45463e-45
2.45467e-45
2.45471e-45
2.45475e-45
2.45478e-45
2.45482e-45
2.45483e-45
2.4548e-45
2.45462e-45
2.45402e-45
2.45221e-45
2.44957e-45
2.44963e-45
2.44969e-45
2.44975e-45
2.44982e-45
2.44989e-45
2.44997e-45
2.45005e-45
2.45014e-45
2.45023e-45
2.45033e-45
2.45043e-45
2.45054e-45
2.45065e-45
2.45077e-45
2.4509e-45
2.45103e-45
2.45117e-45
2.45132e-45
2.45147e-45
2.45164e-45
2.45182e-45
2.45202e-45
2.45223e-45
2.45246e-45
2.45271e-45
2.45298e-45
2.45327e-45
2.45358e-45
2.45391e-45
2.45426e-45
2.45463e-45
2.45501e-45
2.4554e-45
2.45579e-45
2.45619e-45
2.45658e-45
2.45697e-45
2.45736e-45
2.45772e-45
2.45808e-45
2.45842e-45
2.45874e-45
2.45905e-45
2.45934e-45
2.45961e-45
2.45986e-45
2.46011e-45
2.46034e-45
2.46056e-45
2.46077e-45
2.46097e-45
2.46117e-45
2.46137e-45
2.46156e-45
2.46176e-45
2.46196e-45
2.46216e-45
2.46236e-45
2.46257e-45
2.46278e-45
2.463e-45
2.46322e-45
2.46346e-45
2.46374e-45
2.46413e-45
2.46495e-45
2.4672e-45
2.47446e-45
2.4989e-45
2.58224e-45
2.86632e-45
3.8313e-45
7.09468e-45
1.80797e-44
5.48851e-44
1.77634e-43
5.85161e-43
1.93215e-42
6.36496e-42
2.08911e-41
6.82957e-41
2.22374e-40
7.21223e-40
2.33021e-39
7.50099e-39
2.40601e-38
7.69115e-38
2.45056e-37
7.78367e-37
2.46499e-36
7.78438e-36
2.45178e-35
7.70291e-35
2.41443e-34
7.55142e-34
2.35703e-33
7.34331e-33
2.28387e-32
7.092e-32
2.19909e-31
6.81007e-31
2.10644e-30
6.50852e-30
2.00909e-29
6.19641e-29
1.90959e-28
5.88073e-28
1.80983e-27
5.56646e-27
1.71109e-26
5.25687e-26
1.61418e-25
4.9539e-25
1.51956e-24
4.65865e-24
1.4275e-23
4.37182e-23
1.33821e-22
4.09418e-22
1.25198e-21
3.82679e-21
1.16922e-20
3.57111e-20
1.09041e-19
3.32879e-19
1.02065e-18
3.12398e-18
9.54429e-18
2.91464e-17
8.90104e-17
2.71887e-16
8.30736e-16
2.53913e-15
7.76357e-15
2.37462e-14
7.26571e-14
2.22384e-13
6.80862e-13
2.0851e-12
6.38691e-12
1.95675e-11
5.99577e-11
1.83747e-10
5.63259e-10
1.7281e-09
5.32117e-09
1.66392e-08
5.52172e-08
2.19744e-07
1.22274e-06
8.51407e-06
4.88502e-05
0.000211962
0.000720083
0.00173673
0.00308275
0.00438167
0.00536992
0.00600493
0.00633079
0.00645178
0.00644231
0.00635466
0.00622306
0.00606896
0.00590541
0.00574016
0.00557769
0.00542046
0.00526971
0.00512597
0.00498932
0.00485958
0.00473647
0.00461961
0.00450861
0.00440311
0.00430271
0.00420707
0.00411587
0.00402881
0.00394561
0.00386603
0.00378985
0.00371687
0.00364693
0.00358194
0.0035205
0.00346109
0.0034036
0.00334793
0.00329398
0.00324167
0.00319093
0.00314168
0.00309386
0.0030474
0.00300225
0.00295834
0.00291563
0.00287406
0.00283359
0.00279418
0.00275578
0.00271835
0.00268186
0.00264627
0.00261155
0.00257766
0.00254457
0.00251225
0.00248069
0.00244984
0.00241969
0.00239022
0.00236139
0.00233319
0.00230559
0.00227859
0.00225215
0.00222627
0.00220091
0.00217608
0.00215175
0.0021279
0.00210453
0.00208162
0.00205915
0.00203712
0.0020155
0.0019943
0.00197349
0.00195308
0.00193304
0.00191337
0.00189405
0.00187509
0.00185646
0.00183817
0.0018202
0.00180255
0.00178521
0.00176816
0.00175142
0.00173496
0.00171878
0.00170289
0.00168727
0.00167193
0.00165688
0.00164204
0.00162738
0.00161294
0.00159874
0.00158476
0.00157099
0.00155744
0.00154409
0.00153095
0.001518
0.00150524
0.00149267
0.00148028
0.00146807
0.00145604
0.00144417
0.00143247
0.00142094
0.00140956
0.00139834
0.00138727
0.00137634
0.00136557
0.00135493
0.00134444
0.00133408
0.00132385
0.00131376
0.0013038
0.00129396
0.00128425
0.00127466
0.00126519
0.00125584
0.00124661
0.00123749
0.00122848
0.00121958
0.00121079
0.00120211
0.00119354
0.00118507
0.0011767
0.00116844
0.00116027
0.00115221
0.00114423
0.00113636
0.00112858
0.00112089
0.00111329
0.00110578
0.00109836
0.00109103
0.00108378
0.00107661
0.00106953
0.00106253
0.00105561
0.00104878
0.00104201
0.00103533
0.00102872
0.00102219
0.00101573
0.00100934
0.00100302
0.000996778
0.000990602
0.000984495
0.000978455
0.000972482
0.000966575
0.000960733
0.000954955
0.00094924
0.000943588
0.000937998
0.000932468
0.000926999
0.000921588
0.000916237
0.000910943
0.000905707
0.000900527
0.000895403
0.000890334
0.000885319
0.000880357
0.000875448
0.000870592
0.000865786
0.000861032
0.000856327
0.000851671
0.000847063
0.000842504
0.000837991
0.000833524
0.000829102
0.000824725
0.000820392
0.000816102
0.000811854
0.000807649
0.000803484
0.00079936
0.000795276
0.000791232
0.000787228
0.000783264
0.000779341
0.00077546
0.000771624
0.000767837
0.000764104
0.000760436
0.000756848
0.000753364
0.000750022
0.000746887
0.000744065
0.000741742
0.000740254
)
;

boundaryField
{
    boundary
    {
        type            empty;
    }
    inlet
    {
        type            fixedValue;
        value           uniform 0;
    }
    outlet
    {
        type            zeroGradient;
    }
}


// ************************************************************************* //
