/*--------------------------------*- C++ -*----------------------------------*\
  =========                 |
  \\      /  F ield         | OpenFOAM: The Open Source CFD Toolbox
   \\    /   O peration     | Website:  https://openfoam.org
    \\  /    A nd           | Version:  7
     \\/     M anipulation  |
\*---------------------------------------------------------------------------*/
FoamFile
{
    version     2.0;
    format      ascii;
    class       volScalarField;
    location    "0.0009";
    object      OH;
}
// * * * * * * * * * * * * * * * * * * * * * * * * * * * * * * * * * * * * * //

dimensions      [0 0 0 0 0 0 0];

internalField   nonuniform List<scalar> 
500
(
9.38509e-48
1.82918e-47
2.43832e-47
2.85098e-47
3.13008e-47
3.3191e-47
3.44747e-47
3.53499e-47
3.59495e-47
3.63623e-47
3.66478e-47
3.68455e-47
3.69821e-47
3.70755e-47
3.71377e-47
3.71774e-47
3.72004e-47
3.72113e-47
3.72137e-47
3.72105e-47
3.72044e-47
3.71975e-47
3.7192e-47
3.71897e-47
3.71922e-47
3.7201e-47
3.72173e-47
3.72423e-47
3.72766e-47
3.73212e-47
3.73764e-47
3.7443e-47
3.75214e-47
3.76121e-47
3.77159e-47
3.78335e-47
3.79657e-47
3.81139e-47
3.82793e-47
3.84634e-47
3.86682e-47
3.88956e-47
3.91477e-47
3.9427e-47
3.97358e-47
4.00767e-47
4.0452e-47
4.08643e-47
4.13157e-47
4.18082e-47
4.23437e-47
4.29234e-47
4.35482e-47
4.42185e-47
4.49342e-47
4.56943e-47
4.64973e-47
4.73409e-47
4.82221e-47
4.91373e-47
5.00819e-47
5.10508e-47
5.20384e-47
5.30386e-47
5.40447e-47
5.50499e-47
5.60475e-47
5.70306e-47
5.79926e-47
5.89273e-47
5.98289e-47
6.06923e-47
6.15133e-47
6.22881e-47
6.30141e-47
6.36895e-47
6.43132e-47
6.48851e-47
6.54056e-47
6.58761e-47
6.62984e-47
6.66747e-47
6.70078e-47
6.73006e-47
6.75562e-47
6.77779e-47
6.79688e-47
6.81323e-47
6.82713e-47
6.83888e-47
6.84874e-47
6.85698e-47
6.86381e-47
6.86944e-47
6.87406e-47
6.87783e-47
6.88089e-47
6.88336e-47
6.88534e-47
6.88693e-47
6.88819e-47
6.8892e-47
6.89e-47
6.89063e-47
6.89114e-47
6.89155e-47
6.89187e-47
6.89214e-47
6.89237e-47
6.89256e-47
6.89272e-47
6.89287e-47
6.893e-47
6.89313e-47
6.89325e-47
6.89337e-47
6.89349e-47
6.89362e-47
6.89374e-47
6.89387e-47
6.89399e-47
6.89411e-47
6.8942e-47
6.89419e-47
6.8939e-47
6.89342e-47
6.89361e-47
6.8938e-47
6.89401e-47
6.89423e-47
6.89447e-47
6.89474e-47
6.89503e-47
6.89534e-47
6.89569e-47
6.89605e-47
6.89644e-47
6.89684e-47
6.89725e-47
6.89767e-47
6.89808e-47
6.89849e-47
6.89888e-47
6.89926e-47
6.89961e-47
6.89995e-47
6.90027e-47
6.90057e-47
6.90085e-47
6.90113e-47
6.90141e-47
6.90168e-47
6.90197e-47
6.90226e-47
6.90257e-47
6.9029e-47
6.90325e-47
6.90362e-47
6.90402e-47
6.90443e-47
6.90487e-47
6.90533e-47
6.9058e-47
6.90628e-47
6.90678e-47
6.90729e-47
6.9078e-47
6.90832e-47
6.90885e-47
6.90938e-47
6.90991e-47
6.91045e-47
6.91098e-47
6.91152e-47
6.91206e-47
6.91261e-47
6.91316e-47
6.91371e-47
6.91427e-47
6.91483e-47
6.9154e-47
6.91597e-47
6.91654e-47
6.91712e-47
6.9177e-47
6.91829e-47
6.91888e-47
6.91947e-47
6.92006e-47
6.92066e-47
6.92127e-47
6.92196e-47
6.9229e-47
6.9247e-47
6.92952e-47
6.94467e-47
6.99508e-47
7.16512e-47
7.73914e-47
9.67069e-47
1.61427e-46
3.77313e-46
1.0942e-45
3.46421e-45
1.12653e-44
3.68342e-44
1.20292e-43
3.91604e-43
1.27017e-42
4.10437e-42
1.32141e-41
4.23919e-41
1.35532e-40
4.31895e-40
1.372e-39
4.34551e-39
1.37246e-38
4.32321e-38
1.35839e-37
4.25819e-37
1.33192e-36
4.15766e-36
1.29541e-35
4.02919e-35
1.25125e-34
3.88011e-34
1.20165e-33
3.7171e-33
1.1486e-32
3.54587e-32
1.09373e-31
3.37111e-31
1.03836e-30
3.19653e-30
9.83559e-30
3.02521e-29
9.30243e-29
2.86016e-28
8.79486e-28
2.70549e-27
8.32983e-27
2.56853e-26
7.9398e-26
2.46389e-25
7.69106e-25
2.42169e-24
7.72067e-24
2.50435e-23
8.31276e-23
2.84124e-22
1.00568e-21
3.72149e-21
1.42902e-20
5.69031e-20
2.34243e-19
9.91288e-19
4.28657e-18
1.88372e-17
8.37469e-17
3.75383e-16
1.69215e-15
7.6575e-15
3.47445e-14
1.57934e-13
7.1881e-13
3.27451e-12
1.49267e-11
6.80761e-11
3.1254e-10
1.45254e-09
6.80658e-09
3.21175e-08
1.54697e-07
7.96058e-07
4.74759e-06
3.24474e-05
0.000188105
0.000546991
0.00079828
0.000954784
0.001314
0.00208927
0.00327615
0.00466974
0.00607508
0.00727195
0.00824807
0.00901872
0.00961966
0.0100881
0.0104554
0.0107458
0.0109775
0.0111637
0.0113142
0.0114363
0.0115354
0.0116157
0.0116804
0.0117321
0.0117727
0.011804
0.0118272
0.0118435
0.0118538
0.0118588
0.0118593
0.0118558
0.0118488
0.0118387
0.0118259
0.0118106
0.0117939
0.0117759
0.0117563
0.0117354
0.0117133
0.01169
0.0116657
0.0116405
0.0116144
0.0115876
0.0115601
0.011532
0.0115033
0.0114742
0.0114446
0.0114146
0.0113843
0.0113537
0.0113228
0.0112916
0.0112603
0.0112288
0.0111971
0.0111653
0.0111334
0.0111014
0.0110693
0.0110372
0.0110051
0.0109729
0.0109408
0.0109086
0.0108765
0.0108444
0.0108124
0.0107804
0.0107484
0.0107166
0.0106848
0.0106531
0.0106215
0.01059
0.0105586
0.0105273
0.0104961
0.0104651
0.0104342
0.0104034
0.0103727
0.0103422
0.0103118
0.0102816
0.0102515
0.0102216
0.0101919
0.0101623
0.0101329
0.0101036
0.0100745
0.0100456
0.0100169
0.00998832
0.00995997
0.00993184
0.00990382
0.00987584
0.00984801
0.00982035
0.00979285
0.00976551
0.00973832
0.00971129
0.0096844
0.00965767
0.00963108
0.00960463
0.00957833
0.00955217
0.00952614
0.00950025
0.00947449
0.00944887
0.00942338
0.00939801
0.00937278
0.00934767
0.00932268
0.00929782
0.00927308
0.00924847
0.00922398
0.0091996
0.00917535
0.00915122
0.00912721
0.00910333
0.00907956
0.00905591
0.00903239
0.00900899
0.00898571
0.00896255
0.00893951
0.0089166
0.00889381
0.00887115
0.0088486
0.00882619
0.00880389
0.00878172
0.00875968
0.00873775
0.00871596
0.00869428
0.00867273
0.0086513
0.00863
0.00860882
0.00858775
0.00856681
0.008546
0.0085253
0.00850472
0.00848426
0.00846392
0.0084437
0.00842359
0.00840361
0.00838373
0.00836398
0.00834434
0.00832482
0.00830541
0.00828611
0.00826693
0.00824787
0.00822892
0.00821008
0.00819135
0.00817274
0.00815424
0.00813585
0.00811757
0.00809941
0.00808136
0.00806342
0.00804559
0.00802788
0.00801027
0.00799277
0.00797539
0.00795811
0.00794095
0.00792389
0.00790693
0.00789009
0.00787335
0.00785672
0.00784019
0.00782376
0.00780744
0.00779121
0.00777509
0.00775906
0.00774313
0.0077273
0.00771156
0.00769591
0.00768036
0.0076649
0.00764952
0.00763424
0.00761905
0.00760395
0.00758894
0.00757404
0.00755924
0.00754457
0.00753004
0.00751568
0.00750155
0.00748771
0.00747428
0.00746143
0.00744943
0.00743873
0.00743002
0.0074245
)
;

boundaryField
{
    boundary
    {
        type            empty;
    }
    inlet
    {
        type            fixedValue;
        value           uniform 0;
    }
    outlet
    {
        type            zeroGradient;
    }
}


// ************************************************************************* //
