/*--------------------------------*- C++ -*----------------------------------*\
  =========                 |
  \\      /  F ield         | OpenFOAM: The Open Source CFD Toolbox
   \\    /   O peration     | Website:  https://openfoam.org
    \\  /    A nd           | Version:  7
     \\/     M anipulation  |
\*---------------------------------------------------------------------------*/
FoamFile
{
    version     2.0;
    format      ascii;
    class       surfaceScalarField;
    location    "0.0009";
    object      phi;
}
// * * * * * * * * * * * * * * * * * * * * * * * * * * * * * * * * * * * * * //

dimensions      [1 0 -1 0 0 0 0];

internalField   nonuniform List<scalar> 
499
(
6.93067e-06
6.93058e-06
6.93049e-06
6.93041e-06
6.93033e-06
6.93024e-06
6.93016e-06
6.93009e-06
6.93001e-06
6.92994e-06
6.92988e-06
6.92982e-06
6.92978e-06
6.92974e-06
6.92971e-06
6.9297e-06
6.92969e-06
6.92969e-06
6.9297e-06
6.92971e-06
6.92972e-06
6.92974e-06
6.92975e-06
6.92976e-06
6.92976e-06
6.92974e-06
6.92972e-06
6.92968e-06
6.92963e-06
6.92956e-06
6.92947e-06
6.92937e-06
6.92924e-06
6.9291e-06
6.92893e-06
6.92875e-06
6.92854e-06
6.9283e-06
6.92804e-06
6.92775e-06
6.92744e-06
6.92708e-06
6.9267e-06
6.92627e-06
6.9258e-06
6.92529e-06
6.92473e-06
6.92413e-06
6.92346e-06
6.92275e-06
6.92198e-06
6.92115e-06
6.92027e-06
6.91934e-06
6.91835e-06
6.91731e-06
6.91623e-06
6.91511e-06
6.91395e-06
6.91276e-06
6.91154e-06
6.91031e-06
6.90908e-06
6.90784e-06
6.90661e-06
6.90539e-06
6.90419e-06
6.90303e-06
6.90189e-06
6.9008e-06
6.89975e-06
6.89875e-06
6.8978e-06
6.89691e-06
6.89607e-06
6.89529e-06
6.89456e-06
6.89389e-06
6.89327e-06
6.8927e-06
6.89218e-06
6.8917e-06
6.89127e-06
6.89088e-06
6.89053e-06
6.89021e-06
6.88992e-06
6.88965e-06
6.88941e-06
6.88919e-06
6.88899e-06
6.8888e-06
6.88863e-06
6.88846e-06
6.88831e-06
6.88817e-06
6.88803e-06
6.8879e-06
6.88778e-06
6.88765e-06
6.88754e-06
6.88742e-06
6.8873e-06
6.88719e-06
6.88708e-06
6.88697e-06
6.88686e-06
6.88676e-06
6.88665e-06
6.88654e-06
6.88644e-06
6.88633e-06
6.88623e-06
6.88613e-06
6.88602e-06
6.88592e-06
6.88582e-06
6.88572e-06
6.88562e-06
6.88552e-06
6.88542e-06
6.88533e-06
6.88523e-06
6.88513e-06
6.88504e-06
6.88494e-06
6.88485e-06
6.88475e-06
6.88466e-06
6.88457e-06
6.88448e-06
6.88439e-06
6.8843e-06
6.88421e-06
6.88413e-06
6.88404e-06
6.88395e-06
6.88387e-06
6.88378e-06
6.8837e-06
6.88362e-06
6.88354e-06
6.88346e-06
6.88338e-06
6.8833e-06
6.88322e-06
6.88314e-06
6.88307e-06
6.88299e-06
6.88292e-06
6.88284e-06
6.88277e-06
6.8827e-06
6.88263e-06
6.88255e-06
6.88248e-06
6.88241e-06
6.88234e-06
6.88226e-06
6.88219e-06
6.88212e-06
6.88204e-06
6.88197e-06
6.88189e-06
6.88182e-06
6.88174e-06
6.88167e-06
6.88159e-06
6.88151e-06
6.88144e-06
6.88136e-06
6.88128e-06
6.8812e-06
6.88112e-06
6.88103e-06
6.88095e-06
6.88087e-06
6.88078e-06
6.8807e-06
6.88061e-06
6.88052e-06
6.88043e-06
6.88034e-06
6.88025e-06
6.88016e-06
6.88007e-06
6.87998e-06
6.87988e-06
6.87979e-06
6.87969e-06
6.8796e-06
6.8795e-06
6.8794e-06
6.87931e-06
6.87921e-06
6.87911e-06
6.87901e-06
6.87891e-06
6.87882e-06
6.87872e-06
6.87862e-06
6.87852e-06
6.87842e-06
6.87833e-06
6.87823e-06
6.87813e-06
6.87804e-06
6.87794e-06
6.87785e-06
6.87776e-06
6.87766e-06
6.87757e-06
6.87748e-06
6.8774e-06
6.87731e-06
6.87722e-06
6.87714e-06
6.87706e-06
6.87698e-06
6.8769e-06
6.87682e-06
6.87674e-06
6.87667e-06
6.8766e-06
6.87653e-06
6.87646e-06
6.87639e-06
6.87633e-06
6.87626e-06
6.8762e-06
6.87614e-06
6.87609e-06
6.87603e-06
6.87598e-06
6.87593e-06
6.87588e-06
6.87583e-06
6.87578e-06
6.87574e-06
6.8757e-06
6.87566e-06
6.87562e-06
6.87558e-06
6.87555e-06
6.87552e-06
6.87549e-06
6.87546e-06
6.87543e-06
6.87541e-06
6.87539e-06
6.87536e-06
6.87535e-06
6.87533e-06
6.87531e-06
6.8753e-06
6.87529e-06
6.87528e-06
6.87527e-06
6.87526e-06
6.87525e-06
6.87525e-06
6.87525e-06
6.87525e-06
6.87525e-06
6.87525e-06
6.87525e-06
6.87526e-06
6.87528e-06
6.87533e-06
6.87548e-06
6.87591e-06
6.87722e-06
6.88109e-06
6.89205e-06
6.92012e-06
6.97511e-06
7.04338e-06
7.0986e-06
7.13511e-06
7.15925e-06
7.17605e-06
7.18778e-06
7.19499e-06
7.2001e-06
7.20525e-06
7.20973e-06
7.2132e-06
7.21593e-06
7.21808e-06
7.21972e-06
7.22095e-06
7.22183e-06
7.22245e-06
7.22287e-06
7.22317e-06
7.22339e-06
7.22357e-06
7.22375e-06
7.22394e-06
7.22414e-06
7.22436e-06
7.22459e-06
7.22483e-06
7.22507e-06
7.22532e-06
7.22556e-06
7.2258e-06
7.22602e-06
7.22624e-06
7.22645e-06
7.22665e-06
7.22683e-06
7.227e-06
7.22716e-06
7.22731e-06
7.22746e-06
7.2276e-06
7.22773e-06
7.22786e-06
7.22799e-06
7.2281e-06
7.22822e-06
7.22833e-06
7.22843e-06
7.22853e-06
7.22863e-06
7.22873e-06
7.22882e-06
7.22891e-06
7.22899e-06
7.22908e-06
7.22916e-06
7.22924e-06
7.22931e-06
7.22939e-06
7.22946e-06
7.22953e-06
7.2296e-06
7.22967e-06
7.22974e-06
7.2298e-06
7.22987e-06
7.22993e-06
7.23e-06
7.23006e-06
7.23012e-06
7.23018e-06
7.23024e-06
7.2303e-06
7.23036e-06
7.23041e-06
7.23047e-06
7.23053e-06
7.23058e-06
7.23064e-06
7.23069e-06
7.23074e-06
7.2308e-06
7.23085e-06
7.2309e-06
7.23095e-06
7.23099e-06
7.23104e-06
7.23109e-06
7.23113e-06
7.23118e-06
7.23122e-06
7.23126e-06
7.2313e-06
7.23134e-06
7.23137e-06
7.23141e-06
7.23144e-06
7.23147e-06
7.2315e-06
7.23153e-06
7.23156e-06
7.23159e-06
7.23161e-06
7.23164e-06
7.23166e-06
7.23168e-06
7.23171e-06
7.23173e-06
7.23175e-06
7.23177e-06
7.23179e-06
7.23181e-06
7.23183e-06
7.23185e-06
7.23186e-06
7.23188e-06
7.2319e-06
7.23192e-06
7.23194e-06
7.23196e-06
7.23199e-06
7.23201e-06
7.23203e-06
7.23205e-06
7.23207e-06
7.2321e-06
7.23212e-06
7.23214e-06
7.23217e-06
7.23219e-06
7.23222e-06
7.23224e-06
7.23226e-06
7.23229e-06
7.23231e-06
7.23234e-06
7.23236e-06
7.23238e-06
7.2324e-06
7.23243e-06
7.23245e-06
7.23247e-06
7.23249e-06
7.23251e-06
7.23253e-06
7.23254e-06
7.23256e-06
7.23257e-06
7.23259e-06
7.2326e-06
7.23262e-06
7.23263e-06
7.23264e-06
7.23265e-06
7.23266e-06
7.23266e-06
7.23267e-06
7.23268e-06
7.23268e-06
7.23269e-06
7.23269e-06
7.23269e-06
7.23269e-06
7.23269e-06
7.23269e-06
7.23269e-06
7.23269e-06
7.23269e-06
7.23268e-06
7.23268e-06
7.23267e-06
7.23266e-06
7.23266e-06
7.23265e-06
7.23264e-06
7.23262e-06
7.23261e-06
7.2326e-06
7.23258e-06
7.23257e-06
7.23255e-06
7.23253e-06
7.23251e-06
7.23249e-06
7.23246e-06
7.23244e-06
7.23241e-06
7.23238e-06
7.23235e-06
7.23232e-06
7.23228e-06
7.23225e-06
7.23221e-06
7.23217e-06
7.23213e-06
7.23208e-06
7.23204e-06
7.23199e-06
7.23194e-06
7.23189e-06
7.23183e-06
7.23177e-06
7.23172e-06
7.23165e-06
7.23159e-06
7.23152e-06
7.23146e-06
7.23139e-06
7.23131e-06
7.23124e-06
7.23116e-06
7.23108e-06
7.23099e-06
7.23091e-06
7.23082e-06
7.23073e-06
7.23063e-06
7.23054e-06
7.23044e-06
7.23034e-06
7.23024e-06
7.23014e-06
7.23003e-06
)
;

boundaryField
{
    boundary
    {
        type            empty;
        value           nonuniform 0();
    }
    inlet
    {
        type            calculated;
        value           uniform -6.93075e-06;
    }
    outlet
    {
        type            calculated;
        value           uniform 7.22993e-06;
    }
}


// ************************************************************************* //
