/*--------------------------------*- C++ -*----------------------------------*\
  =========                 |
  \\      /  F ield         | OpenFOAM: The Open Source CFD Toolbox
   \\    /   O peration     | Website:  https://openfoam.org
    \\  /    A nd           | Version:  7
     \\/     M anipulation  |
\*---------------------------------------------------------------------------*/
FoamFile
{
    version     2.0;
    format      ascii;
    class       volScalarField;
    location    "0.0009";
    object      rho;
}
// * * * * * * * * * * * * * * * * * * * * * * * * * * * * * * * * * * * * * //

dimensions      [1 -3 0 0 0 0 0];

internalField   nonuniform List<scalar> 
500
(
0.864748
0.864746
0.864743
0.864741
0.864738
0.864736
0.864734
0.864733
0.864732
0.864732
0.864733
0.864735
0.864738
0.864742
0.864748
0.864754
0.864762
0.864771
0.86478
0.86479
0.8648
0.86481
0.86482
0.864828
0.864836
0.864842
0.864846
0.864849
0.86485
0.864849
0.864845
0.864839
0.864831
0.86482
0.864807
0.864791
0.864772
0.86475
0.864725
0.864696
0.864663
0.864625
0.864584
0.864537
0.864485
0.864427
0.864363
0.864293
0.864217
0.864133
0.864043
0.863946
0.863843
0.863733
0.863616
0.863494
0.863367
0.863235
0.863099
0.86296
0.862818
0.862676
0.862533
0.86239
0.862249
0.86211
0.861975
0.861843
0.861717
0.861595
0.86148
0.861371
0.861269
0.861173
0.861085
0.861003
0.860929
0.860861
0.8608
0.860745
0.860696
0.860653
0.860614
0.860581
0.860552
0.860527
0.860505
0.860487
0.860471
0.860458
0.860447
0.860437
0.86043
0.860423
0.860418
0.860414
0.860411
0.860408
0.860406
0.860404
0.860403
0.860402
0.860401
0.8604
0.8604
0.860399
0.860399
0.860398
0.860398
0.860398
0.860398
0.860398
0.860398
0.860398
0.860397
0.860397
0.860397
0.860397
0.860397
0.860397
0.860397
0.860397
0.860397
0.860397
0.860397
0.860397
0.860396
0.860396
0.860396
0.860396
0.860395
0.860395
0.860395
0.860395
0.860394
0.860394
0.860393
0.860393
0.860393
0.860392
0.860392
0.860391
0.860391
0.86039
0.86039
0.86039
0.860389
0.860389
0.860389
0.860388
0.860388
0.860388
0.860388
0.860387
0.860387
0.860387
0.860386
0.860386
0.860386
0.860385
0.860385
0.860385
0.860384
0.860384
0.860383
0.860383
0.860382
0.860381
0.860381
0.86038
0.86038
0.860379
0.860379
0.860378
0.860378
0.860377
0.860376
0.860376
0.860375
0.860375
0.860374
0.860373
0.860373
0.860372
0.860372
0.860371
0.86037
0.86037
0.860369
0.860368
0.860368
0.860367
0.860367
0.860366
0.860365
0.860365
0.860364
0.860364
0.860363
0.860363
0.860362
0.860362
0.860361
0.860361
0.86036
0.86036
0.86036
0.860359
0.860359
0.860359
0.860359
0.860359
0.860359
0.860359
0.860359
0.860359
0.860359
0.860359
0.860359
0.860359
0.86036
0.86036
0.860361
0.860361
0.860362
0.860363
0.860364
0.860364
0.860365
0.860367
0.860368
0.860369
0.86037
0.860372
0.860373
0.860375
0.860377
0.860379
0.860381
0.860383
0.860385
0.860388
0.86039
0.860393
0.860396
0.860399
0.860402
0.860405
0.860409
0.860412
0.860416
0.860421
0.860425
0.860429
0.860433
0.860438
0.860442
0.860447
0.860452
0.860457
0.860462
0.860467
0.860473
0.860479
0.860485
0.860492
0.860496
0.860491
0.860449
0.860291
0.859767
0.858134
0.853233
0.839042
0.800878
0.715951
0.585562
0.457891
0.366807
0.307614
0.267599
0.239236
0.219032
0.2046
0.194051
0.186395
0.180615
0.176063
0.172376
0.169314
0.16672
0.164483
0.16253
0.160803
0.159263
0.157879
0.156626
0.155486
0.154442
0.153482
0.152596
0.151774
0.151009
0.150295
0.149627
0.149
0.14841
0.147853
0.147327
0.146829
0.146358
0.145911
0.145498
0.145112
0.14474
0.144382
0.144037
0.143706
0.143386
0.143077
0.142779
0.14249
0.142211
0.141941
0.14168
0.141426
0.14118
0.140941
0.14071
0.140484
0.140265
0.140053
0.139845
0.139643
0.139447
0.139255
0.139069
0.138887
0.138709
0.138535
0.138366
0.138201
0.138039
0.137881
0.137727
0.137575
0.137428
0.137283
0.137141
0.137003
0.136867
0.136734
0.136603
0.136475
0.13635
0.136227
0.136106
0.135987
0.135871
0.135757
0.135645
0.135535
0.135426
0.13532
0.135215
0.135113
0.135012
0.134912
0.134814
0.134718
0.134624
0.13453
0.134439
0.134349
0.13426
0.134173
0.134087
0.134003
0.133919
0.133836
0.133755
0.133675
0.133596
0.133518
0.133441
0.133365
0.133291
0.133217
0.133144
0.133073
0.133002
0.132932
0.132863
0.132795
0.132728
0.132662
0.132597
0.132533
0.132469
0.132406
0.132344
0.132283
0.132223
0.132163
0.132104
0.132046
0.131988
0.131931
0.131875
0.13182
0.131765
0.13171
0.131657
0.131604
0.131551
0.1315
0.131448
0.131398
0.131347
0.131298
0.131249
0.1312
0.131152
0.131105
0.131058
0.131011
0.130965
0.130919
0.130874
0.13083
0.130786
0.130742
0.130698
0.130656
0.130613
0.130571
0.130529
0.130488
0.130447
0.130407
0.130367
0.130327
0.130288
0.130249
0.13021
0.130172
0.130134
0.130097
0.130059
0.130023
0.129986
0.12995
0.129914
0.129878
0.129843
0.129808
0.129774
0.129739
0.129705
0.129671
0.129638
0.129604
0.129572
0.129539
0.129506
0.129474
0.129442
0.12941
0.129379
0.129348
0.129317
0.129286
0.129256
0.129225
0.129195
0.129165
0.129136
0.129106
0.129077
0.129048
0.129019
0.12899
0.128962
0.128933
0.128905
0.128877
0.128849
0.128822
0.128794
0.128767
0.128739
0.128712
0.128685
0.128658
0.12863
0.128603
0.128577
0.128551
0.128528
0.128513
)
;

boundaryField
{
    boundary
    {
        type            empty;
    }
    inlet
    {
        type            calculated;
        value           uniform 0.864751;
    }
    outlet
    {
        type            calculated;
        value           uniform 0.128513;
    }
}


// ************************************************************************* //
