/*--------------------------------*- C++ -*----------------------------------*\
  =========                 |
  \\      /  F ield         | OpenFOAM: The Open Source CFD Toolbox
   \\    /   O peration     | Website:  https://openfoam.org
    \\  /    A nd           | Version:  7
     \\/     M anipulation  |
\*---------------------------------------------------------------------------*/
FoamFile
{
    version     2.0;
    format      ascii;
    class       volScalarField;
    location    "0.0009";
    object      T;
}
// * * * * * * * * * * * * * * * * * * * * * * * * * * * * * * * * * * * * * //

dimensions      [0 0 0 1 0 0 0];

internalField   nonuniform List<scalar> 
500
(
300.001
300.002
300.003
300.003
300.004
300.005
300.006
300.006
300.006
300.006
300.006
300.005
300.004
300.003
300.001
299.999
299.996
299.993
299.99
299.986
299.983
299.979
299.976
299.973
299.971
299.968
299.967
299.966
299.966
299.966
299.967
299.969
299.972
299.976
299.98
299.986
299.993
300
300.009
300.019
300.031
300.044
300.058
300.074
300.092
300.112
300.135
300.159
300.185
300.214
300.246
300.279
300.315
300.354
300.394
300.437
300.481
300.527
300.574
300.623
300.672
300.722
300.772
300.821
300.871
300.919
300.966
301.012
301.057
301.099
301.139
301.177
301.213
301.247
301.278
301.306
301.332
301.356
301.377
301.397
301.414
301.429
301.442
301.454
301.464
301.473
301.481
301.487
301.493
301.497
301.501
301.505
301.507
301.509
301.511
301.513
301.514
301.515
301.516
301.516
301.517
301.517
301.518
301.518
301.518
301.518
301.518
301.518
301.519
301.519
301.519
301.519
301.519
301.519
301.519
301.519
301.519
301.519
301.519
301.519
301.519
301.519
301.519
301.519
301.519
301.519
301.519
301.52
301.52
301.52
301.52
301.52
301.52
301.52
301.52
301.521
301.521
301.521
301.521
301.521
301.521
301.521
301.522
301.522
301.522
301.522
301.522
301.522
301.522
301.522
301.523
301.523
301.523
301.523
301.523
301.523
301.523
301.523
301.523
301.524
301.524
301.524
301.524
301.524
301.524
301.525
301.525
301.525
301.525
301.525
301.526
301.526
301.526
301.526
301.526
301.527
301.527
301.527
301.527
301.528
301.528
301.528
301.528
301.528
301.529
301.529
301.529
301.529
301.53
301.53
301.53
301.53
301.53
301.531
301.531
301.531
301.531
301.532
301.532
301.532
301.532
301.532
301.532
301.533
301.533
301.533
301.533
301.533
301.533
301.533
301.533
301.533
301.534
301.534
301.534
301.534
301.534
301.533
301.533
301.533
301.533
301.533
301.533
301.533
301.532
301.532
301.532
301.532
301.531
301.531
301.53
301.53
301.53
301.529
301.528
301.528
301.527
301.527
301.526
301.525
301.524
301.523
301.523
301.522
301.521
301.52
301.519
301.517
301.516
301.515
301.513
301.512
301.511
301.509
301.508
301.506
301.504
301.503
301.501
301.499
301.498
301.496
301.494
301.492
301.491
301.49
301.492
301.5
301.529
301.614
301.859
302.561
304.562
310.254
326.139
367.014
452.803
585.608
739.937
892.908
1037.53
1170.7
1286.89
1383.98
1463.95
1528.14
1580.64
1624.78
1662.56
1695.44
1724.46
1750.36
1773.7
1794.91
1814.3
1832.13
1848.61
1863.9
1878.15
1891.47
1903.95
1915.69
1926.77
1937.23
1947.14
1956.55
1965.5
1974.02
1982.14
1989.9
1997.32
2004.41
2011.01
2017.22
2023.25
2029.08
2034.72
2040.19
2045.5
2050.66
2055.66
2060.52
2065.25
2069.85
2074.33
2078.69
2082.94
2087.09
2091.13
2095.07
2098.92
2102.68
2106.35
2109.94
2113.45
2116.89
2120.25
2123.53
2126.75
2129.9
2132.99
2136.01
2138.98
2141.89
2144.74
2147.54
2150.28
2152.98
2155.62
2158.22
2160.77
2163.27
2165.74
2168.16
2170.54
2172.88
2175.18
2177.44
2179.67
2181.86
2184.02
2186.14
2188.23
2190.29
2192.32
2194.32
2196.29
2198.23
2200.14
2202.03
2203.89
2205.72
2207.52
2209.3
2211.06
2212.78
2214.49
2216.18
2217.85
2219.5
2221.12
2222.73
2224.32
2225.88
2227.43
2228.95
2230.46
2231.95
2233.42
2234.88
2236.31
2237.73
2239.13
2240.52
2241.89
2243.24
2244.58
2245.9
2247.2
2248.49
2249.77
2251.03
2252.28
2253.51
2254.73
2255.94
2257.13
2258.31
2259.48
2260.63
2261.77
2262.9
2264.02
2265.13
2266.22
2267.31
2268.38
2269.44
2270.49
2271.53
2272.56
2273.58
2274.6
2275.6
2276.59
2277.57
2278.54
2279.51
2280.46
2281.41
2282.34
2283.27
2284.19
2285.1
2286
2286.9
2287.79
2288.66
2289.54
2290.4
2291.25
2292.1
2292.94
2293.78
2294.6
2295.42
2296.24
2297.04
2297.84
2298.63
2299.42
2300.2
2300.97
2301.74
2302.5
2303.25
2304
2304.74
2305.48
2306.21
2306.93
2307.65
2308.36
2309.07
2309.77
2310.47
2311.16
2311.85
2312.53
2313.21
2313.88
2314.54
2315.21
2315.86
2316.51
2317.16
2317.8
2318.44
2319.07
2319.7
2320.32
2320.94
2321.55
2322.16
2322.77
2323.37
2323.96
2324.55
2325.14
2325.72
2326.29
2326.86
2327.43
2327.99
2328.54
2329.09
2329.61
2330.11
2330.54
2330.82
)
;

boundaryField
{
    boundary
    {
        type            empty;
    }
    inlet
    {
        type            fixedValue;
        value           uniform 300;
    }
    outlet
    {
        type            zeroGradient;
    }
}


// ************************************************************************* //
