/*--------------------------------*- C++ -*----------------------------------*\
  =========                 |
  \\      /  F ield         | OpenFOAM: The Open Source CFD Toolbox
   \\    /   O peration     | Website:  https://openfoam.org
    \\  /    A nd           | Version:  7
     \\/     M anipulation  |
\*---------------------------------------------------------------------------*/
FoamFile
{
    version     2.0;
    format      ascii;
    class       volScalarField;
    location    "0.00016";
    object      p;
}
// * * * * * * * * * * * * * * * * * * * * * * * * * * * * * * * * * * * * * //

dimensions      [1 -1 -2 0 0 0 0];

internalField   nonuniform List<scalar> 
125
(
103051
103051
103051
103051
103050
103050
103050
103050
103050
103050
103050
103050
103050
103050
103050
103049
103049
103049
103049
103049
103049
103049
103049
103049
103049
103048
103048
103048
103047
103046
103044
103041
103039
103036
103034
103033
103031
103030
103029
103028
103027
103027
103026
103026
103025
103025
103025
103024
103024
103024
103024
103023
103023
103023
103023
103023
103022
103022
103022
103022
103022
103022
103022
103021
103021
103021
103021
103021
103021
103021
103021
103021
103021
103020
103020
103020
103020
103020
103020
103020
103020
103020
103020
103020
103020
103019
103019
103019
103019
103019
103019
103019
103019
103019
103019
103019
103019
103019
103019
103019
103018
103018
103018
103018
103018
103018
103018
103018
103018
103018
103018
103018
103018
103018
103018
103018
103018
103017
103017
103017
103017
103017
103017
103017
103017
)
;

boundaryField
{
    boundary
    {
        type            empty;
    }
    inlet
    {
        type            zeroGradient;
    }
    outlet
    {
        type            waveTransmissive;
        gamma           1.4;
        value           nonuniform 0();
    }
    procBoundary1to0
    {
        type            processor;
        value           uniform 103017;
    }
    procBoundary1to3
    {
        type            processor;
        value           uniform 103051;
    }
}


// ************************************************************************* //
