/*--------------------------------*- C++ -*----------------------------------*\
  =========                 |
  \\      /  F ield         | OpenFOAM: The Open Source CFD Toolbox
   \\    /   O peration     | Website:  https://openfoam.org
    \\  /    A nd           | Version:  7
     \\/     M anipulation  |
\*---------------------------------------------------------------------------*/
FoamFile
{
    version     2.0;
    format      ascii;
    class       volScalarField;
    location    "0.00016";
    object      T;
}
// * * * * * * * * * * * * * * * * * * * * * * * * * * * * * * * * * * * * * //

dimensions      [0 0 0 1 0 0 0];

internalField   nonuniform List<scalar> 
125
(
301.3
301.296
301.293
301.289
301.285
301.282
301.278
301.274
301.27
301.267
301.263
301.259
301.255
301.251
301.247
301.242
301.238
301.234
301.232
301.233
301.247
301.3
301.471
301.99
303.537
308.089
321.196
356.278
433.908
560.895
714.393
868.76
1015.03
1150.23
1269.18
1366.8
1449.1
1519.2
1575.16
1619.96
1658.38
1691.7
1721.01
1747.09
1770.53
1791.77
1811.12
1828.87
1845.22
1860.35
1874.38
1887.44
1899.63
1911.03
1921.71
1931.74
1941.16
1950.02
1958.36
1966.22
1973.62
1980.41
1986.71
1992.73
1998.48
2003.98
2009.25
2014.3
2019.17
2023.87
2028.43
2032.87
2037.21
2041.49
2045.72
2049.94
2054.17
2058.45
2062.79
2067.23
2071.8
2076.52
2081.41
2086.5
2091.8
2097.35
2103.15
2109.21
2115.55
2122.17
2129.06
2136.24
2143.68
2151.39
2159.33
2167.51
2175.88
2184.43
2193.13
2201.94
2210.84
2219.78
2228.74
2237.66
2246.53
2255.3
2263.94
2272.41
2280.68
2288.72
2296.51
2304.02
2311.23
2318.12
2324.68
2330.9
2336.77
2342.28
2347.44
2352.25
2356.71
2360.84
2364.65
2368.15
2371.31
)
;

boundaryField
{
    boundary
    {
        type            empty;
    }
    inlet
    {
        type            fixedValue;
        value           nonuniform 0();
    }
    outlet
    {
        type            zeroGradient;
    }
    procBoundary1to0
    {
        type            processor;
        value           uniform 2374.24;
    }
    procBoundary1to3
    {
        type            processor;
        value           uniform 301.304;
    }
}


// ************************************************************************* //
