/*--------------------------------*- C++ -*----------------------------------*\
  =========                 |
  \\      /  F ield         | OpenFOAM: The Open Source CFD Toolbox
   \\    /   O peration     | Website:  https://openfoam.org
    \\  /    A nd           | Version:  7
     \\/     M anipulation  |
\*---------------------------------------------------------------------------*/
FoamFile
{
    version     2.0;
    format      ascii;
    class       volScalarField;
    location    "0.00021";
    object      cellCpuTimes;
}
// * * * * * * * * * * * * * * * * * * * * * * * * * * * * * * * * * * * * * //

dimensions      [0 0 0 0 0 0 0];

internalField   nonuniform List<scalar> 
500
(
8.7e-05
5.2e-05
4.9e-05
5e-05
4.8e-05
5e-05
4.9e-05
4.7e-05
5e-05
4.9e-05
4.7e-05
4.8e-05
4.9e-05
4.9e-05
4.9e-05
4.9e-05
4.8e-05
4.9e-05
4.9e-05
4.9e-05
4.9e-05
4.9e-05
4.8e-05
4.9e-05
4.9e-05
4.9e-05
4.8e-05
4.9e-05
4.8e-05
4.9e-05
4.9e-05
4.9e-05
4.9e-05
4.9e-05
4.8e-05
4.8e-05
4.8e-05
4.8e-05
4.9e-05
4.9e-05
4.9e-05
4.9e-05
4.8e-05
4.9e-05
4.8e-05
4.8e-05
4.9e-05
4.9e-05
4.8e-05
4.8e-05
4.8e-05
4.9e-05
4.8e-05
4.9e-05
4.9e-05
4.8e-05
4.8e-05
4.8e-05
4.8e-05
4.7e-05
4.8e-05
4.8e-05
4.8e-05
4.9e-05
4.8e-05
5.5e-05
4.9e-05
4.8e-05
4.8e-05
4.7e-05
4.9e-05
4.8e-05
4.8e-05
4.9e-05
4.8e-05
4.8e-05
4.8e-05
4.9e-05
4.8e-05
4.8e-05
4.9e-05
4.8e-05
4.8e-05
4.8e-05
4.9e-05
4.8e-05
4.8e-05
4.8e-05
4.9e-05
4.8e-05
4.8e-05
4.9e-05
4.9e-05
4.9e-05
4.8e-05
4.8e-05
4.9e-05
4.8e-05
4.8e-05
4.9e-05
4.9e-05
4.9e-05
4.8e-05
4.9e-05
4.8e-05
4.9e-05
4.9e-05
4.8e-05
4.8e-05
4.8e-05
4.8e-05
4.9e-05
4.8e-05
4.9e-05
4.9e-05
4.8e-05
4.8e-05
4.8e-05
4.9e-05
4.8e-05
4.8e-05
4.9e-05
4.9e-05
4.8e-05
4.9e-05
8.3e-05
5.7e-05
4.9e-05
4.8e-05
4.8e-05
4.7e-05
4.8e-05
4.8e-05
4.7e-05
4.8e-05
4.7e-05
4.7e-05
4.8e-05
4.7e-05
4.6e-05
4.8e-05
4.7e-05
4.7e-05
4.7e-05
4.7e-05
4.6e-05
4.7e-05
4.6e-05
4.7e-05
4.8e-05
4.7e-05
4.7e-05
4.8e-05
4.7e-05
4.8e-05
4.7e-05
4.6e-05
4.6e-05
4.8e-05
4.7e-05
4.7e-05
4.7e-05
4.7e-05
4.6e-05
4.7e-05
4.7e-05
4.7e-05
4.7e-05
4.6e-05
4.6e-05
4.7e-05
4.6e-05
4.7e-05
4.7e-05
4.6e-05
4.7e-05
4.7e-05
4.7e-05
4.7e-05
4.7e-05
4.7e-05
4.7e-05
4.8e-05
4.7e-05
4.6e-05
4.7e-05
4.7e-05
4.6e-05
4.7e-05
4.6e-05
4.7e-05
4.8e-05
5.9e-05
4.8e-05
4.8e-05
4.6e-05
4.7e-05
4.7e-05
4.7e-05
4.7e-05
4.7e-05
4.7e-05
4.7e-05
4.7e-05
4.6e-05
4.7e-05
4.7e-05
4.6e-05
4.7e-05
4.7e-05
4.6e-05
4.7e-05
4.7e-05
4.6e-05
4.6e-05
4.7e-05
4.7e-05
4.6e-05
4.7e-05
4.7e-05
4.8e-05
4.7e-05
4.7e-05
4.7e-05
4.7e-05
4.7e-05
4.7e-05
4.8e-05
4.6e-05
4.7e-05
4.7e-05
4.6e-05
4.7e-05
4.7e-05
4.7e-05
4.6e-05
4.7e-05
4.6e-05
4.7e-05
4.7e-05
4.7e-05
4.7e-05
4.7e-05
4.7e-05
4.6e-05
4.7e-05
4.7e-05
4.6e-05
4.8e-05
4.7e-05
4.7e-05
4.6e-05
4.7e-05
4.6e-05
4.7e-05
4.6e-05
4.7e-05
4.7e-05
4.6e-05
4.7e-05
4.7e-05
4.6e-05
4.7e-05
4.7e-05
4.6e-05
4.6e-05
4.6e-05
4.7e-05
4.6e-05
4.7e-05
4.7e-05
4.7e-05
5e-05
6.5e-05
7.6e-05
0.000107
0.000125
0.000138
0.000168
0.000162
0.000166
0.000171
0.000218
0.000253
0.000267
0.000289
0.000261
0.000257
0.000234
0.00022
0.000207
0.000235
0.000189
0.000183
0.000173
0.000172
0.000162
0.0002
0.00015
0.000147
0.000147
0.000146
0.000146
0.000142
0.000139
0.000137
0.000144
0.000145
0.000145
0.000139
0.00014
0.000131
0.000125
0.000125
0.000126
0.000127
0.000123
0.000125
0.000124
0.000131
0.000131
0.000127
0.000128
0.000127
0.000122
0.000123
0.000123
0.000122
0.000123
0.000125
0.000126
0.000125
0.000122
0.000123
0.000124
0.000123
0.000119
0.000119
0.000119
0.000119
0.000119
0.000116
0.000117
0.000116
0.000117
0.000119
0.000116
0.000116
0.000116
0.000116
0.000112
0.000111
0.000112
0.000123
0.000113
0.000111
0.000112
0.000112
0.000112
0.000111
0.000112
0.000111
0.000111
0.000111
0.000111
0.000111
0.000112
0.000111
0.000111
0.000112
0.000112
0.000111
0.000112
0.000111
0.000112
0.000111
0.000115
0.000114
0.000115
0.000114
0.000115
0.000114
0.000114
0.000114
0.000114
0.000115
0.000159
0.000121
0.000118
0.000119
0.000112
0.000113
0.000112
0.000113
0.000112
0.000112
0.000112
0.000111
0.000113
0.000113
0.000114
0.000113
0.000114
0.000114
0.00011
0.000111
0.000111
0.000111
0.000111
0.000111
0.000111
0.000111
0.000107
0.000107
0.000107
0.000118
0.000106
0.000107
0.000105
0.000105
0.000106
0.000106
0.000105
0.000106
0.000106
0.000105
0.000101
0.000101
9.8e-05
9.3e-05
9.7e-05
9.4e-05
9.5e-05
9.6e-05
9.1e-05
9.6e-05
8.8e-05
8.9e-05
8.8e-05
8.9e-05
8.9e-05
8.8e-05
8.8e-05
8.7e-05
8.8e-05
8.5e-05
8.3e-05
8.4e-05
8.4e-05
8.3e-05
8.1e-05
7.5e-05
7.7e-05
7.8e-05
7.4e-05
7.7e-05
7e-05
7.4e-05
6.6e-05
6.3e-05
6.6e-05
6.4e-05
6.9e-05
6.8e-05
6.5e-05
6.2e-05
6.2e-05
6.2e-05
6e-05
6e-05
6e-05
6.4e-05
6.6e-05
5.8e-05
5.7e-05
5.7e-05
5.8e-05
5.7e-05
5.6e-05
5.6e-05
5.6e-05
5.6e-05
5.2e-05
5.2e-05
5.2e-05
5.2e-05
5.2e-05
5.2e-05
5.2e-05
5.2e-05
5.2e-05
5.3e-05
5.3e-05
5.2e-05
5.3e-05
5.1e-05
5.2e-05
5.2e-05
5.2e-05
5.3e-05
)
;

boundaryField
{
    boundary
    {
        type            empty;
    }
    inlet
    {
        type            calculated;
        value           uniform 0;
    }
    outlet
    {
        type            calculated;
        value           uniform 0;
    }
}


// ************************************************************************* //
