/*--------------------------------*- C++ -*----------------------------------*\
  =========                 |
  \\      /  F ield         | OpenFOAM: The Open Source CFD Toolbox
   \\    /   O peration     | Website:  https://openfoam.org
    \\  /    A nd           | Version:  7
     \\/     M anipulation  |
\*---------------------------------------------------------------------------*/
FoamFile
{
    version     2.0;
    format      ascii;
    class       volScalarField;
    location    "0.00021";
    object      H2;
}
// * * * * * * * * * * * * * * * * * * * * * * * * * * * * * * * * * * * * * //

dimensions      [0 0 0 0 0 0 0];

internalField   nonuniform List<scalar> 
500
(
0.0285116
0.0285116
0.0285116
0.0285116
0.0285116
0.0285116
0.0285116
0.0285116
0.0285116
0.0285116
0.0285116
0.0285116
0.0285116
0.0285116
0.0285116
0.0285116
0.0285116
0.0285116
0.0285116
0.0285116
0.0285116
0.0285116
0.0285116
0.0285116
0.0285116
0.0285116
0.0285116
0.0285116
0.0285116
0.0285116
0.0285116
0.0285116
0.0285116
0.0285116
0.0285116
0.0285116
0.0285116
0.0285116
0.0285116
0.0285116
0.0285116
0.0285116
0.0285116
0.0285116
0.0285116
0.0285116
0.0285116
0.0285116
0.0285116
0.0285116
0.0285116
0.0285116
0.0285116
0.0285116
0.0285116
0.0285116
0.0285116
0.0285116
0.0285116
0.0285116
0.0285116
0.0285116
0.0285116
0.0285116
0.0285116
0.0285116
0.0285116
0.0285116
0.0285116
0.0285116
0.0285116
0.0285116
0.0285116
0.0285116
0.0285116
0.0285116
0.0285116
0.0285116
0.0285116
0.0285116
0.0285116
0.0285116
0.0285116
0.0285116
0.0285116
0.0285116
0.0285116
0.0285116
0.0285116
0.0285116
0.0285116
0.0285116
0.0285116
0.0285116
0.0285116
0.0285116
0.0285116
0.0285116
0.0285116
0.0285116
0.0285116
0.0285116
0.0285116
0.0285116
0.0285116
0.0285116
0.0285116
0.0285116
0.0285116
0.0285116
0.0285116
0.0285116
0.0285116
0.0285116
0.0285116
0.0285116
0.0285116
0.0285116
0.0285116
0.0285116
0.0285116
0.0285116
0.0285116
0.0285116
0.0285116
0.0285116
0.0285116
0.0285116
0.0285116
0.0285116
0.0285116
0.0285116
0.0285116
0.0285116
0.0285116
0.0285116
0.0285116
0.0285116
0.0285116
0.0285116
0.0285116
0.0285116
0.0285116
0.0285116
0.0285116
0.0285116
0.0285116
0.0285116
0.0285116
0.0285116
0.0285116
0.0285116
0.0285116
0.0285116
0.0285116
0.0285116
0.0285116
0.0285116
0.0285116
0.0285116
0.0285116
0.0285116
0.0285116
0.0285116
0.0285116
0.0285116
0.0285116
0.0285116
0.0285116
0.0285116
0.0285116
0.0285116
0.0285116
0.0285116
0.0285116
0.0285116
0.0285116
0.0285116
0.0285116
0.0285116
0.0285116
0.0285116
0.0285116
0.0285116
0.0285116
0.0285116
0.0285116
0.0285116
0.0285116
0.0285116
0.0285116
0.0285116
0.0285116
0.0285116
0.0285116
0.0285116
0.0285116
0.0285116
0.0285116
0.0285116
0.0285116
0.0285116
0.0285116
0.0285116
0.0285116
0.0285116
0.0285116
0.0285116
0.0285116
0.0285116
0.0285116
0.0285116
0.0285116
0.0285116
0.0285116
0.0285116
0.0285116
0.0285116
0.0285116
0.0285116
0.0285116
0.0285116
0.0285116
0.0285116
0.0285116
0.0285116
0.0285116
0.0285116
0.0285116
0.0285116
0.0285116
0.0285116
0.0285116
0.0285116
0.0285116
0.0285116
0.0285116
0.0285116
0.0285116
0.0285116
0.0285116
0.0285116
0.0285116
0.0285116
0.0285116
0.0285116
0.0285116
0.0285116
0.0285116
0.0285116
0.0285116
0.0285116
0.0285116
0.0285116
0.0285116
0.0285116
0.0285116
0.0285116
0.0285116
0.0285116
0.0285116
0.0285116
0.0285116
0.0285116
0.0285115
0.0285115
0.0285114
0.0285112
0.0285107
0.0285097
0.0285074
0.0285025
0.0284921
0.0284702
0.0284239
0.0283272
0.0281274
0.0277257
0.026966
0.0256733
0.0237628
0.0213588
0.0186116
0.0156062
0.0125574
0.00983386
0.00771803
0.00617182
0.00521106
0.00460911
0.00423785
0.00400861
0.00386456
0.00377083
0.00370648
0.00365917
0.0036217
0.0035899
0.0035614
0.00353486
0.00350954
0.00348504
0.00346115
0.00343778
0.00341489
0.00339246
0.0033705
0.00334902
0.00332802
0.00330751
0.00328751
0.00326802
0.00324963
0.00323215
0.00321511
0.00319851
0.00318235
0.00316664
0.00315139
0.00313661
0.0031223
0.00310849
0.00309516
0.00308234
0.00307003
0.00305823
0.00304696
0.00303621
0.00302599
0.00301632
0.00300717
0.00299857
0.00299051
0.00298298
0.00297598
0.0029695
0.00296355
0.00295809
0.00295313
0.00294865
0.00294463
0.00294104
0.00293787
0.00293508
0.00293265
0.00293054
0.00292871
0.00292712
0.00292573
0.00292448
0.00292334
0.00292224
0.00292113
0.00291994
0.00291863
0.00291711
0.00291533
0.00291321
0.0029107
0.00290772
0.00290421
0.00290009
0.0028953
0.00288978
0.00288346
0.00287629
0.00286821
0.00285916
0.00284911
0.00283801
0.00282582
0.00281251
0.00279806
0.00278246
0.0027657
0.00274777
0.00272839
0.00270807
0.00268655
0.00266383
0.00263997
0.00261498
0.00258892
0.00256182
0.00253373
0.00250471
0.00247481
0.00244409
0.00241262
0.00238047
0.00234771
0.00231441
0.00228066
0.00224653
0.00221211
0.00217748
0.00214272
0.00210792
0.00207316
0.00203853
0.00200411
0.00196997
0.0019362
0.00190288
0.00187006
0.00183783
0.00180624
0.00177536
0.00174523
0.00171592
0.00168746
0.00165988
0.00163324
0.00160755
0.00158283
0.00155911
0.00153639
0.00151469
0.00149401
0.00147433
0.00145566
0.00143799
0.0014213
0.00140557
0.00139077
0.00137689
0.0013639
0.00135177
0.00134047
0.00132996
0.00132021
0.00131118
0.00130285
0.00129517
0.00128812
0.00128164
0.00127572
0.00127031
0.00126539
0.00126091
0.00125685
0.00125318
0.00124986
0.00124688
0.00124419
0.00124179
0.00123964
0.00123772
0.00123601
0.0012345
0.00123315
0.00123197
0.00123092
0.00123
0.00122919
0.00122849
0.00122787
0.00122733
0.00122687
0.00122647
0.00122612
0.00122582
0.00122556
0.00122534
0.00122515
0.00122499
0.00122486
0.00122475
0.00122465
0.00122457
0.0012245
0.00122445
0.0012244
0.00122437
0.00122434
0.00122431
0.00122429
0.00122428
0.00122427
0.00122426
0.00122426
0.00122425
0.00122425
0.00122425
0.00122425
0.00122425
0.00122425
0.00122426
0.00122426
0.00122426
0.00122427
0.00122427
0.00122427
0.00122428
0.00122428
0.00122429
0.00122429
0.00122429
0.00122429
0.0012243
)
;

boundaryField
{
    boundary
    {
        type            empty;
    }
    inlet
    {
        type            fixedValue;
        value           uniform 0.0285116;
    }
    outlet
    {
        type            zeroGradient;
    }
}


// ************************************************************************* //
