/*--------------------------------*- C++ -*----------------------------------*\
  =========                 |
  \\      /  F ield         | OpenFOAM: The Open Source CFD Toolbox
   \\    /   O peration     | Website:  https://openfoam.org
    \\  /    A nd           | Version:  7
     \\/     M anipulation  |
\*---------------------------------------------------------------------------*/
FoamFile
{
    version     2.0;
    format      ascii;
    class       volScalarField;
    location    "0.00021";
    object      H2O2;
}
// * * * * * * * * * * * * * * * * * * * * * * * * * * * * * * * * * * * * * //

dimensions      [0 0 0 0 0 0 0];

internalField   nonuniform List<scalar> 
500
(
2.02489e-52
6.54975e-52
1.31266e-51
2.18339e-51
3.27561e-51
4.59673e-51
6.15073e-51
7.93524e-51
9.93825e-51
1.21351e-50
1.4487e-50
1.69407e-50
1.94319e-50
2.18896e-50
2.42432e-50
2.64295e-50
2.83982e-50
3.01168e-50
3.15711e-50
3.27645e-50
3.37147e-50
3.44491e-50
3.50006e-50
3.54032e-50
3.56892e-50
3.58871e-50
3.60205e-50
3.61082e-50
3.61645e-50
3.61998e-50
3.62215e-50
3.62344e-50
3.6242e-50
3.62464e-50
3.62488e-50
3.62501e-50
3.62508e-50
3.62512e-50
3.62514e-50
3.62514e-50
3.62514e-50
3.62514e-50
3.62514e-50
3.62514e-50
3.62514e-50
3.62514e-50
3.62514e-50
3.62514e-50
3.62515e-50
3.62515e-50
3.62516e-50
3.62516e-50
3.62517e-50
3.62518e-50
3.62519e-50
3.6252e-50
3.62521e-50
3.62523e-50
3.62524e-50
3.62526e-50
3.62528e-50
3.62531e-50
3.62533e-50
3.62536e-50
3.62539e-50
3.62542e-50
3.62546e-50
3.62549e-50
3.62553e-50
3.62558e-50
3.62562e-50
3.62567e-50
3.62572e-50
3.62578e-50
3.62584e-50
3.6259e-50
3.62597e-50
3.62604e-50
3.62611e-50
3.62619e-50
3.62627e-50
3.62635e-50
3.62644e-50
3.62654e-50
3.62663e-50
3.62674e-50
3.62684e-50
3.62695e-50
3.62707e-50
3.62719e-50
3.62731e-50
3.62744e-50
3.62758e-50
3.62772e-50
3.62787e-50
3.62802e-50
3.62817e-50
3.62833e-50
3.6285e-50
3.62867e-50
3.62885e-50
3.62903e-50
3.62922e-50
3.62941e-50
3.62961e-50
3.62981e-50
3.63002e-50
3.63024e-50
3.63046e-50
3.63068e-50
3.63092e-50
3.63115e-50
3.63139e-50
3.63164e-50
3.63189e-50
3.63215e-50
3.63241e-50
3.63268e-50
3.63295e-50
3.63322e-50
3.63346e-50
3.63364e-50
3.6336e-50
3.63296e-50
3.63094e-50
3.62698e-50
3.62326e-50
3.61947e-50
3.61552e-50
3.61136e-50
3.60724e-50
3.60355e-50
3.60074e-50
3.59919e-50
3.5991e-50
3.60049e-50
3.60319e-50
3.60693e-50
3.61133e-50
3.61602e-50
3.62066e-50
3.62499e-50
3.62883e-50
3.63211e-50
3.63482e-50
3.63698e-50
3.63866e-50
3.63996e-50
3.64095e-50
3.64171e-50
3.6423e-50
3.64277e-50
3.64315e-50
3.64347e-50
3.64375e-50
3.644e-50
3.64422e-50
3.64442e-50
3.6446e-50
3.64476e-50
3.6449e-50
3.64502e-50
3.64511e-50
3.64519e-50
3.64524e-50
3.64527e-50
3.64527e-50
3.64525e-50
3.64519e-50
3.64511e-50
3.64499e-50
3.64484e-50
3.64465e-50
3.64443e-50
3.64416e-50
3.64386e-50
3.64352e-50
3.64313e-50
3.64269e-50
3.64221e-50
3.64168e-50
3.6411e-50
3.64047e-50
3.63978e-50
3.63903e-50
3.63823e-50
3.63737e-50
3.63644e-50
3.63546e-50
3.6344e-50
3.63328e-50
3.6321e-50
3.63084e-50
3.6295e-50
3.6281e-50
3.62662e-50
3.62506e-50
3.62343e-50
3.62171e-50
3.61992e-50
3.61804e-50
3.61608e-50
3.61404e-50
3.61191e-50
3.60969e-50
3.60739e-50
3.605e-50
3.60252e-50
3.59996e-50
3.5973e-50
3.59456e-50
3.59173e-50
3.58881e-50
3.5858e-50
3.58271e-50
3.57953e-50
3.57626e-50
3.57292e-50
3.56955e-50
3.56678e-50
3.57129e-50
3.65527e-50
4.58809e-50
1.44743e-49
1.17665e-48
1.18134e-47
1.20096e-46
1.20855e-45
1.20096e-44
1.17798e-43
1.14024e-42
1.08895e-41
1.02586e-40
9.5311e-40
8.73112e-39
7.88427e-38
7.01617e-37
6.15119e-36
5.31129e-35
4.51519e-34
3.77777e-33
3.10973e-32
2.51762e-31
2.00399e-30
1.56787e-29
1.20534e-28
9.10278e-28
6.75078e-27
4.91432e-26
3.5097e-25
2.45752e-24
1.68827e-23
1.13416e-22
7.45486e-22
4.79223e-21
3.01115e-20
1.84836e-19
1.10784e-18
6.4803e-18
3.69796e-17
2.05795e-16
1.11668e-15
5.90791e-15
3.04814e-14
1.53443e-13
7.54284e-13
3.62531e-12
1.70652e-11
7.88402e-11
3.58355e-10
1.60668e-09
7.12301e-09
3.12892e-08
1.36331e-07
5.88534e-07
2.49738e-06
1.01041e-05
3.53696e-05
8.5191e-05
0.000120454
0.000116207
7.04856e-05
3.1112e-05
1.24312e-05
6.01531e-06
4.47943e-06
4.6071e-06
5.25818e-06
5.86343e-06
6.32195e-06
6.60833e-06
6.74554e-06
6.7688e-06
6.71083e-06
6.59785e-06
6.44927e-06
6.27889e-06
6.09641e-06
5.90847e-06
5.71958e-06
5.53279e-06
5.35011e-06
5.17281e-06
5.00168e-06
4.83715e-06
4.67944e-06
4.52858e-06
4.3845e-06
4.24703e-06
4.11601e-06
3.99123e-06
3.87253e-06
3.76313e-06
3.66026e-06
3.56159e-06
3.46691e-06
3.37601e-06
3.28872e-06
3.20485e-06
3.12422e-06
3.04666e-06
2.97203e-06
2.90015e-06
2.83088e-06
2.76408e-06
2.69959e-06
2.6373e-06
2.57708e-06
2.51879e-06
2.46232e-06
2.40756e-06
2.35439e-06
2.3027e-06
2.25241e-06
2.20339e-06
2.15556e-06
2.10882e-06
2.06308e-06
2.01826e-06
1.97427e-06
1.93103e-06
1.88846e-06
1.84649e-06
1.80506e-06
1.7641e-06
1.72355e-06
1.68337e-06
1.6435e-06
1.6039e-06
1.56455e-06
1.52542e-06
1.48648e-06
1.44773e-06
1.40917e-06
1.3708e-06
1.33262e-06
1.29467e-06
1.25696e-06
1.21953e-06
1.18242e-06
1.14566e-06
1.10931e-06
1.07341e-06
1.03802e-06
1.00319e-06
9.68965e-07
9.35407e-07
9.02563e-07
8.7048e-07
8.39199e-07
8.0876e-07
7.79193e-07
7.50522e-07
7.22765e-07
6.95933e-07
6.7007e-07
6.45251e-07
6.2144e-07
5.98618e-07
5.76771e-07
5.55884e-07
5.35939e-07
5.16916e-07
4.98791e-07
4.81539e-07
4.65133e-07
4.49547e-07
4.34749e-07
4.20709e-07
4.07398e-07
3.94785e-07
3.82837e-07
3.71526e-07
3.60819e-07
3.50689e-07
3.41105e-07
3.3204e-07
3.23467e-07
3.1536e-07
3.07694e-07
3.00445e-07
2.93591e-07
2.8711e-07
2.80983e-07
2.7519e-07
2.69714e-07
2.64537e-07
2.59645e-07
2.55023e-07
2.50657e-07
2.46533e-07
2.42642e-07
2.3897e-07
2.35507e-07
2.32245e-07
2.29172e-07
2.26281e-07
2.23563e-07
2.21011e-07
2.18616e-07
2.16371e-07
2.14271e-07
2.12307e-07
2.10473e-07
2.08764e-07
2.07173e-07
2.05694e-07
2.04322e-07
2.03051e-07
2.01875e-07
2.00789e-07
1.99789e-07
1.98868e-07
1.98023e-07
1.97248e-07
1.9654e-07
1.95893e-07
1.95303e-07
1.94767e-07
1.9428e-07
1.9384e-07
1.93441e-07
1.93082e-07
1.92758e-07
1.92468e-07
1.92207e-07
1.91974e-07
1.91766e-07
1.91581e-07
1.91416e-07
1.91269e-07
1.9114e-07
1.91025e-07
1.90924e-07
1.90835e-07
1.90757e-07
1.90688e-07
1.90628e-07
1.90576e-07
1.9053e-07
1.9049e-07
1.90455e-07
1.90425e-07
1.90398e-07
1.90375e-07
1.90355e-07
1.90338e-07
1.90323e-07
1.9031e-07
1.90298e-07
1.90288e-07
1.90279e-07
1.90271e-07
1.90265e-07
1.90258e-07
1.90253e-07
1.90248e-07
1.90244e-07
1.9024e-07
1.90236e-07
1.90232e-07
1.90229e-07
1.90226e-07
1.90223e-07
1.9022e-07
1.90218e-07
1.90215e-07
1.90213e-07
1.90211e-07
1.90208e-07
1.90206e-07
1.90204e-07
1.90202e-07
1.902e-07
1.90198e-07
1.90196e-07
1.90194e-07
1.90192e-07
1.90191e-07
1.9019e-07
)
;

boundaryField
{
    boundary
    {
        type            empty;
    }
    inlet
    {
        type            fixedValue;
        value           uniform 0;
    }
    outlet
    {
        type            zeroGradient;
    }
}


// ************************************************************************* //
