/*--------------------------------*- C++ -*----------------------------------*\
  =========                 |
  \\      /  F ield         | OpenFOAM: The Open Source CFD Toolbox
   \\    /   O peration     | Website:  https://openfoam.org
    \\  /    A nd           | Version:  7
     \\/     M anipulation  |
\*---------------------------------------------------------------------------*/
FoamFile
{
    version     2.0;
    format      ascii;
    class       volScalarField;
    location    "0.00021";
    object      HO2;
}
// * * * * * * * * * * * * * * * * * * * * * * * * * * * * * * * * * * * * * //

dimensions      [0 0 0 0 0 0 0];

internalField   nonuniform List<scalar> 
500
(
5.62333e-38
1.28582e-37
2.02147e-37
2.77135e-37
3.53908e-37
4.32811e-37
5.14075e-37
5.97744e-37
6.83595e-37
7.71057e-37
8.5918e-37
9.46645e-37
1.03186e-36
1.11312e-36
1.18877e-36
1.2574e-36
1.318e-36
1.37006e-36
1.41352e-36
1.44881e-36
1.47666e-36
1.49804e-36
1.51402e-36
1.52564e-36
1.53387e-36
1.53956e-36
1.5434e-36
1.54592e-36
1.54754e-36
1.54856e-36
1.54919e-36
1.54956e-36
1.54978e-36
1.54991e-36
1.54998e-36
1.55002e-36
1.55004e-36
1.55005e-36
1.55006e-36
1.55006e-36
1.55006e-36
1.55006e-36
1.55006e-36
1.55006e-36
1.55006e-36
1.55006e-36
1.55006e-36
1.55006e-36
1.55006e-36
1.55006e-36
1.55006e-36
1.55006e-36
1.55006e-36
1.55007e-36
1.55007e-36
1.55007e-36
1.55007e-36
1.55008e-36
1.55008e-36
1.55009e-36
1.55009e-36
1.5501e-36
1.55011e-36
1.55011e-36
1.55012e-36
1.55013e-36
1.55014e-36
1.55015e-36
1.55016e-36
1.55017e-36
1.55019e-36
1.5502e-36
1.55021e-36
1.55023e-36
1.55025e-36
1.55026e-36
1.55028e-36
1.5503e-36
1.55032e-36
1.55034e-36
1.55037e-36
1.55039e-36
1.55042e-36
1.55044e-36
1.55047e-36
1.5505e-36
1.55053e-36
1.55056e-36
1.5506e-36
1.55063e-36
1.55067e-36
1.5507e-36
1.55074e-36
1.55078e-36
1.55083e-36
1.55087e-36
1.55091e-36
1.55096e-36
1.55101e-36
1.55106e-36
1.55111e-36
1.55116e-36
1.55122e-36
1.55127e-36
1.55133e-36
1.55139e-36
1.55145e-36
1.55152e-36
1.55158e-36
1.55165e-36
1.55171e-36
1.55178e-36
1.55185e-36
1.55193e-36
1.552e-36
1.55208e-36
1.55215e-36
1.55223e-36
1.55231e-36
1.55239e-36
1.55245e-36
1.55246e-36
1.55229e-36
1.5515e-36
1.54919e-36
1.54544e-36
1.54202e-36
1.54047e-36
1.54004e-36
1.5401e-36
1.54039e-36
1.54084e-36
1.54142e-36
1.54216e-36
1.54304e-36
1.54407e-36
1.54522e-36
1.54644e-36
1.54768e-36
1.54889e-36
1.55002e-36
1.55105e-36
1.55194e-36
1.5527e-36
1.55332e-36
1.55381e-36
1.5542e-36
1.55451e-36
1.55474e-36
1.55493e-36
1.55507e-36
1.55519e-36
1.55529e-36
1.55538e-36
1.55546e-36
1.55552e-36
1.55559e-36
1.55564e-36
1.55569e-36
1.55573e-36
1.55577e-36
1.5558e-36
1.55583e-36
1.55585e-36
1.55586e-36
1.55586e-36
1.55586e-36
1.55584e-36
1.55582e-36
1.55579e-36
1.55575e-36
1.5557e-36
1.55564e-36
1.55556e-36
1.55548e-36
1.55538e-36
1.55527e-36
1.55515e-36
1.55501e-36
1.55486e-36
1.5547e-36
1.55452e-36
1.55432e-36
1.55411e-36
1.55388e-36
1.55363e-36
1.55336e-36
1.55308e-36
1.55278e-36
1.55245e-36
1.55211e-36
1.55174e-36
1.55136e-36
1.55095e-36
1.55052e-36
1.55007e-36
1.5496e-36
1.5491e-36
1.54857e-36
1.54803e-36
1.54746e-36
1.54686e-36
1.54624e-36
1.54559e-36
1.54492e-36
1.54422e-36
1.54349e-36
1.54274e-36
1.54196e-36
1.54115e-36
1.54032e-36
1.53946e-36
1.53857e-36
1.53766e-36
1.53672e-36
1.53576e-36
1.53477e-36
1.53375e-36
1.53271e-36
1.53164e-36
1.53055e-36
1.52943e-36
1.52829e-36
1.52713e-36
1.52595e-36
1.52475e-36
1.52356e-36
1.52256e-36
1.52272e-36
1.52996e-36
1.57924e-36
1.87752e-36
3.6464e-36
1.40789e-35
7.54207e-35
4.35141e-34
2.53919e-33
1.4816e-32
8.62914e-32
5.01652e-31
2.91205e-30
1.68877e-29
9.78915e-29
5.67453e-28
3.29072e-27
1.90962e-26
1.10919e-25
6.45139e-25
3.76001e-24
2.19665e-23
1.28341e-22
7.4e-22
4.21105e-21
2.36578e-20
1.31293e-19
7.18963e-19
3.87938e-18
2.05991e-17
1.07521e-16
5.51225e-16
2.77392e-15
1.36981e-14
6.63802e-14
3.15793e-13
1.47602e-12
6.78618e-12
3.07373e-11
1.37402e-10
6.07336e-10
2.65912e-09
1.1549e-08
4.97903e-08
2.12984e-07
9.01297e-07
3.7441e-06
1.50542e-05
5.64587e-05
0.000181282
0.000410499
0.000521692
0.000466896
0.000356157
0.000253771
0.00017795
0.000124453
8.69668e-05
6.1505e-05
4.2971e-05
3.21014e-05
2.51417e-05
2.06066e-05
1.75587e-05
1.54273e-05
1.38711e-05
1.26859e-05
1.17483e-05
1.0982e-05
1.0339e-05
9.78779e-06
9.3073e-06
8.88283e-06
8.5038e-06
8.16239e-06
7.85267e-06
7.57e-06
7.3107e-06
7.07179e-06
6.85082e-06
6.64576e-06
6.45492e-06
6.27688e-06
6.11052e-06
5.95955e-06
5.81926e-06
5.68608e-06
5.55941e-06
5.43871e-06
5.3235e-06
5.21334e-06
5.10781e-06
5.00653e-06
4.90918e-06
4.81542e-06
4.72497e-06
4.63755e-06
4.55291e-06
4.47083e-06
4.39107e-06
4.31343e-06
4.23773e-06
4.16378e-06
4.09142e-06
4.0205e-06
3.95087e-06
3.88241e-06
3.81498e-06
3.74849e-06
3.68283e-06
3.61791e-06
3.55365e-06
3.48999e-06
3.42686e-06
3.36423e-06
3.30206e-06
3.24032e-06
3.17901e-06
3.11812e-06
3.05766e-06
2.99766e-06
2.93815e-06
2.87916e-06
2.82076e-06
2.763e-06
2.70595e-06
2.64969e-06
2.5943e-06
2.53987e-06
2.48651e-06
2.43429e-06
2.38333e-06
2.33372e-06
2.28556e-06
2.23895e-06
2.19398e-06
2.15074e-06
2.10931e-06
2.06977e-06
2.03218e-06
1.9966e-06
1.96307e-06
1.93162e-06
1.90226e-06
1.87499e-06
1.84975e-06
1.82645e-06
1.80482e-06
1.78618e-06
1.76935e-06
1.75437e-06
1.74116e-06
1.72963e-06
1.7197e-06
1.71124e-06
1.70415e-06
1.69832e-06
1.69361e-06
1.68992e-06
1.68713e-06
1.68513e-06
1.6838e-06
1.68305e-06
1.68278e-06
1.6829e-06
1.68335e-06
1.68405e-06
1.68495e-06
1.68598e-06
1.68712e-06
1.68833e-06
1.68959e-06
1.69087e-06
1.69216e-06
1.69345e-06
1.69474e-06
1.69603e-06
1.69732e-06
1.69861e-06
1.69991e-06
1.70121e-06
1.70253e-06
1.70387e-06
1.70523e-06
1.70661e-06
1.70801e-06
1.70943e-06
1.71087e-06
1.71233e-06
1.7138e-06
1.71528e-06
1.71676e-06
1.71824e-06
1.71971e-06
1.72116e-06
1.72259e-06
1.72399e-06
1.72537e-06
1.7267e-06
1.72799e-06
1.72923e-06
1.73042e-06
1.73156e-06
1.73265e-06
1.73367e-06
1.73465e-06
1.73556e-06
1.73642e-06
1.73722e-06
1.73797e-06
1.73866e-06
1.7393e-06
1.73989e-06
1.74044e-06
1.74094e-06
1.7414e-06
1.74183e-06
1.74221e-06
1.74256e-06
1.74288e-06
1.74317e-06
1.74344e-06
1.74368e-06
1.74389e-06
1.74409e-06
1.74427e-06
1.74444e-06
1.74459e-06
1.74472e-06
1.74485e-06
1.74496e-06
1.74507e-06
1.74516e-06
1.74525e-06
1.74533e-06
1.74541e-06
1.74549e-06
1.74555e-06
1.74562e-06
1.74568e-06
1.74574e-06
1.74579e-06
1.74585e-06
1.7459e-06
1.74595e-06
1.746e-06
1.74605e-06
1.74609e-06
1.74614e-06
1.74618e-06
1.74622e-06
1.74627e-06
1.74631e-06
1.74635e-06
1.74639e-06
1.74643e-06
1.74647e-06
1.7465e-06
1.74654e-06
1.74658e-06
1.74662e-06
1.74665e-06
1.74669e-06
1.74672e-06
1.74675e-06
1.74679e-06
1.74682e-06
1.74685e-06
1.74688e-06
1.74691e-06
1.74693e-06
1.74695e-06
)
;

boundaryField
{
    boundary
    {
        type            empty;
    }
    inlet
    {
        type            fixedValue;
        value           uniform 0;
    }
    outlet
    {
        type            zeroGradient;
    }
}


// ************************************************************************* //
