/*--------------------------------*- C++ -*----------------------------------*\
  =========                 |
  \\      /  F ield         | OpenFOAM: The Open Source CFD Toolbox
   \\    /   O peration     | Website:  https://openfoam.org
    \\  /    A nd           | Version:  7
     \\/     M anipulation  |
\*---------------------------------------------------------------------------*/
FoamFile
{
    version     2.0;
    format      ascii;
    class       volScalarField;
    location    "0.00021";
    object      N2;
}
// * * * * * * * * * * * * * * * * * * * * * * * * * * * * * * * * * * * * * //

dimensions      [0 0 0 0 0 0 0];

internalField   nonuniform List<scalar> 
500
(
0.745219
0.745219
0.745219
0.745219
0.745219
0.745219
0.745219
0.745219
0.745219
0.745219
0.745219
0.745219
0.745219
0.745219
0.74522
0.74522
0.74522
0.74522
0.74522
0.74522
0.74522
0.74522
0.74522
0.74522
0.74522
0.74522
0.74522
0.74522
0.74522
0.74522
0.74522
0.74522
0.74522
0.74522
0.74522
0.74522
0.74522
0.74522
0.74522
0.74522
0.74522
0.74522
0.74522
0.74522
0.74522
0.74522
0.74522
0.74522
0.74522
0.74522
0.74522
0.74522
0.74522
0.74522
0.74522
0.74522
0.74522
0.74522
0.74522
0.74522
0.74522
0.74522
0.74522
0.74522
0.74522
0.74522
0.74522
0.74522
0.74522
0.74522
0.74522
0.74522
0.74522
0.74522
0.74522
0.74522
0.74522
0.74522
0.74522
0.74522
0.74522
0.74522
0.74522
0.74522
0.74522
0.74522
0.74522
0.74522
0.74522
0.74522
0.74522
0.74522
0.74522
0.74522
0.74522
0.74522
0.74522
0.74522
0.74522
0.74522
0.74522
0.74522
0.74522
0.74522
0.74522
0.74522
0.74522
0.74522
0.74522
0.74522
0.74522
0.74522
0.74522
0.74522
0.74522
0.74522
0.74522
0.74522
0.74522
0.74522
0.74522
0.74522
0.74522
0.74522
0.74522
0.74522
0.74522
0.74522
0.74522
0.74522
0.74522
0.74522
0.74522
0.74522
0.74522
0.74522
0.74522
0.74522
0.74522
0.74522
0.74522
0.74522
0.74522
0.74522
0.74522
0.74522
0.74522
0.74522
0.74522
0.74522
0.74522
0.74522
0.74522
0.74522
0.74522
0.74522
0.74522
0.74522
0.74522
0.74522
0.74522
0.74522
0.74522
0.74522
0.74522
0.74522
0.74522
0.74522
0.74522
0.74522
0.74522
0.74522
0.74522
0.74522
0.74522
0.74522
0.74522
0.74522
0.74522
0.74522
0.74522
0.74522
0.74522
0.74522
0.74522
0.74522
0.74522
0.74522
0.74522
0.74522
0.74522
0.74522
0.74522
0.74522
0.74522
0.74522
0.74522
0.74522
0.74522
0.74522
0.74522
0.74522
0.74522
0.74522
0.74522
0.74522
0.74522
0.74522
0.74522
0.74522
0.74522
0.74522
0.74522
0.74522
0.74522
0.74522
0.74522
0.74522
0.74522
0.74522
0.74522
0.74522
0.74522
0.74522
0.74522
0.74522
0.74522
0.74522
0.74522
0.74522
0.74522
0.74522
0.74522
0.74522
0.74522
0.74522
0.74522
0.74522
0.74522
0.74522
0.74522
0.74522
0.74522
0.74522
0.74522
0.74522
0.74522
0.74522
0.74522
0.74522
0.74522
0.74522
0.74522
0.74522
0.74522
0.74522
0.74522
0.74522
0.74522
0.74522
0.74522
0.74522
0.74522
0.74522
0.74522
0.74522
0.74522
0.74522
0.74522
0.745221
0.745223
0.745226
0.745234
0.745249
0.74528
0.745338
0.745438
0.745567
0.745625
0.745464
0.745114
0.744625
0.744056
0.743657
0.743635
0.743907
0.744177
0.744685
0.744925
0.745091
0.745195
0.745257
0.745292
0.74531
0.745318
0.745319
0.745316
0.74531
0.745304
0.745297
0.745291
0.745284
0.745277
0.745271
0.745265
0.745259
0.745253
0.745247
0.745241
0.745235
0.745229
0.745222
0.745216
0.745209
0.745203
0.745196
0.745189
0.745182
0.745176
0.745169
0.745162
0.745156
0.74515
0.745145
0.74514
0.745135
0.745132
0.745129
0.745127
0.745126
0.745126
0.745128
0.745131
0.745135
0.745141
0.745149
0.745158
0.745169
0.745182
0.745197
0.745214
0.745233
0.745254
0.745277
0.745301
0.745328
0.745356
0.745385
0.745416
0.745447
0.74548
0.745513
0.745546
0.745579
0.745613
0.745645
0.745677
0.745707
0.745735
0.745762
0.745787
0.745809
0.745828
0.745844
0.745857
0.745866
0.745871
0.745873
0.745871
0.745865
0.745855
0.745841
0.745823
0.745801
0.745774
0.745743
0.745714
0.745682
0.745648
0.745611
0.745573
0.745534
0.745494
0.745452
0.745411
0.745369
0.745327
0.745286
0.745246
0.745207
0.745169
0.745133
0.745099
0.745066
0.745036
0.745008
0.744982
0.744959
0.744939
0.744921
0.744906
0.744893
0.744883
0.744875
0.74487
0.744867
0.744866
0.744867
0.74487
0.744875
0.744881
0.744889
0.744898
0.744908
0.744919
0.744931
0.744943
0.744956
0.744969
0.744982
0.744996
0.745009
0.745022
0.745035
0.745048
0.74506
0.745072
0.745083
0.745094
0.745105
0.745114
0.745124
0.745132
0.74514
0.745148
0.745155
0.745161
0.745167
0.745173
0.745178
0.745182
0.745186
0.74519
0.745194
0.745197
0.745199
0.745202
0.745204
0.745206
0.745208
0.745209
0.745211
0.745212
0.745213
0.745214
0.745215
0.745215
0.745216
0.745216
0.745217
0.745217
0.745218
0.745218
0.745218
0.745218
0.745219
0.745219
0.745219
0.745219
0.745219
0.745219
0.745219
0.745219
0.745219
0.745219
0.745219
0.745219
0.745219
0.745219
0.745219
0.745219
0.745219
0.745219
0.745219
0.745219
0.745219
0.745219
0.745219
0.745219
0.74522
0.74522
0.74522
0.74522
0.74522
0.74522
0.74522
0.74522
0.74522
0.74522
0.74522
)
;

boundaryField
{
    boundary
    {
        type            empty;
    }
    inlet
    {
        type            fixedValue;
        value           uniform 0.74522;
    }
    outlet
    {
        type            zeroGradient;
    }
}


// ************************************************************************* //
