/*--------------------------------*- C++ -*----------------------------------*\
  =========                 |
  \\      /  F ield         | OpenFOAM: The Open Source CFD Toolbox
   \\    /   O peration     | Website:  https://openfoam.org
    \\  /    A nd           | Version:  7
     \\/     M anipulation  |
\*---------------------------------------------------------------------------*/
FoamFile
{
    version     2.0;
    format      ascii;
    class       volScalarField;
    location    "0.00021";
    object      O;
}
// * * * * * * * * * * * * * * * * * * * * * * * * * * * * * * * * * * * * * //

dimensions      [0 0 0 0 0 0 0];

internalField   nonuniform List<scalar> 
500
(
1.59559e-47
3.83508e-47
6.1296e-47
8.48405e-47
1.09121e-46
1.34275e-46
1.60403e-46
1.87545e-46
2.15658e-46
2.4459e-46
2.74066e-46
3.0369e-46
3.32964e-46
3.61328e-46
3.88211e-46
4.13089e-46
4.35541e-46
4.55283e-46
4.72187e-46
4.8628e-46
4.9772e-46
5.06763e-46
5.13728e-46
5.18957e-46
5.22785e-46
5.2552e-46
5.27428e-46
5.28728e-46
5.29594e-46
5.30158e-46
5.30518e-46
5.30742e-46
5.30879e-46
5.30961e-46
5.31009e-46
5.31036e-46
5.31051e-46
5.31059e-46
5.31063e-46
5.31064e-46
5.31065e-46
5.31065e-46
5.31064e-46
5.31064e-46
5.31063e-46
5.31062e-46
5.31062e-46
5.31061e-46
5.31061e-46
5.31061e-46
5.31061e-46
5.31061e-46
5.31061e-46
5.31062e-46
5.31062e-46
5.31063e-46
5.31064e-46
5.31065e-46
5.31066e-46
5.31068e-46
5.3107e-46
5.31072e-46
5.31074e-46
5.31077e-46
5.3108e-46
5.31083e-46
5.31087e-46
5.31091e-46
5.31095e-46
5.311e-46
5.31105e-46
5.31111e-46
5.31117e-46
5.31123e-46
5.3113e-46
5.31137e-46
5.31144e-46
5.31153e-46
5.31161e-46
5.3117e-46
5.3118e-46
5.3119e-46
5.31201e-46
5.31212e-46
5.31224e-46
5.31236e-46
5.31249e-46
5.31263e-46
5.31277e-46
5.31292e-46
5.31307e-46
5.31323e-46
5.3134e-46
5.31357e-46
5.31375e-46
5.31394e-46
5.31414e-46
5.31434e-46
5.31455e-46
5.31476e-46
5.31498e-46
5.31521e-46
5.31545e-46
5.31569e-46
5.31594e-46
5.3162e-46
5.31647e-46
5.31674e-46
5.31702e-46
5.31731e-46
5.3176e-46
5.3179e-46
5.31821e-46
5.31853e-46
5.31885e-46
5.31918e-46
5.31951e-46
5.31985e-46
5.32019e-46
5.32053e-46
5.32085e-46
5.32114e-46
5.32133e-46
5.32129e-46
5.32069e-46
5.31941e-46
5.31917e-46
5.3187e-46
5.31798e-46
5.317e-46
5.31582e-46
5.31451e-46
5.31324e-46
5.31215e-46
5.3114e-46
5.31114e-46
5.31143e-46
5.31228e-46
5.31365e-46
5.31543e-46
5.31746e-46
5.31962e-46
5.32177e-46
5.32379e-46
5.32563e-46
5.32724e-46
5.32861e-46
5.32976e-46
5.33071e-46
5.33149e-46
5.33213e-46
5.33267e-46
5.33313e-46
5.33352e-46
5.33386e-46
5.33416e-46
5.33443e-46
5.33466e-46
5.33488e-46
5.33506e-46
5.33521e-46
5.33534e-46
5.33544e-46
5.33551e-46
5.33554e-46
5.33554e-46
5.33551e-46
5.33544e-46
5.33533e-46
5.33517e-46
5.33498e-46
5.33473e-46
5.33444e-46
5.3341e-46
5.33371e-46
5.33326e-46
5.33275e-46
5.33219e-46
5.33157e-46
5.33088e-46
5.33012e-46
5.3293e-46
5.3284e-46
5.32743e-46
5.32639e-46
5.32526e-46
5.32406e-46
5.32277e-46
5.3214e-46
5.31994e-46
5.31839e-46
5.31675e-46
5.31501e-46
5.31318e-46
5.31125e-46
5.30921e-46
5.30708e-46
5.30484e-46
5.30249e-46
5.30003e-46
5.29747e-46
5.29479e-46
5.292e-46
5.2891e-46
5.28608e-46
5.28295e-46
5.2797e-46
5.27633e-46
5.27285e-46
5.26924e-46
5.26552e-46
5.26169e-46
5.25775e-46
5.25381e-46
5.25064e-46
5.25367e-46
5.30175e-46
5.66924e-46
8.27195e-46
2.6342e-45
1.50248e-44
9.90175e-44
6.61877e-43
4.39012e-42
2.8795e-41
1.8664e-40
1.19515e-39
7.55926e-39
4.72144e-38
2.91146e-37
1.77208e-36
1.06436e-35
6.3069e-35
3.68594e-34
2.12408e-33
1.20659e-32
6.75455e-32
3.72522e-31
2.02348e-30
1.0822e-29
5.69697e-29
2.95105e-28
1.50373e-27
7.53508e-27
3.71191e-26
1.79706e-25
8.54774e-25
3.99331e-24
1.83181e-23
8.24845e-23
3.64496e-22
1.5832e-21
6.73454e-21
2.80836e-20
1.14826e-19
4.60295e-19
1.80895e-18
6.96977e-18
2.63303e-17
9.75502e-17
3.54554e-16
1.26482e-15
4.43158e-15
1.52631e-14
5.17306e-14
1.72755e-13
5.69279e-13
1.85401e-12
5.97694e-12
1.91011e-11
6.05882e-11
1.90934e-10
5.98267e-10
1.86625e-09
5.81778e-09
1.83824e-08
6.18955e-08
2.53401e-07
1.4599e-06
1.02025e-05
5.68146e-05
0.000241751
0.000796322
0.0018573
0.00321239
0.00448507
0.00543517
0.00604384
0.00633514
0.00643372
0.00641132
0.00631738
0.00618393
0.00603078
0.00586983
0.005708
0.0055492
0.0053955
0.00524791
0.0051068
0.00497221
0.00484394
0.00472173
0.00460526
0.00449418
0.00438816
0.00428687
0.00419003
0.00409733
0.00400853
0.00392338
0.00384171
0.00376569
0.00369372
0.003624
0.00355636
0.00349067
0.0034268
0.00336463
0.00330404
0.00324493
0.0031872
0.00313074
0.00307548
0.00302132
0.00296818
0.00291599
0.00286467
0.00281417
0.00276441
0.00271535
0.00266694
0.00261913
0.00257187
0.00252515
0.00247892
0.00243317
0.00238787
0.00234301
0.00229859
0.0022546
0.00221104
0.00216791
0.00212523
0.00208301
0.00204127
0.00200001
0.00195927
0.00191907
0.00187942
0.00184036
0.00180191
0.0017641
0.00172694
0.00169045
0.00165466
0.00161957
0.00158521
0.00155158
0.00151869
0.00148653
0.00145512
0.00142443
0.00139446
0.0013652
0.00133664
0.00130875
0.00128151
0.00125489
0.00122888
0.00120344
0.00117855
0.00115416
0.00113026
0.00110681
0.0010838
0.00106128
0.0010392
0.00101752
0.000996225
0.000975302
0.000954736
0.000934519
0.000914645
0.000895109
0.000875912
0.000857055
0.000838542
0.000820379
0.000802573
0.000785131
0.000768062
0.000751375
0.000735078
0.000719181
0.000703691
0.000688618
0.000673967
0.000659744
0.000645956
0.000632607
0.000619699
0.000607234
0.000595215
0.00058364
0.000572509
0.000561819
0.000551568
0.000541751
0.000532363
0.000523399
0.000514851
0.000506714
0.000498977
0.000491634
0.000484674
0.000478089
0.000471867
0.000465998
0.000460471
0.000455275
0.000450399
0.000445831
0.000441558
0.000437569
0.000433851
0.000430393
0.000427182
0.000424206
0.000421454
0.000418913
0.000416571
0.000414418
0.000412443
0.000410633
0.000408979
0.00040747
0.000406097
0.00040485
0.00040372
0.000402698
0.000401775
0.000400944
0.000400198
0.000399529
0.000398931
0.000398397
0.000397922
0.0003975
0.000397126
0.000396796
0.000396504
0.000396248
0.000396024
0.000395827
0.000395656
0.000395507
0.000395378
0.000395266
0.00039517
0.000395088
0.000395017
0.000394957
0.000394906
0.000394863
0.000394827
0.000394797
0.000394772
0.000394751
0.000394734
0.000394721
0.00039471
0.000394701
0.000394695
0.00039469
0.000394687
0.000394685
0.000394684
0.000394684
0.000394684
0.000394685
0.000394687
0.000394689
0.000394691
0.000394693
0.000394696
0.000394699
0.000394701
0.000394704
0.000394707
0.00039471
0.000394713
0.000394716
0.000394719
0.000394721
0.000394724
0.000394726
0.000394729
0.00039473
0.000394731
)
;

boundaryField
{
    boundary
    {
        type            empty;
    }
    inlet
    {
        type            fixedValue;
        value           uniform 0;
    }
    outlet
    {
        type            zeroGradient;
    }
}


// ************************************************************************* //
