/*--------------------------------*- C++ -*----------------------------------*\
  =========                 |
  \\      /  F ield         | OpenFOAM: The Open Source CFD Toolbox
   \\    /   O peration     | Website:  https://openfoam.org
    \\  /    A nd           | Version:  7
     \\/     M anipulation  |
\*---------------------------------------------------------------------------*/
FoamFile
{
    version     2.0;
    format      ascii;
    class       volScalarField;
    location    "0.00021";
    object      O2;
}
// * * * * * * * * * * * * * * * * * * * * * * * * * * * * * * * * * * * * * //

dimensions      [0 0 0 0 0 0 0];

internalField   nonuniform List<scalar> 
500
(
0.226269
0.226269
0.226269
0.226269
0.226269
0.226269
0.226269
0.226269
0.226269
0.226269
0.226269
0.226269
0.226269
0.226269
0.226269
0.226269
0.226269
0.226269
0.226269
0.226269
0.226269
0.226269
0.226269
0.226269
0.226269
0.226269
0.226269
0.226269
0.226269
0.226269
0.226269
0.226269
0.226269
0.226269
0.226269
0.226269
0.226269
0.226269
0.226269
0.226269
0.226269
0.226269
0.226269
0.226269
0.226269
0.226269
0.226269
0.226269
0.226269
0.226269
0.226269
0.226269
0.226269
0.226269
0.226269
0.226269
0.226269
0.226269
0.226269
0.226269
0.226269
0.226269
0.226269
0.226269
0.226269
0.226269
0.226269
0.226269
0.226269
0.226269
0.226269
0.226269
0.226269
0.226269
0.226269
0.226269
0.226269
0.226269
0.226269
0.226269
0.226269
0.226269
0.226269
0.226269
0.226269
0.226269
0.226269
0.226269
0.226269
0.226269
0.226269
0.226269
0.226269
0.226269
0.226269
0.226269
0.226269
0.226269
0.226269
0.226269
0.226269
0.226269
0.226269
0.226269
0.226269
0.226269
0.226269
0.226269
0.226269
0.226269
0.226269
0.226269
0.226269
0.226269
0.226269
0.226269
0.226269
0.226269
0.226269
0.226269
0.226269
0.226269
0.226269
0.226269
0.226269
0.226269
0.226269
0.226269
0.226269
0.226269
0.226269
0.226269
0.226269
0.226269
0.226269
0.226269
0.226269
0.226269
0.226269
0.226269
0.226269
0.226269
0.226269
0.226269
0.226269
0.226269
0.226269
0.226269
0.226269
0.226269
0.226269
0.226269
0.226269
0.226269
0.226269
0.226269
0.226269
0.226269
0.226269
0.226269
0.226269
0.226269
0.226269
0.226269
0.226269
0.226269
0.226269
0.226269
0.226269
0.226269
0.226269
0.226269
0.226269
0.226269
0.226269
0.226269
0.226269
0.226269
0.226269
0.226269
0.226269
0.226269
0.226269
0.226269
0.226269
0.226269
0.226269
0.226269
0.226269
0.226269
0.226269
0.226269
0.226269
0.226269
0.226269
0.226269
0.226269
0.226269
0.226269
0.226269
0.226269
0.226269
0.226269
0.226269
0.226269
0.226269
0.226269
0.226269
0.226269
0.226269
0.226269
0.226269
0.226269
0.226269
0.226269
0.226269
0.226269
0.226269
0.226269
0.226269
0.226269
0.226269
0.226269
0.226269
0.226269
0.226269
0.226269
0.226269
0.226269
0.226269
0.226269
0.226269
0.226269
0.226269
0.226269
0.226269
0.226269
0.226269
0.226269
0.226269
0.226269
0.226269
0.226269
0.226269
0.226269
0.226269
0.226269
0.226269
0.226269
0.226269
0.226269
0.226269
0.226269
0.226269
0.226269
0.226269
0.226269
0.226269
0.226269
0.226269
0.226269
0.226269
0.226269
0.226269
0.226269
0.226269
0.226269
0.226269
0.226269
0.226269
0.22627
0.226271
0.226273
0.226276
0.226278
0.22626
0.226143
0.225632
0.223897
0.219271
0.209999
0.196907
0.180391
0.159242
0.134029
0.108529
0.0870581
0.0686904
0.0570049
0.0490712
0.0437143
0.0400464
0.0374627
0.035572
0.0341275
0.032975
0.0320181
0.0311963
0.030471
0.0298172
0.0292184
0.0286635
0.0281444
0.0276557
0.027193
0.0267532
0.0263336
0.0259322
0.0255472
0.0251773
0.0248212
0.0244782
0.0241576
0.0238508
0.0235512
0.023258
0.0229706
0.0226884
0.0224108
0.0221371
0.0218668
0.0215993
0.0213342
0.0210709
0.0208089
0.020548
0.0202875
0.0200272
0.0197668
0.0195058
0.0192441
0.0189815
0.0187176
0.0184524
0.0181858
0.0179176
0.0176479
0.0173767
0.017104
0.01683
0.0165549
0.0162787
0.0160019
0.0157246
0.0154472
0.01517
0.0148935
0.014618
0.014344
0.0140719
0.0138022
0.0135353
0.0132717
0.0130118
0.0127561
0.012505
0.0122588
0.0120179
0.0117826
0.0115533
0.0113301
0.0111133
0.0109031
0.0106996
0.0105028
0.0103128
0.0101296
0.00995318
0.00978351
0.00962045
0.00946387
0.00931359
0.00916932
0.00903064
0.00889681
0.00876633
0.00864758
0.00853312
0.00842369
0.00831917
0.0082194
0.00812424
0.00803355
0.00794719
0.00786504
0.007787
0.00771297
0.00764287
0.00757661
0.00751414
0.00745539
0.0074003
0.00734884
0.00730095
0.00725657
0.00721566
0.00717816
0.007144
0.00711311
0.00708543
0.00706086
0.00703931
0.00702069
0.00700487
0.00699176
0.00698121
0.0069731
0.00696728
0.00696361
0.00696193
0.00696209
0.00696393
0.00696728
0.00697199
0.00697789
0.00698482
0.00699263
0.00700118
0.00701032
0.00701991
0.00702982
0.00703994
0.00705016
0.00706039
0.00707052
0.00708049
0.00709023
0.00709968
0.00710879
0.00711752
0.00712585
0.00713374
0.0071412
0.00714821
0.00715476
0.00716087
0.00716653
0.00717177
0.00717659
0.00718101
0.00718505
0.00718873
0.00719207
0.0071951
0.00719783
0.00720028
0.00720249
0.00720446
0.00720621
0.00720778
0.00720916
0.00721039
0.00721148
0.00721243
0.00721327
0.00721401
0.00721465
0.00721522
0.00721571
0.00721614
0.00721651
0.00721684
0.00721712
0.00721736
0.00721757
0.00721776
0.00721792
0.00721806
0.00721818
0.00721828
0.00721838
0.00721846
0.00721853
0.00721859
0.00721865
0.0072187
0.00721875
0.00721879
0.00721883
0.00721886
0.00721889
0.00721893
0.00721895
0.00721898
0.007219
0.00721903
0.00721905
0.00721907
0.00721909
0.00721911
0.00721913
0.00721915
0.00721917
0.00721919
0.0072192
0.00721922
0.00721923
0.00721925
0.00721926
0.00721927
)
;

boundaryField
{
    boundary
    {
        type            empty;
    }
    inlet
    {
        type            fixedValue;
        value           uniform 0.226269;
    }
    outlet
    {
        type            zeroGradient;
    }
}


// ************************************************************************* //
