/*--------------------------------*- C++ -*----------------------------------*\
  =========                 |
  \\      /  F ield         | OpenFOAM: The Open Source CFD Toolbox
   \\    /   O peration     | Website:  https://openfoam.org
    \\  /    A nd           | Version:  7
     \\/     M anipulation  |
\*---------------------------------------------------------------------------*/
FoamFile
{
    version     2.0;
    format      ascii;
    class       surfaceScalarField;
    location    "0.00021";
    object      phi;
}
// * * * * * * * * * * * * * * * * * * * * * * * * * * * * * * * * * * * * * //

dimensions      [1 0 -1 0 0 0 0];

internalField   nonuniform List<scalar> 
499
(
6.92669e-06
6.92564e-06
6.92453e-06
6.92329e-06
6.92187e-06
6.92024e-06
6.91837e-06
6.91625e-06
6.91387e-06
6.91126e-06
6.90842e-06
6.9054e-06
6.90226e-06
6.89907e-06
6.8959e-06
6.89283e-06
6.88992e-06
6.88722e-06
6.88476e-06
6.88255e-06
6.8806e-06
6.87888e-06
6.87737e-06
6.87604e-06
6.87485e-06
6.87377e-06
6.87279e-06
6.87187e-06
6.871e-06
6.87016e-06
6.86935e-06
6.86855e-06
6.86776e-06
6.86698e-06
6.8662e-06
6.86543e-06
6.86466e-06
6.8639e-06
6.86313e-06
6.86236e-06
6.8616e-06
6.86084e-06
6.86008e-06
6.85932e-06
6.85856e-06
6.8578e-06
6.85704e-06
6.85629e-06
6.85553e-06
6.85478e-06
6.85403e-06
6.85328e-06
6.85253e-06
6.85178e-06
6.85103e-06
6.85029e-06
6.84954e-06
6.8488e-06
6.84806e-06
6.84732e-06
6.84658e-06
6.84585e-06
6.84511e-06
6.84438e-06
6.84364e-06
6.84291e-06
6.84218e-06
6.84146e-06
6.84073e-06
6.84001e-06
6.83928e-06
6.83856e-06
6.83784e-06
6.83712e-06
6.83641e-06
6.83569e-06
6.83498e-06
6.83427e-06
6.83356e-06
6.83285e-06
6.83215e-06
6.83144e-06
6.83074e-06
6.83004e-06
6.82934e-06
6.82864e-06
6.82795e-06
6.82726e-06
6.82656e-06
6.82587e-06
6.82519e-06
6.8245e-06
6.82382e-06
6.82314e-06
6.82246e-06
6.82178e-06
6.8211e-06
6.82043e-06
6.81976e-06
6.81909e-06
6.81842e-06
6.81776e-06
6.81709e-06
6.81643e-06
6.81577e-06
6.81512e-06
6.81446e-06
6.81381e-06
6.81316e-06
6.81251e-06
6.81187e-06
6.81122e-06
6.81058e-06
6.80994e-06
6.80931e-06
6.80867e-06
6.80804e-06
6.80741e-06
6.80678e-06
6.80616e-06
6.80554e-06
6.80492e-06
6.8043e-06
6.80369e-06
6.80308e-06
6.80247e-06
6.80186e-06
6.80126e-06
6.80066e-06
6.80006e-06
6.79946e-06
6.79887e-06
6.79828e-06
6.79769e-06
6.79711e-06
6.79652e-06
6.79594e-06
6.79536e-06
6.79479e-06
6.79422e-06
6.79364e-06
6.79308e-06
6.79251e-06
6.79195e-06
6.79139e-06
6.79083e-06
6.79028e-06
6.78973e-06
6.78918e-06
6.78863e-06
6.78809e-06
6.78755e-06
6.78702e-06
6.78648e-06
6.78595e-06
6.78542e-06
6.7849e-06
6.78437e-06
6.78385e-06
6.78334e-06
6.78282e-06
6.78231e-06
6.7818e-06
6.7813e-06
6.7808e-06
6.7803e-06
6.7798e-06
6.7793e-06
6.77881e-06
6.77832e-06
6.77784e-06
6.77736e-06
6.77688e-06
6.7764e-06
6.77592e-06
6.77545e-06
6.77498e-06
6.77452e-06
6.77405e-06
6.77359e-06
6.77313e-06
6.77268e-06
6.77223e-06
6.77178e-06
6.77133e-06
6.77089e-06
6.77045e-06
6.77001e-06
6.76957e-06
6.76914e-06
6.76871e-06
6.76828e-06
6.76786e-06
6.76744e-06
6.76702e-06
6.7666e-06
6.76619e-06
6.76578e-06
6.76537e-06
6.76497e-06
6.76457e-06
6.76417e-06
6.76377e-06
6.76338e-06
6.76299e-06
6.7626e-06
6.76222e-06
6.76183e-06
6.76146e-06
6.76108e-06
6.76071e-06
6.76033e-06
6.75997e-06
6.7596e-06
6.75924e-06
6.75888e-06
6.75852e-06
6.75816e-06
6.75781e-06
6.75746e-06
6.75711e-06
6.75677e-06
6.75643e-06
6.75609e-06
6.75575e-06
6.75541e-06
6.75508e-06
6.75475e-06
6.75442e-06
6.75409e-06
6.75377e-06
6.75344e-06
6.75312e-06
6.7528e-06
6.75248e-06
6.75217e-06
6.75185e-06
6.75154e-06
6.75123e-06
6.75092e-06
6.75061e-06
6.75031e-06
6.75e-06
6.7497e-06
6.7494e-06
6.74909e-06
6.74879e-06
6.7485e-06
6.7482e-06
6.7479e-06
6.74761e-06
6.74731e-06
6.74702e-06
6.74673e-06
6.74644e-06
6.74615e-06
6.74587e-06
6.74558e-06
6.7453e-06
6.74501e-06
6.74473e-06
6.74445e-06
6.74417e-06
6.74389e-06
6.74362e-06
6.74334e-06
6.74307e-06
6.74279e-06
6.74252e-06
6.74226e-06
6.74202e-06
6.74183e-06
6.7418e-06
6.74223e-06
6.744e-06
6.74951e-06
6.76515e-06
6.80441e-06
6.87814e-06
6.96466e-06
7.03168e-06
7.07514e-06
7.10361e-06
7.12324e-06
7.13678e-06
7.14509e-06
7.15095e-06
7.15643e-06
7.16114e-06
7.16477e-06
7.16769e-06
7.1701e-06
7.17213e-06
7.17386e-06
7.17536e-06
7.17667e-06
7.17782e-06
7.17884e-06
7.17973e-06
7.18053e-06
7.18123e-06
7.18186e-06
7.18241e-06
7.1829e-06
7.18334e-06
7.18373e-06
7.18408e-06
7.18441e-06
7.18471e-06
7.18501e-06
7.18529e-06
7.18558e-06
7.18586e-06
7.18615e-06
7.18646e-06
7.1868e-06
7.18716e-06
7.18757e-06
7.18801e-06
7.18849e-06
7.18902e-06
7.1896e-06
7.19024e-06
7.19093e-06
7.19169e-06
7.1925e-06
7.19338e-06
7.19431e-06
7.19531e-06
7.19637e-06
7.19749e-06
7.19865e-06
7.19986e-06
7.20111e-06
7.20238e-06
7.20367e-06
7.20496e-06
7.20622e-06
7.20745e-06
7.20862e-06
7.2097e-06
7.21066e-06
7.21147e-06
7.21211e-06
7.21252e-06
7.21267e-06
7.21252e-06
7.21203e-06
7.21114e-06
7.20982e-06
7.20802e-06
7.2057e-06
7.2028e-06
7.19929e-06
7.19513e-06
7.19028e-06
7.1847e-06
7.17838e-06
7.17128e-06
7.1634e-06
7.15472e-06
7.14525e-06
7.13499e-06
7.12395e-06
7.11215e-06
7.09964e-06
7.08644e-06
7.0726e-06
7.05818e-06
7.04324e-06
7.02783e-06
7.01204e-06
6.99594e-06
6.9796e-06
6.96311e-06
6.94654e-06
6.92998e-06
6.91352e-06
6.89723e-06
6.88118e-06
6.86546e-06
6.85012e-06
6.83524e-06
6.82087e-06
6.80706e-06
6.79387e-06
6.78132e-06
6.76947e-06
6.75834e-06
6.74794e-06
6.7383e-06
6.72942e-06
6.72131e-06
6.71396e-06
6.70736e-06
6.70151e-06
6.69637e-06
6.69192e-06
6.68815e-06
6.68501e-06
6.68247e-06
6.68049e-06
6.67904e-06
6.67808e-06
6.67756e-06
6.67745e-06
6.6777e-06
6.67827e-06
6.67913e-06
6.68024e-06
6.68156e-06
6.68305e-06
6.68469e-06
6.68644e-06
6.68827e-06
6.69017e-06
6.6921e-06
6.69404e-06
6.69598e-06
6.6979e-06
6.69978e-06
6.70162e-06
6.70339e-06
6.70511e-06
6.70674e-06
6.7083e-06
6.70978e-06
6.71117e-06
6.71248e-06
6.7137e-06
6.71483e-06
6.71588e-06
6.71685e-06
6.71774e-06
6.71854e-06
6.71928e-06
6.71994e-06
6.72053e-06
6.72106e-06
6.72153e-06
6.72195e-06
6.72231e-06
6.72262e-06
6.72289e-06
6.72311e-06
6.7233e-06
6.72345e-06
6.72357e-06
6.72366e-06
6.72372e-06
6.72376e-06
6.72378e-06
6.72378e-06
6.72376e-06
6.72372e-06
6.72367e-06
6.72361e-06
6.72353e-06
6.72345e-06
6.72335e-06
6.72325e-06
6.72314e-06
6.72302e-06
6.7229e-06
6.72278e-06
6.72265e-06
6.72251e-06
6.72238e-06
6.72224e-06
6.72209e-06
6.72195e-06
6.7218e-06
6.72165e-06
6.7215e-06
6.72135e-06
6.7212e-06
6.72104e-06
6.72089e-06
6.72073e-06
6.72058e-06
6.72042e-06
6.72026e-06
6.7201e-06
6.71994e-06
6.71978e-06
6.71962e-06
6.71946e-06
6.7193e-06
6.71914e-06
6.71897e-06
6.71881e-06
6.71865e-06
6.71848e-06
6.71832e-06
6.71816e-06
6.71799e-06
6.71783e-06
6.71766e-06
6.71749e-06
)
;

boundaryField
{
    boundary
    {
        type            empty;
        value           nonuniform 0();
    }
    inlet
    {
        type            calculated;
        value           uniform -6.92776e-06;
    }
    outlet
    {
        type            calculated;
        value           uniform 6.71733e-06;
    }
}


// ************************************************************************* //
