/*--------------------------------*- C++ -*----------------------------------*\
  =========                 |
  \\      /  F ield         | OpenFOAM: The Open Source CFD Toolbox
   \\    /   O peration     | Website:  https://openfoam.org
    \\  /    A nd           | Version:  7
     \\/     M anipulation  |
\*---------------------------------------------------------------------------*/
FoamFile
{
    version     2.0;
    format      ascii;
    class       volScalarField;
    location    "0.00021";
    object      rho;
}
// * * * * * * * * * * * * * * * * * * * * * * * * * * * * * * * * * * * * * //

dimensions      [1 -3 0 0 0 0 0];

internalField   nonuniform List<scalar> 
500
(
0.86435
0.864311
0.864259
0.864188
0.864093
0.86397
0.863816
0.863632
0.863417
0.863173
0.862906
0.862621
0.862326
0.86203
0.861742
0.861469
0.86122
0.860999
0.860808
0.860648
0.860517
0.860414
0.860334
0.860274
0.86023
0.860198
0.860176
0.860161
0.860151
0.860145
0.860141
0.860138
0.860136
0.860135
0.860135
0.860134
0.860134
0.860134
0.860134
0.860134
0.860134
0.860134
0.860134
0.860134
0.860134
0.860134
0.860133
0.860133
0.860133
0.860133
0.860133
0.860133
0.860133
0.860133
0.860133
0.860133
0.860133
0.860133
0.860133
0.860133
0.860132
0.860132
0.860132
0.860132
0.860132
0.860132
0.860132
0.860132
0.860131
0.860131
0.860131
0.860131
0.860131
0.860131
0.860131
0.86013
0.86013
0.86013
0.86013
0.86013
0.860129
0.860129
0.860129
0.860129
0.860128
0.860128
0.860128
0.860128
0.860127
0.860127
0.860127
0.860126
0.860126
0.860126
0.860125
0.860125
0.860125
0.860124
0.860124
0.860123
0.860123
0.860123
0.860122
0.860122
0.860121
0.860121
0.86012
0.86012
0.860119
0.860119
0.860118
0.860118
0.860117
0.860117
0.860116
0.860116
0.860115
0.860114
0.860114
0.860113
0.860113
0.860112
0.860111
0.860111
0.86011
0.860109
0.860109
0.860108
0.860108
0.860107
0.860107
0.860106
0.860106
0.860105
0.860104
0.860104
0.860103
0.860102
0.860101
0.860101
0.8601
0.860099
0.860098
0.860097
0.860096
0.860096
0.860095
0.860094
0.860093
0.860093
0.860092
0.860092
0.860091
0.86009
0.86009
0.860089
0.860089
0.860089
0.860088
0.860088
0.860087
0.860087
0.860087
0.860087
0.860086
0.860086
0.860086
0.860086
0.860086
0.860086
0.860087
0.860087
0.860087
0.860087
0.860088
0.860088
0.860089
0.86009
0.86009
0.860091
0.860092
0.860093
0.860094
0.860096
0.860097
0.860099
0.8601
0.860102
0.860104
0.860106
0.860108
0.86011
0.860112
0.860115
0.860118
0.86012
0.860123
0.860126
0.86013
0.860133
0.860136
0.86014
0.860144
0.860148
0.860152
0.860157
0.860161
0.860166
0.860171
0.860176
0.860181
0.860186
0.860192
0.860198
0.860203
0.860209
0.860216
0.860222
0.860229
0.860235
0.860242
0.860249
0.860256
0.860264
0.860271
0.860279
0.860286
0.860294
0.860302
0.86031
0.860319
0.860327
0.860335
0.860344
0.860353
0.860361
0.86037
0.860379
0.860388
0.860397
0.860406
0.860415
0.860425
0.860434
0.860443
0.860453
0.860462
0.860471
0.860481
0.860491
0.8605
0.86051
0.86052
0.86053
0.86054
0.86055
0.86056
0.86057
0.860581
0.860591
0.860602
0.860612
0.860623
0.860634
0.860645
0.860656
0.860667
0.86068
0.860692
0.860703
0.860705
0.860672
0.860519
0.859982
0.858257
0.852985
0.837575
0.796178
0.7059
0.572722
0.447384
0.359772
0.302907
0.264297
0.236914
0.217569
0.20355
0.193041
0.185519
0.179924
0.175494
0.171897
0.168905
0.166365
0.164174
0.162258
0.160563
0.159049
0.157686
0.156451
0.155325
0.154292
0.153341
0.152461
0.151644
0.150884
0.150173
0.149508
0.148884
0.148297
0.147744
0.147224
0.146746
0.146302
0.145876
0.14547
0.145081
0.144709
0.144353
0.144012
0.143684
0.143371
0.143069
0.14278
0.142502
0.142236
0.141979
0.141733
0.141496
0.141268
0.141048
0.140837
0.140633
0.140436
0.140245
0.140061
0.139882
0.139707
0.139537
0.13937
0.139206
0.139044
0.138883
0.138722
0.138561
0.138399
0.138235
0.138067
0.137895
0.137718
0.137536
0.137347
0.13715
0.136945
0.136731
0.136508
0.136275
0.136031
0.135777
0.135511
0.135235
0.134948
0.134651
0.134343
0.134026
0.1337
0.133366
0.133025
0.132678
0.132326
0.13197
0.131612
0.131252
0.130892
0.130533
0.130177
0.129829
0.129487
0.129152
0.128825
0.128509
0.128202
0.127908
0.127626
0.127357
0.127102
0.126861
0.126635
0.126424
0.126228
0.126047
0.125882
0.125731
0.125595
0.125473
0.125365
0.12527
0.125189
0.125119
0.125061
0.125013
0.124976
0.124947
0.124928
0.124915
0.12491
0.124912
0.124918
0.12493
0.124945
0.124964
0.124986
0.125011
0.125037
0.125065
0.125094
0.125123
0.125153
0.125182
0.125211
0.12524
0.125268
0.125295
0.125321
0.125346
0.12537
0.125393
0.125414
0.125434
0.125453
0.12547
0.125487
0.125502
0.125515
0.125528
0.12554
0.12555
0.12556
0.125569
0.125577
0.125584
0.12559
0.125596
0.125601
0.125605
0.125609
0.125612
0.125615
0.125618
0.12562
0.125622
0.125624
0.125625
0.125626
0.125627
0.125628
0.125629
0.125629
0.125629
0.12563
0.12563
0.12563
0.12563
0.125629
0.125629
0.125629
0.125629
0.125629
0.125628
0.125628
0.125627
0.125627
0.125627
0.125626
0.125626
0.125625
0.125625
0.125625
0.125624
0.125624
0.125623
0.125623
0.125622
0.125622
0.125622
0.125621
0.125621
0.12562
0.12562
0.12562
0.125619
0.125619
0.125618
0.125618
0.125618
0.125617
0.125617
0.125617
0.125616
0.125616
)
;

boundaryField
{
    boundary
    {
        type            empty;
    }
    inlet
    {
        type            calculated;
        value           uniform 0.864377;
    }
    outlet
    {
        type            calculated;
        value           uniform 0.125616;
    }
}


// ************************************************************************* //
