/*--------------------------------*- C++ -*----------------------------------*\
  =========                 |
  \\      /  F ield         | OpenFOAM: The Open Source CFD Toolbox
   \\    /   O peration     | Website:  https://openfoam.org
    \\  /    A nd           | Version:  7
     \\/     M anipulation  |
\*---------------------------------------------------------------------------*/
FoamFile
{
    version     2.0;
    format      ascii;
    class       volScalarField;
    location    "9e-05";
    object      H2O2;
}
// * * * * * * * * * * * * * * * * * * * * * * * * * * * * * * * * * * * * * //

dimensions      [0 0 0 0 0 0 0];

internalField   nonuniform List<scalar> 
125
(
1.4406e-29
1.73943e-28
2.04259e-27
2.35118e-26
2.65143e-25
2.92692e-24
3.1601e-23
3.33388e-22
3.43345e-21
3.44817e-20
3.37315e-19
3.2103e-18
2.96855e-17
2.6632e-16
2.31434e-15
1.94463e-14
1.57671e-13
1.23076e-12
9.22503e-12
6.61981e-11
4.53271e-10
2.95051e-09
1.81838e-08
1.05597e-07
5.73881e-07
2.87643e-06
1.27632e-05
4.4739e-05
9.84976e-05
0.000129806
0.000115164
6.53669e-05
2.79158e-05
1.11973e-05
5.66515e-06
4.43621e-06
4.65237e-06
5.24698e-06
5.81913e-06
6.23804e-06
6.48687e-06
6.59081e-06
6.58459e-06
6.49973e-06
6.36103e-06
6.18663e-06
5.98932e-06
5.77785e-06
5.5581e-06
5.33393e-06
5.10786e-06
4.88148e-06
4.65582e-06
4.43154e-06
4.20915e-06
3.9891e-06
3.77187e-06
3.55798e-06
3.3481e-06
3.14299e-06
2.94356e-06
2.75659e-06
2.57882e-06
2.4073e-06
2.24267e-06
2.08549e-06
1.93624e-06
1.79528e-06
1.66285e-06
1.53904e-06
1.42383e-06
1.31707e-06
1.21852e-06
1.12785e-06
1.04466e-06
9.68538e-07
8.9901e-07
8.35607e-07
7.77858e-07
7.25301e-07
6.77494e-07
6.34018e-07
5.94477e-07
5.58507e-07
5.2577e-07
4.95961e-07
4.68797e-07
4.44028e-07
4.21424e-07
4.0078e-07
3.81913e-07
3.64658e-07
3.48867e-07
3.34408e-07
3.21164e-07
3.09029e-07
2.97909e-07
2.8772e-07
2.78385e-07
2.69836e-07
2.6201e-07
2.54852e-07
2.4831e-07
2.42337e-07
2.36891e-07
2.31931e-07
2.27421e-07
2.23325e-07
2.19614e-07
2.16255e-07
2.13222e-07
2.10489e-07
2.0803e-07
2.05823e-07
2.03845e-07
2.02077e-07
2.005e-07
1.99095e-07
1.97848e-07
1.96742e-07
1.95763e-07
1.94899e-07
1.94135e-07
1.93448e-07
1.92779e-07
)
;

boundaryField
{
    boundary
    {
        type            empty;
    }
    inlet
    {
        type            fixedValue;
        value           nonuniform 0();
    }
    outlet
    {
        type            zeroGradient;
    }
    procBoundary1to0
    {
        type            processor;
        value           uniform 1.92192e-07;
    }
    procBoundary1to3
    {
        type            processor;
        value           uniform 9.59413e-31;
    }
}


// ************************************************************************* //
