/*--------------------------------*- C++ -*----------------------------------*\
  =========                 |
  \\      /  F ield         | OpenFOAM: The Open Source CFD Toolbox
   \\    /   O peration     | Website:  https://openfoam.org
    \\  /    A nd           | Version:  7
     \\/     M anipulation  |
\*---------------------------------------------------------------------------*/
FoamFile
{
    version     2.0;
    format      ascii;
    class       volScalarField;
    location    "9e-05";
    object      HO2;
}
// * * * * * * * * * * * * * * * * * * * * * * * * * * * * * * * * * * * * * //

dimensions      [0 0 0 0 0 0 0];

internalField   nonuniform List<scalar> 
125
(
2.10179e-24
1.19924e-23
6.82472e-23
3.90695e-22
2.25526e-21
1.31505e-20
7.76038e-20
4.64272e-19
2.81948e-18
1.73873e-17
1.08778e-16
6.88618e-16
4.3928e-15
2.80855e-14
1.7886e-13
1.1273e-12
6.98783e-12
4.23543e-11
2.49707e-10
1.42531e-09
7.84335e-09
4.14287e-08
2.09076e-07
1.0019e-06
4.51774e-06
1.88606e-05
7.02747e-05
0.000214928
0.000443899
0.00052055
0.000451278
0.000338681
0.00024016
0.000168236
0.000117458
8.17526e-05
5.7349e-05
4.12805e-05
3.09249e-05
2.42458e-05
1.98507e-05
1.68583e-05
1.47321e-05
1.31508e-05
1.19213e-05
1.09265e-05
1.00938e-05
9.37719e-06
8.74671e-06
8.18223e-06
7.66991e-06
7.19998e-06
6.76543e-06
6.36113e-06
5.9833e-06
5.62914e-06
5.2966e-06
4.98416e-06
4.6907e-06
4.41548e-06
4.15802e-06
3.92521e-06
3.71069e-06
3.50982e-06
3.32245e-06
3.14838e-06
2.98743e-06
2.83936e-06
2.70388e-06
2.58064e-06
2.46923e-06
2.36918e-06
2.27992e-06
2.20084e-06
2.13127e-06
2.0705e-06
2.01776e-06
1.97229e-06
1.9333e-06
1.90005e-06
1.87178e-06
1.84782e-06
1.82751e-06
1.81028e-06
1.79563e-06
1.7831e-06
1.77233e-06
1.763e-06
1.75488e-06
1.74777e-06
1.74152e-06
1.73602e-06
1.7312e-06
1.72699e-06
1.72337e-06
1.72028e-06
1.71772e-06
1.71565e-06
1.71405e-06
1.71289e-06
1.71214e-06
1.71177e-06
1.71174e-06
1.71201e-06
1.71254e-06
1.7133e-06
1.71424e-06
1.71533e-06
1.71653e-06
1.7178e-06
1.71912e-06
1.72046e-06
1.7218e-06
1.72311e-06
1.72439e-06
1.72562e-06
1.72679e-06
1.7279e-06
1.72895e-06
1.72994e-06
1.73088e-06
1.73179e-06
1.73269e-06
1.73363e-06
1.73461e-06
)
;

boundaryField
{
    boundary
    {
        type            empty;
    }
    inlet
    {
        type            fixedValue;
        value           nonuniform 0();
    }
    outlet
    {
        type            zeroGradient;
    }
    procBoundary1to0
    {
        type            processor;
        value           uniform 1.73548e-06;
    }
    procBoundary1to3
    {
        type            processor;
        value           uniform 3.5882e-25;
    }
}


// ************************************************************************* //
