/*--------------------------------*- C++ -*----------------------------------*\
  =========                 |
  \\      /  F ield         | OpenFOAM: The Open Source CFD Toolbox
   \\    /   O peration     | Website:  https://openfoam.org
    \\  /    A nd           | Version:  7
     \\/     M anipulation  |
\*---------------------------------------------------------------------------*/
FoamFile
{
    version     2.0;
    format      ascii;
    class       volScalarField;
    location    "9e-05";
    object      p;
}
// * * * * * * * * * * * * * * * * * * * * * * * * * * * * * * * * * * * * * //

dimensions      [1 -1 -2 0 0 0 0];

internalField   nonuniform List<scalar> 
125
(
102888
102888
102888
102889
102889
102890
102890
102890
102891
102891
102892
102892
102892
102893
102893
102894
102894
102894
102895
102895
102896
102896
102896
102897
102897
102897
102898
102898
102898
102897
102896
102894
102892
102890
102888
102886
102885
102883
102882
102882
102881
102880
102880
102880
102879
102879
102879
102879
102878
102878
102878
102878
102878
102878
102877
102877
102877
102877
102877
102877
102877
102877
102877
102877
102877
102877
102877
102877
102876
102876
102876
102876
102876
102876
102876
102876
102876
102876
102876
102876
102876
102876
102876
102876
102876
102876
102875
102875
102875
102875
102875
102875
102875
102875
102875
102875
102875
102875
102875
102875
102875
102875
102874
102874
102874
102874
102874
102874
102874
102874
102874
102874
102874
102874
102874
102873
102873
102873
102873
102873
102873
102873
102873
102873
102873
)
;

boundaryField
{
    boundary
    {
        type            empty;
    }
    inlet
    {
        type            zeroGradient;
    }
    outlet
    {
        type            waveTransmissive;
        gamma           1.4;
        value           nonuniform 0();
    }
    procBoundary1to0
    {
        type            processor;
        value           uniform 102873;
    }
    procBoundary1to3
    {
        type            processor;
        value           uniform 102887;
    }
}


// ************************************************************************* //
