/*--------------------------------*- C++ -*----------------------------------*\
  =========                 |
  \\      /  F ield         | OpenFOAM: The Open Source CFD Toolbox
   \\    /   O peration     | Website:  https://openfoam.org
    \\  /    A nd           | Version:  7
     \\/     M anipulation  |
\*---------------------------------------------------------------------------*/
FoamFile
{
    version     2.0;
    format      ascii;
    class       surfaceScalarField;
    location    "9e-05";
    object      phi;
}
// * * * * * * * * * * * * * * * * * * * * * * * * * * * * * * * * * * * * * //

dimensions      [1 0 -1 0 0 0 0];

internalField   nonuniform List<scalar> 
124
(
6.74372e-06
6.74346e-06
6.74319e-06
6.74291e-06
6.74261e-06
6.74229e-06
6.74197e-06
6.74164e-06
6.74129e-06
6.74093e-06
6.74056e-06
6.74017e-06
6.73977e-06
6.73935e-06
6.73891e-06
6.73845e-06
6.73797e-06
6.73747e-06
6.73695e-06
6.7364e-06
6.73583e-06
6.73533e-06
6.73512e-06
6.73602e-06
6.74023e-06
6.75299e-06
6.78332e-06
6.83816e-06
6.90847e-06
6.97167e-06
7.01521e-06
7.04249e-06
7.06022e-06
7.07259e-06
7.0815e-06
7.0879e-06
7.0925e-06
7.09594e-06
7.09873e-06
7.10123e-06
7.10366e-06
7.10612e-06
7.10864e-06
7.11114e-06
7.1135e-06
7.11555e-06
7.11708e-06
7.11785e-06
7.11758e-06
7.116e-06
7.11279e-06
7.10765e-06
7.10028e-06
7.09042e-06
7.07781e-06
7.06225e-06
7.0436e-06
7.02179e-06
6.99679e-06
6.96868e-06
6.93759e-06
6.90581e-06
6.87163e-06
6.83531e-06
6.79712e-06
6.75739e-06
6.71646e-06
6.67468e-06
6.63243e-06
6.59007e-06
6.54796e-06
6.50644e-06
6.46583e-06
6.42641e-06
6.38844e-06
6.35216e-06
6.31775e-06
6.28537e-06
6.25514e-06
6.22714e-06
6.20142e-06
6.17801e-06
6.1569e-06
6.13805e-06
6.12139e-06
6.10685e-06
6.09434e-06
6.08373e-06
6.07491e-06
6.06774e-06
6.06207e-06
6.05778e-06
6.05472e-06
6.05274e-06
6.05171e-06
6.05149e-06
6.05197e-06
6.05302e-06
6.05455e-06
6.05644e-06
6.0586e-06
6.06097e-06
6.06347e-06
6.06604e-06
6.06862e-06
6.07118e-06
6.07367e-06
6.07607e-06
6.07836e-06
6.08052e-06
6.08253e-06
6.0844e-06
6.08611e-06
6.08766e-06
6.08906e-06
6.0903e-06
6.09141e-06
6.09237e-06
6.0932e-06
6.0939e-06
6.09449e-06
6.09497e-06
6.09535e-06
6.09565e-06
)
;

boundaryField
{
    boundary
    {
        type            empty;
        value           nonuniform 0();
    }
    inlet
    {
        type            calculated;
        value           nonuniform 0();
    }
    outlet
    {
        type            calculated;
        value           nonuniform 0();
    }
    procBoundary1to0
    {
        type            processor;
        value           uniform 6.09588e-06;
    }
    procBoundary1to3
    {
        type            processor;
        value           uniform -6.74396e-06;
    }
}


// ************************************************************************* //
