/*--------------------------------*- C++ -*----------------------------------*\
  =========                 |
  \\      /  F ield         | OpenFOAM: The Open Source CFD Toolbox
   \\    /   O peration     | Website:  https://openfoam.org
    \\  /    A nd           | Version:  7
     \\/     M anipulation  |
\*---------------------------------------------------------------------------*/
FoamFile
{
    version     2.0;
    format      ascii;
    class       volScalarField;
    location    "9e-05";
    object      Qdot;
}
// * * * * * * * * * * * * * * * * * * * * * * * * * * * * * * * * * * * * * //

dimensions      [1 -1 -3 0 0 0 0];

internalField   nonuniform List<scalar> 
125
(
1.34466e-14
9.57944e-14
6.74705e-13
4.69045e-12
3.21465e-11
2.1697e-10
1.44072e-09
9.40312e-09
6.02717e-08
3.79123e-07
2.33877e-06
1.41416e-05
8.37837e-05
0.000486197
0.00276396
0.0153978
0.0841391
0.451727
2.38927
12.4988
68.1628
397.508
2642.38
19655.1
169986
1.56692e+06
1.5134e+07
1.40388e+08
1.05906e+09
4.69327e+09
1.0379e+10
1.32909e+10
1.37408e+10
1.37342e+10
1.35323e+10
1.25987e+10
1.09365e+10
9.07715e+09
7.42731e+09
6.11091e+09
5.10082e+09
4.32929e+09
3.7328e+09
3.26269e+09
2.88426e+09
2.57328e+09
2.31284e+09
2.091e+09
1.89923e+09
1.73129e+09
1.58257e+09
1.44957e+09
1.32965e+09
1.22075e+09
1.12129e+09
1.03002e+09
9.45954e+08
8.68344e+08
7.96575e+08
7.30185e+08
6.68883e+08
6.13798e+08
5.63476e+08
5.16523e+08
4.72886e+08
4.3237e+08
3.94814e+08
3.60063e+08
3.27965e+08
2.98369e+08
2.71126e+08
2.4609e+08
2.23116e+08
2.02061e+08
1.82787e+08
1.65165e+08
1.49068e+08
1.34378e+08
1.20983e+08
1.08782e+08
9.76756e+07
8.75751e+07
7.83996e+07
7.00729e+07
6.25259e+07
5.5694e+07
4.95178e+07
4.39424e+07
3.89171e+07
3.43946e+07
3.03313e+07
2.66868e+07
2.34219e+07
2.05041e+07
1.79045e+07
1.55863e+07
1.35251e+07
1.16969e+07
1.00782e+07
8.64785e+06
7.38811e+06
6.27801e+06
5.30201e+06
4.45009e+06
3.7039e+06
3.05344e+06
2.4877e+06
1.99718e+06
1.5728e+06
1.20688e+06
892483
623609
393880
197224
33791.9
-105723
-222388
-319655
-400941
-469571
-529547
-586631
-652350
-751012
-918409
)
;

boundaryField
{
    boundary
    {
        type            empty;
    }
    inlet
    {
        type            calculated;
        value           nonuniform 0();
    }
    outlet
    {
        type            calculated;
        value           nonuniform 0();
    }
    procBoundary1to0
    {
        type            processor;
        value           uniform 0;
    }
    procBoundary1to3
    {
        type            processor;
        value           uniform 0;
    }
}


// ************************************************************************* //
