/*--------------------------------*- C++ -*----------------------------------*\
  =========                 |
  \\      /  F ield         | OpenFOAM: The Open Source CFD Toolbox
   \\    /   O peration     | Website:  https://openfoam.org
    \\  /    A nd           | Version:  7
     \\/     M anipulation  |
\*---------------------------------------------------------------------------*/
FoamFile
{
    version     2.0;
    format      ascii;
    class       volScalarField;
    location    "9e-05";
    object      T;
}
// * * * * * * * * * * * * * * * * * * * * * * * * * * * * * * * * * * * * * //

dimensions      [0 0 0 1 0 0 0];

internalField   nonuniform List<scalar> 
125
(
301.148
301.144
301.141
301.137
301.134
301.131
301.128
301.124
301.121
301.117
301.113
301.109
301.105
301.101
301.097
301.092
301.088
301.083
301.079
301.075
301.073
301.082
301.127
301.302
301.927
304.034
310.779
330.762
381.618
481.355
623.538
779.462
930.597
1072.27
1201.03
1311.96
1403.23
1476.94
1536.71
1585.89
1627.05
1662.09
1692.35
1718.86
1742.34
1763.39
1782.48
1799.99
1816.24
1831.54
1846.12
1860.22
1874.02
1887.71
1901.44
1915.34
1929.51
1944.02
1958.94
1974.28
1990.03
2005.73
2021.48
2037.65
2054.15
2070.92
2087.88
2104.95
2122.03
2139.05
2155.89
2172.47
2188.69
2204.48
2219.75
2234.45
2248.5
2261.85
2274.48
2286.34
2297.43
2307.74
2317.26
2326
2333.99
2341.25
2347.8
2353.69
2358.96
2363.64
2367.78
2371.42
2374.6
2377.38
2379.78
2381.86
2383.64
2385.17
2386.47
2387.57
2388.51
2389.3
2389.97
2390.53
2391
2391.4
2391.74
2392.02
2392.26
2392.46
2392.64
2392.79
2392.92
2393.03
2393.13
2393.21
2393.29
2393.36
2393.42
2393.48
2393.53
2393.59
2393.64
2393.71
2393.79
)
;

boundaryField
{
    boundary
    {
        type            empty;
    }
    inlet
    {
        type            fixedValue;
        value           nonuniform 0();
    }
    outlet
    {
        type            zeroGradient;
    }
    procBoundary1to0
    {
        type            processor;
        value           uniform 2393.84;
    }
    procBoundary1to3
    {
        type            processor;
        value           uniform 301.151;
    }
}


// ************************************************************************* //
