/*--------------------------------*- C++ -*----------------------------------*\
  =========                 |
  \\      /  F ield         | OpenFOAM: The Open Source CFD Toolbox
   \\    /   O peration     | Website:  https://openfoam.org
    \\  /    A nd           | Version:  7
     \\/     M anipulation  |
\*---------------------------------------------------------------------------*/
FoamFile
{
    version     2.0;
    format      ascii;
    class       volVectorField;
    location    "9e-05";
    object      U;
}
// * * * * * * * * * * * * * * * * * * * * * * * * * * * * * * * * * * * * * //

dimensions      [0 1 -1 0 0 0 0];

internalField   nonuniform List<vector> 
125
(
(2.29986 0 0)
(2.29977 0 0)
(2.29967 0 0)
(2.29954 0 0)
(2.29938 0 0)
(2.29923 0 0)
(2.2991 0 0)
(2.29895 0 0)
(2.2988 0 0)
(2.29864 0 0)
(2.29848 0 0)
(2.29831 0 0)
(2.29814 0 0)
(2.29796 0 0)
(2.29777 0 0)
(2.29758 0 0)
(2.29738 0 0)
(2.29717 0 0)
(2.29694 0 0)
(2.29671 0 0)
(2.29648 0 0)
(2.29627 0 0)
(2.29635 0 0)
(2.29761 0 0)
(2.30327 0 0)
(2.32231 0 0)
(2.37481 0 0)
(2.50192 0 0)
(2.78792 0 0)
(3.38672 0 0)
(4.38519 0 0)
(5.59699 0 0)
(6.799 0 0)
(7.8832 0 0)
(8.82928 0 0)
(9.63414 0 0)
(10.2963 0 0)
(10.8275 0 0)
(11.2522 0 0)
(11.5971 0 0)
(11.8838 0 0)
(12.127 0 0)
(12.3372 0 0)
(12.5215 0 0)
(12.685 0 0)
(12.8317 0 0)
(12.9644 0 0)
(13.0855 0 0)
(13.1966 0 0)
(13.2992 0 0)
(13.3944 0 0)
(13.483 0 0)
(13.5657 0 0)
(13.643 0 0)
(13.7153 0 0)
(13.7829 0 0)
(13.846 0 0)
(13.9047 0 0)
(13.9589 0 0)
(14.0088 0 0)
(14.0542 0 0)
(14.0944 0 0)
(14.1302 0 0)
(14.1629 0 0)
(14.1921 0 0)
(14.2178 0 0)
(14.24 0 0)
(14.2589 0 0)
(14.2745 0 0)
(14.287 0 0)
(14.2967 0 0)
(14.3035 0 0)
(14.308 0 0)
(14.3101 0 0)
(14.3102 0 0)
(14.3086 0 0)
(14.3054 0 0)
(14.3011 0 0)
(14.2958 0 0)
(14.2897 0 0)
(14.2832 0 0)
(14.2764 0 0)
(14.2695 0 0)
(14.2627 0 0)
(14.2562 0 0)
(14.25 0 0)
(14.2443 0 0)
(14.2391 0 0)
(14.2345 0 0)
(14.2305 0 0)
(14.2271 0 0)
(14.2244 0 0)
(14.2223 0 0)
(14.2208 0 0)
(14.2198 0 0)
(14.2195 0 0)
(14.2195 0 0)
(14.2198 0 0)
(14.2206 0 0)
(14.2216 0 0)
(14.2229 0 0)
(14.2244 0 0)
(14.2259 0 0)
(14.2276 0 0)
(14.2293 0 0)
(14.2311 0 0)
(14.2328 0 0)
(14.2345 0 0)
(14.2361 0 0)
(14.2376 0 0)
(14.239 0 0)
(14.2403 0 0)
(14.2414 0 0)
(14.2425 0 0)
(14.2434 0 0)
(14.2442 0 0)
(14.2448 0 0)
(14.2453 0 0)
(14.2457 0 0)
(14.246 0 0)
(14.2461 0 0)
(14.2462 0 0)
(14.2462 0 0)
(14.2462 0 0)
(14.2461 0 0)
)
;

boundaryField
{
    boundary
    {
        type            empty;
    }
    inlet
    {
        type            fixedValue;
        value           nonuniform 0();
    }
    outlet
    {
        type            zeroGradient;
    }
    procBoundary1to0
    {
        type            processor;
        value           uniform (14.2461 0 0);
    }
    procBoundary1to3
    {
        type            processor;
        value           uniform (2.3 0 0);
    }
}


// ************************************************************************* //
