/*--------------------------------*- C++ -*----------------------------------*\
  =========                 |
  \\      /  F ield         | OpenFOAM: The Open Source CFD Toolbox
   \\    /   O peration     | Website:  https://openfoam.org
    \\  /    A nd           | Version:  7
     \\/     M anipulation  |
\*---------------------------------------------------------------------------*/
FoamFile
{
    version     2.0;
    format      ascii;
    class       volScalarField;
    location    "0.00085";
    object      HO2;
}
// * * * * * * * * * * * * * * * * * * * * * * * * * * * * * * * * * * * * * //

dimensions      [0 0 0 0 0 0 0];

internalField   nonuniform List<scalar> 
124
(
2.78922e-06
2.77363e-06
2.75835e-06
2.74338e-06
2.7287e-06
2.71432e-06
2.70022e-06
2.68639e-06
2.67283e-06
2.65952e-06
2.64647e-06
2.63366e-06
2.6211e-06
2.60877e-06
2.59666e-06
2.58478e-06
2.57311e-06
2.56166e-06
2.55042e-06
2.53937e-06
2.52853e-06
2.51788e-06
2.50742e-06
2.49714e-06
2.48704e-06
2.47713e-06
2.46738e-06
2.4578e-06
2.44839e-06
2.43914e-06
2.43005e-06
2.42112e-06
2.41233e-06
2.40369e-06
2.3952e-06
2.38685e-06
2.37864e-06
2.37056e-06
2.36261e-06
2.35479e-06
2.3471e-06
2.33953e-06
2.33208e-06
2.32475e-06
2.31754e-06
2.31044e-06
2.30345e-06
2.29656e-06
2.28979e-06
2.28311e-06
2.27654e-06
2.27007e-06
2.26369e-06
2.25741e-06
2.25123e-06
2.24513e-06
2.23913e-06
2.23322e-06
2.22739e-06
2.22165e-06
2.21599e-06
2.21042e-06
2.20493e-06
2.19951e-06
2.19418e-06
2.18892e-06
2.18374e-06
2.17864e-06
2.1736e-06
2.16864e-06
2.16375e-06
2.15893e-06
2.15418e-06
2.14949e-06
2.14487e-06
2.14031e-06
2.13581e-06
2.13138e-06
2.127e-06
2.12268e-06
2.11841e-06
2.1142e-06
2.11004e-06
2.10593e-06
2.10187e-06
2.09786e-06
2.09389e-06
2.08996e-06
2.08608e-06
2.08223e-06
2.07842e-06
2.07465e-06
2.07091e-06
2.0672e-06
2.06351e-06
2.05985e-06
2.05622e-06
2.05261e-06
2.04901e-06
2.04543e-06
2.04186e-06
2.0383e-06
2.03475e-06
2.03121e-06
2.02766e-06
2.02411e-06
2.02055e-06
2.01698e-06
2.0134e-06
2.0098e-06
2.00617e-06
2.00252e-06
1.99883e-06
1.9951e-06
1.99134e-06
1.98752e-06
1.98366e-06
1.97976e-06
1.97582e-06
1.97188e-06
1.96797e-06
1.96423e-06
1.9609e-06
1.95853e-06
)
;

boundaryField
{
    boundary
    {
        type            empty;
    }
    inlet
    {
        type            fixedValue;
        value           nonuniform 0();
    }
    outlet
    {
        type            zeroGradient;
    }
    procBoundary0to1
    {
        type            processor;
        value           uniform 2.80501e-06;
    }
}


// ************************************************************************* //
