/*--------------------------------*- C++ -*----------------------------------*\
  =========                 |
  \\      /  F ield         | OpenFOAM: The Open Source CFD Toolbox
   \\    /   O peration     | Website:  https://openfoam.org
    \\  /    A nd           | Version:  7
     \\/     M anipulation  |
\*---------------------------------------------------------------------------*/
FoamFile
{
    version     2.0;
    format      ascii;
    class       volScalarField;
    location    "0.00012";
    object      HO2;
}
// * * * * * * * * * * * * * * * * * * * * * * * * * * * * * * * * * * * * * //

dimensions      [0 0 0 0 0 0 0];

internalField   nonuniform List<scalar> 
126
(
8.19187e-37
8.19502e-37
8.20039e-37
8.20913e-37
8.22152e-37
8.23683e-37
8.25363e-37
8.27027e-37
8.28539e-37
8.2981e-37
8.3081e-37
8.31553e-37
8.32079e-37
8.32439e-37
8.32679e-37
8.32839e-37
8.32949e-37
8.33028e-37
8.33089e-37
8.33139e-37
8.33183e-37
8.33223e-37
8.3326e-37
8.33295e-37
8.33327e-37
8.33357e-37
8.33384e-37
8.33409e-37
8.33431e-37
8.33451e-37
8.33467e-37
8.3348e-37
8.33489e-37
8.33495e-37
8.33497e-37
8.33495e-37
8.33488e-37
8.33477e-37
8.33461e-37
8.3344e-37
8.33414e-37
8.33382e-37
8.33344e-37
8.333e-37
8.3325e-37
8.33193e-37
8.3313e-37
8.33059e-37
8.32981e-37
8.32895e-37
8.32801e-37
8.32698e-37
8.32587e-37
8.32468e-37
8.32339e-37
8.322e-37
8.32052e-37
8.31894e-37
8.31725e-37
8.31546e-37
8.31356e-37
8.31155e-37
8.30942e-37
8.30718e-37
8.30481e-37
8.30233e-37
8.29972e-37
8.29698e-37
8.29412e-37
8.29113e-37
8.288e-37
8.28474e-37
8.28134e-37
8.2778e-37
8.27413e-37
8.27031e-37
8.26636e-37
8.26226e-37
8.25803e-37
8.25365e-37
8.24913e-37
8.24446e-37
8.23966e-37
8.23471e-37
8.22962e-37
8.2244e-37
8.21903e-37
8.21354e-37
8.2079e-37
8.20214e-37
8.19624e-37
8.19022e-37
8.18408e-37
8.17781e-37
8.17143e-37
8.16493e-37
8.15833e-37
8.15161e-37
8.1448e-37
8.13789e-37
8.13088e-37
8.12379e-37
8.11664e-37
8.10956e-37
8.10334e-37
8.1027e-37
8.13606e-37
8.37331e-37
9.82209e-37
1.84096e-36
6.87018e-36
3.6058e-35
2.04092e-34
1.16467e-33
6.62476e-33
3.75359e-32
2.1213e-31
1.19764e-30
6.76438e-30
3.8264e-29
2.1695e-28
1.23366e-27
7.03948e-27
4.03371e-26
2.3232e-25
1.34633e-24
)
;

boundaryField
{
    boundary
    {
        type            empty;
    }
    inlet
    {
        type            fixedValue;
        value           nonuniform 0();
    }
    outlet
    {
        type            zeroGradient;
    }
    procBoundary3to1
    {
        type            processor;
        value           uniform 8.27906e-24;
    }
    procBoundary3to2
    {
        type            processor;
        value           uniform 8.26744e-37;
    }
}


// ************************************************************************* //
