/*--------------------------------*- C++ -*----------------------------------*\
  =========                 |
  \\      /  F ield         | OpenFOAM: The Open Source CFD Toolbox
   \\    /   O peration     | Website:  https://openfoam.org
    \\  /    A nd           | Version:  7
     \\/     M anipulation  |
\*---------------------------------------------------------------------------*/
FoamFile
{
    version     2.0;
    format      ascii;
    class       volScalarField;
    location    "0.00073";
    object      H;
}
// * * * * * * * * * * * * * * * * * * * * * * * * * * * * * * * * * * * * * //

dimensions      [0 0 0 0 0 0 0];

internalField   nonuniform List<scalar> 
500
(
1.48544e-41
2.01127e-41
2.12336e-41
2.14583e-41
2.14858e-41
2.14671e-41
2.14357e-41
2.13997e-41
2.13622e-41
2.13251e-41
2.12901e-41
2.12586e-41
2.12317e-41
2.12104e-41
2.11952e-41
2.11862e-41
2.11836e-41
2.11871e-41
2.11965e-41
2.12114e-41
2.12315e-41
2.12567e-41
2.12868e-41
2.13218e-41
2.13621e-41
2.1408e-41
2.146e-41
2.15192e-41
2.15863e-41
2.16626e-41
2.17494e-41
2.18481e-41
2.19602e-41
2.20873e-41
2.22311e-41
2.23931e-41
2.25749e-41
2.27778e-41
2.30032e-41
2.3252e-41
2.35249e-41
2.38224e-41
2.41446e-41
2.44911e-41
2.48611e-41
2.52532e-41
2.56657e-41
2.60965e-41
2.65427e-41
2.70012e-41
2.74687e-41
2.79413e-41
2.84152e-41
2.88863e-41
2.93507e-41
2.98044e-41
3.02438e-41
3.06656e-41
3.1067e-41
3.14455e-41
3.17994e-41
3.21272e-41
3.24283e-41
3.27023e-41
3.29496e-41
3.31708e-41
3.3367e-41
3.35395e-41
3.369e-41
3.38201e-41
3.39317e-41
3.40268e-41
3.4107e-41
3.41742e-41
3.423e-41
3.42761e-41
3.43138e-41
3.43445e-41
3.43693e-41
3.43891e-41
3.44049e-41
3.44174e-41
3.44272e-41
3.44349e-41
3.44409e-41
3.44455e-41
3.44491e-41
3.44519e-41
3.4454e-41
3.44557e-41
3.4457e-41
3.44581e-41
3.44589e-41
3.44596e-41
3.44602e-41
3.44607e-41
3.44612e-41
3.44617e-41
3.44621e-41
3.44625e-41
3.4463e-41
3.44634e-41
3.44639e-41
3.44643e-41
3.44648e-41
3.44653e-41
3.44658e-41
3.44664e-41
3.44669e-41
3.44675e-41
3.44681e-41
3.44688e-41
3.44695e-41
3.44701e-41
3.44709e-41
3.44716e-41
3.44724e-41
3.44732e-41
3.4474e-41
3.44749e-41
3.44759e-41
3.44769e-41
3.44781e-41
3.44796e-41
3.44815e-41
3.44837e-41
3.44859e-41
3.44882e-41
3.44905e-41
3.44927e-41
3.44948e-41
3.44966e-41
3.44982e-41
3.44995e-41
3.45005e-41
3.45013e-41
3.4502e-41
3.45025e-41
3.4503e-41
3.45036e-41
3.45042e-41
3.4505e-41
3.45059e-41
3.4507e-41
3.45083e-41
3.45097e-41
3.45113e-41
3.4513e-41
3.45149e-41
3.45168e-41
3.45188e-41
3.45209e-41
3.4523e-41
3.45251e-41
3.45273e-41
3.45295e-41
3.45317e-41
3.45339e-41
3.45361e-41
3.45383e-41
3.45405e-41
3.45428e-41
3.45451e-41
3.45473e-41
3.45497e-41
3.4552e-41
3.45543e-41
3.45567e-41
3.45591e-41
3.45616e-41
3.4564e-41
3.45665e-41
3.4569e-41
3.45715e-41
3.45741e-41
3.45766e-41
3.45792e-41
3.45818e-41
3.45843e-41
3.45869e-41
3.45894e-41
3.45919e-41
3.45943e-41
3.45968e-41
3.45991e-41
3.46014e-41
3.46037e-41
3.46059e-41
3.4608e-41
3.461e-41
3.46119e-41
3.46137e-41
3.46154e-41
3.4617e-41
3.46184e-41
3.46197e-41
3.46209e-41
3.4622e-41
3.46228e-41
3.46235e-41
3.46241e-41
3.46244e-41
3.46246e-41
3.46246e-41
3.46243e-41
3.46239e-41
3.46232e-41
3.46223e-41
3.46214e-41
3.46208e-41
3.46219e-41
3.46294e-41
3.46599e-41
3.47684e-41
3.5141e-41
3.63994e-41
4.06114e-41
5.46183e-41
1.00935e-40
2.53293e-40
7.51963e-40
2.37627e-39
7.64266e-39
2.46417e-38
7.92791e-38
2.54181e-37
8.11915e-37
2.584e-36
8.19522e-36
2.59062e-35
8.16427e-35
2.56564e-34
8.04154e-34
2.51446e-33
7.84536e-33
2.44314e-32
7.59557e-32
2.35812e-31
7.31297e-31
2.2662e-30
7.02047e-30
2.17536e-29
6.74685e-29
2.0965e-28
6.53555e-28
2.04758e-27
6.46293e-27
2.06184e-26
6.67605e-26
2.20501e-25
7.47085e-25
2.6243e-24
9.51659e-24
3.57773e-23
1.39569e-22
5.63511e-22
2.34415e-21
9.99426e-21
4.34539e-20
1.9188e-19
8.57988e-19
3.87863e-18
1.77224e-17
8.1954e-17
3.84687e-16
1.84178e-15
9.05463e-15
4.60782e-14
2.44682e-13
1.43086e-12
1.00927e-11
8.93504e-11
8.81594e-10
8.24433e-09
7.65535e-08
6.80554e-07
5.3355e-06
3.22809e-05
0.000127884
0.000321729
0.000602883
0.000947781
0.00130725
0.00161045
0.00181054
0.00190952
0.00192502
0.00189134
0.00183099
0.0017586
0.00168278
0.00160823
0.00153729
0.00147097
0.00140951
0.00135278
0.00130049
0.00125224
0.00120765
0.00116637
0.00112804
0.00109236
0.00105907
0.00102794
0.000998748
0.000971321
0.000945495
0.000921131
0.000898105
0.000876305
0.000855635
0.000836006
0.000817888
0.000801004
0.000784795
0.000769223
0.000754248
0.000739837
0.000725956
0.000712576
0.00069967
0.00068721
0.000675174
0.00066354
0.000652287
0.000641395
0.000630848
0.000620627
0.000610719
0.000601108
0.00059178
0.000582723
0.000573925
0.000565374
0.00055706
0.000548973
0.000541104
0.000533443
0.000525982
0.000518714
0.00051163
0.000504724
0.000497989
0.000491418
0.000485005
0.000478745
0.000472633
0.000466662
0.000460828
0.000455126
0.000449552
0.000444101
0.000438769
0.000433553
0.000428448
0.000423451
0.000418559
0.000413768
0.000409075
0.000404478
0.000399972
0.000395556
0.000391228
0.000386983
0.000382821
0.000378738
0.000374734
0.000370804
0.000366949
0.000363165
0.000359451
0.000355806
0.000352228
0.000348715
0.000345268
0.000341885
0.000338552
0.000335264
0.000332032
0.000328854
0.00032573
0.000322658
0.000319636
0.000316664
0.00031374
0.000310863
0.000308032
0.000305245
0.000302503
0.000299804
0.000297146
0.00029453
0.000291954
0.000289416
0.000286918
0.000284456
0.000282032
0.000279643
0.00027729
0.000274971
0.000272686
0.000270433
0.000268214
0.000266026
0.000263869
0.000261743
0.000259646
0.000257579
0.000255541
0.000253531
0.000251549
0.000249594
0.000247665
0.000245763
0.000243887
0.000242036
0.00024021
0.000238408
0.00023663
0.000234876
0.000233145
0.000231437
0.000229751
0.000228087
0.000226445
0.000224824
0.000223225
0.000221646
0.000220087
0.000218549
0.00021703
0.000215531
0.000214051
0.00021259
0.000211148
0.000209724
0.000208319
0.000206931
0.000205562
0.00020421
0.000202875
0.000201558
0.000200257
0.000198974
0.000197707
0.000196457
0.000195223
0.000194006
0.000192804
0.000191618
0.000190449
0.000189295
0.000188157
0.000187034
0.000185926
0.000184834
0.000183757
0.000182696
0.000181649
0.000180617
0.0001796
0.000178598
0.000177611
0.000176638
0.00017568
0.000174737
0.000173807
0.000172892
0.000171992
0.000171105
0.000170232
0.000169373
0.000168528
0.000167695
0.000166875
0.000166064
0.000165256
0.000164423
0.000163561
0.000162793
0.00016204
0.0001613
0.000160572
0.000159856
0.00015915
0.000158454
0.000157769
0.000157093
0.000156427
0.000155771
0.000155124
0.000154489
0.000153865
0.000153256
0.000152666
0.000152101
0.000151576
0.00015111
0.00015074
0.00015052
)
;

boundaryField
{
    boundary
    {
        type            empty;
    }
    inlet
    {
        type            fixedValue;
        value           uniform 0;
    }
    outlet
    {
        type            zeroGradient;
    }
}


// ************************************************************************* //
