/*--------------------------------*- C++ -*----------------------------------*\
  =========                 |
  \\      /  F ield         | OpenFOAM: The Open Source CFD Toolbox
   \\    /   O peration     | Website:  https://openfoam.org
    \\  /    A nd           | Version:  7
     \\/     M anipulation  |
\*---------------------------------------------------------------------------*/
FoamFile
{
    version     2.0;
    format      ascii;
    class       volScalarField;
    location    "0.00073";
    object      O;
}
// * * * * * * * * * * * * * * * * * * * * * * * * * * * * * * * * * * * * * //

dimensions      [0 0 0 0 0 0 0];

internalField   nonuniform List<scalar> 
500
(
1.57479e-47
3.75372e-47
5.94013e-47
8.12183e-47
1.02958e-46
1.24616e-46
1.46196e-46
1.67713e-46
1.89184e-46
2.10633e-46
2.32086e-46
2.53565e-46
2.75096e-46
2.96698e-46
3.18388e-46
3.4018e-46
3.62084e-46
3.84108e-46
4.0626e-46
4.28548e-46
4.50983e-46
4.7358e-46
4.96357e-46
5.19343e-46
5.42569e-46
5.66079e-46
5.89923e-46
6.14161e-46
6.38863e-46
6.64106e-46
6.89974e-46
7.16558e-46
7.43953e-46
7.72256e-46
8.01562e-46
8.31962e-46
8.63538e-46
8.96361e-46
9.30484e-46
9.65943e-46
1.00275e-45
1.04087e-45
1.08028e-45
1.12088e-45
1.16255e-45
1.20515e-45
1.2485e-45
1.29238e-45
1.33656e-45
1.38076e-45
1.42473e-45
1.46818e-45
1.51081e-45
1.55236e-45
1.59256e-45
1.63117e-45
1.66797e-45
1.70278e-45
1.73545e-45
1.76588e-45
1.79399e-45
1.81975e-45
1.84318e-45
1.86431e-45
1.88321e-45
1.89999e-45
1.91477e-45
1.92767e-45
1.93885e-45
1.94846e-45
1.95665e-45
1.96358e-45
1.96941e-45
1.97425e-45
1.97826e-45
1.98155e-45
1.98423e-45
1.98639e-45
1.98813e-45
1.98951e-45
1.9906e-45
1.99146e-45
1.99213e-45
1.99265e-45
1.99305e-45
1.99336e-45
1.9936e-45
1.99378e-45
1.99391e-45
1.99402e-45
1.9941e-45
1.99416e-45
1.99421e-45
1.99425e-45
1.99429e-45
1.99432e-45
1.99434e-45
1.99437e-45
1.99439e-45
1.99442e-45
1.99444e-45
1.99447e-45
1.99449e-45
1.99452e-45
1.99455e-45
1.99458e-45
1.99461e-45
1.99464e-45
1.99467e-45
1.99471e-45
1.99475e-45
1.99478e-45
1.99483e-45
1.99487e-45
1.99491e-45
1.99496e-45
1.99501e-45
1.99506e-45
1.9951e-45
1.99515e-45
1.99518e-45
1.99516e-45
1.995e-45
1.99441e-45
1.9926e-45
1.98996e-45
1.99004e-45
1.99013e-45
1.99022e-45
1.99031e-45
1.99041e-45
1.99051e-45
1.99062e-45
1.99074e-45
1.99087e-45
1.99102e-45
1.99119e-45
1.99138e-45
1.9916e-45
1.99185e-45
1.99213e-45
1.99245e-45
1.9928e-45
1.99317e-45
1.99358e-45
1.994e-45
1.99444e-45
1.99489e-45
1.99533e-45
1.99576e-45
1.99618e-45
1.99657e-45
1.99695e-45
1.99729e-45
1.9976e-45
1.99789e-45
1.99814e-45
1.99838e-45
1.99858e-45
1.99877e-45
1.99894e-45
1.9991e-45
1.99924e-45
1.99938e-45
1.99952e-45
1.99965e-45
1.99978e-45
1.99992e-45
2.00006e-45
2.0002e-45
2.00035e-45
2.00051e-45
2.00067e-45
2.00084e-45
2.00102e-45
2.00121e-45
2.0014e-45
2.0016e-45
2.0018e-45
2.00201e-45
2.00222e-45
2.00243e-45
2.00263e-45
2.00284e-45
2.00304e-45
2.00324e-45
2.00343e-45
2.00362e-45
2.0038e-45
2.00396e-45
2.00413e-45
2.00429e-45
2.00448e-45
2.00481e-45
2.00571e-45
2.0088e-45
2.02024e-45
2.0631e-45
2.22331e-45
2.81916e-45
5.02159e-45
1.31112e-44
4.26366e-44
1.49718e-43
5.35627e-43
1.91767e-42
6.83624e-42
2.42321e-41
8.53771e-41
2.98979e-40
1.04063e-39
3.60023e-39
1.23813e-38
4.23289e-38
1.43872e-37
4.8621e-37
1.63389e-36
5.46034e-36
1.81496e-35
6.00099e-35
1.97401e-34
6.46118e-34
2.10467e-33
6.82401e-33
2.20273e-32
7.07996e-32
2.2664e-31
7.22721e-31
2.29627e-30
7.2709e-30
2.29489e-29
7.22164e-29
2.26625e-28
7.09363e-28
2.21519e-27
6.90278e-27
2.1468e-26
6.665e-26
2.06598e-25
6.39507e-25
1.9771e-24
6.10576e-24
1.88383e-23
5.80749e-23
1.78908e-22
5.50821e-22
1.69499e-21
5.21349e-21
1.60293e-20
4.92647e-20
1.51354e-19
4.67063e-19
1.43801e-18
4.41632e-18
1.35475e-17
4.15259e-17
1.27194e-16
3.89311e-16
1.19068e-15
3.63879e-15
1.11119e-14
3.39087e-14
1.03411e-13
3.15219e-13
9.60567e-13
2.92687e-12
8.91948e-12
2.71912e-11
8.29376e-11
2.53145e-10
7.73348e-10
2.3667e-09
7.28507e-09
2.29441e-08
7.85689e-08
3.38385e-07
2.05708e-06
1.413e-05
7.39604e-05
0.000303026
0.000941356
0.00207317
0.0034383
0.00466959
0.00556592
0.00612532
0.00637243
0.00644182
0.00640103
0.00629573
0.00615539
0.00599819
0.00583499
0.00567213
0.00551313
0.00535986
0.00521319
0.00507342
0.00494051
0.00481424
0.00469431
0.00458036
0.00447203
0.00436896
0.0042708
0.00417724
0.00408797
0.00400271
0.00392121
0.00384322
0.00376855
0.00369704
0.0036306
0.00356783
0.00350715
0.00344845
0.00339161
0.00333654
0.00328315
0.00323135
0.00318108
0.00313226
0.00308482
0.00303871
0.00299386
0.00295023
0.00290775
0.00286639
0.0028261
0.00278684
0.00274857
0.00271125
0.00267485
0.00263933
0.00260467
0.00257083
0.00253779
0.00250552
0.002474
0.00244319
0.00241308
0.00238365
0.00235486
0.00232671
0.00229918
0.00227223
0.00224586
0.00222004
0.00219477
0.00217001
0.00214576
0.002122
0.00209872
0.0020759
0.00205353
0.00203159
0.00201007
0.00198896
0.00196824
0.00194791
0.00192796
0.00190837
0.00188913
0.00187024
0.00185168
0.00183345
0.00181553
0.00179793
0.00178062
0.00176362
0.00174689
0.00173046
0.00171429
0.0016984
0.00168277
0.00166742
0.00165229
0.00163735
0.00162264
0.00160816
0.00159391
0.00157987
0.00156605
0.00155244
0.00153903
0.00152582
0.00151281
0.00149999
0.00148736
0.00147492
0.00146265
0.00145056
0.00143865
0.00142691
0.00141533
0.00140392
0.00139267
0.00138158
0.00137064
0.00135985
0.00134922
0.00133873
0.00132838
0.00131817
0.00130811
0.00129818
0.00128838
0.00127872
0.00126918
0.00125977
0.00125048
0.00124132
0.00123228
0.00122335
0.00121454
0.00120584
0.00119725
0.00118877
0.0011804
0.00117213
0.00116396
0.0011559
0.00114793
0.00114006
0.00113229
0.0011246
0.00111701
0.00110951
0.0011021
0.00109477
0.00108752
0.00108036
0.00107328
0.00106628
0.00105936
0.00105251
0.00104574
0.00103904
0.00103242
0.00102586
0.00101938
0.00101296
0.00100661
0.00100033
0.000994109
0.000987954
0.000981861
0.000975829
0.000969857
0.000963943
0.000958086
0.000952285
0.000946538
0.000940844
0.000935201
0.000929608
0.000924063
0.000918564
0.00091311
0.000907699
0.000902329
0.000896997
0.000891703
0.000886442
0.000881214
0.000876015
0.000870843
0.000865695
0.000860569
0.000855461
0.000850368
0.000845287
0.000840212
0.000835138
0.000830061
0.000824989
0.000819888
0.000814221
0.000807917
0.000802803
0.0007976
0.000792348
0.000787057
0.000781725
0.000776348
0.000770924
0.000765448
0.000759919
0.000754335
0.000748696
0.000743003
0.000737263
0.000731484
0.000725686
0.000719905
0.000714204
0.000708696
0.000703588
0.000699259
0.00069642
)
;

boundaryField
{
    boundary
    {
        type            empty;
    }
    inlet
    {
        type            fixedValue;
        value           uniform 0;
    }
    outlet
    {
        type            zeroGradient;
    }
}


// ************************************************************************* //
