/*--------------------------------*- C++ -*----------------------------------*\
  =========                 |
  \\      /  F ield         | OpenFOAM: The Open Source CFD Toolbox
   \\    /   O peration     | Website:  https://openfoam.org
    \\  /    A nd           | Version:  7
     \\/     M anipulation  |
\*---------------------------------------------------------------------------*/
FoamFile
{
    version     2.0;
    format      ascii;
    class       volScalarField;
    location    "0.00073";
    object      OH;
}
// * * * * * * * * * * * * * * * * * * * * * * * * * * * * * * * * * * * * * //

dimensions      [0 0 0 0 0 0 0];

internalField   nonuniform List<scalar> 
500
(
9.37518e-48
1.82577e-47
2.43134e-47
2.83926e-47
3.11249e-47
3.29466e-47
3.41545e-47
3.49499e-47
3.54696e-47
3.58067e-47
3.60249e-47
3.61675e-47
3.62642e-47
3.6335e-47
3.63933e-47
3.64477e-47
3.65039e-47
3.65653e-47
3.66337e-47
3.67101e-47
3.67951e-47
3.6889e-47
3.69922e-47
3.7105e-47
3.72283e-47
3.73631e-47
3.7511e-47
3.76737e-47
3.78536e-47
3.80531e-47
3.82752e-47
3.85231e-47
3.88002e-47
3.91101e-47
3.94563e-47
3.98425e-47
4.02722e-47
4.07487e-47
4.12749e-47
4.18533e-47
4.24858e-47
4.31735e-47
4.39168e-47
4.47151e-47
4.55669e-47
4.64695e-47
4.74192e-47
4.84112e-47
4.94394e-47
5.0497e-47
5.15763e-47
5.26686e-47
5.37651e-47
5.48566e-47
5.59336e-47
5.69873e-47
5.80092e-47
5.89913e-47
5.9927e-47
6.08103e-47
6.16369e-47
6.24034e-47
6.31078e-47
6.37496e-47
6.4329e-47
6.48476e-47
6.53077e-47
6.57125e-47
6.60655e-47
6.63709e-47
6.66328e-47
6.68557e-47
6.70438e-47
6.72013e-47
6.73322e-47
6.74401e-47
6.75284e-47
6.76001e-47
6.76579e-47
6.77043e-47
6.77411e-47
6.77702e-47
6.77931e-47
6.78109e-47
6.78248e-47
6.78355e-47
6.78438e-47
6.78502e-47
6.78552e-47
6.7859e-47
6.7862e-47
6.78644e-47
6.78663e-47
6.78679e-47
6.78693e-47
6.78705e-47
6.78715e-47
6.78726e-47
6.78736e-47
6.78746e-47
6.78755e-47
6.78766e-47
6.78776e-47
6.78787e-47
6.78798e-47
6.78809e-47
6.78821e-47
6.78834e-47
6.78847e-47
6.7886e-47
6.78875e-47
6.78889e-47
6.78905e-47
6.78921e-47
6.78937e-47
6.78955e-47
6.78973e-47
6.78991e-47
6.79011e-47
6.79031e-47
6.79053e-47
6.79075e-47
6.79099e-47
6.79123e-47
6.79139e-47
6.79152e-47
6.79198e-47
6.79247e-47
6.79297e-47
6.79345e-47
6.79392e-47
6.79433e-47
6.7947e-47
6.795e-47
6.79525e-47
6.79545e-47
6.79562e-47
6.79577e-47
6.79592e-47
6.79608e-47
6.79627e-47
6.79649e-47
6.79675e-47
6.79706e-47
6.79741e-47
6.79781e-47
6.79824e-47
6.79871e-47
6.7992e-47
6.79971e-47
6.80023e-47
6.80077e-47
6.80131e-47
6.80184e-47
6.80238e-47
6.80292e-47
6.80345e-47
6.80398e-47
6.80451e-47
6.80504e-47
6.80557e-47
6.8061e-47
6.80663e-47
6.80717e-47
6.8077e-47
6.80825e-47
6.8088e-47
6.80935e-47
6.80991e-47
6.81048e-47
6.81106e-47
6.81164e-47
6.81223e-47
6.81282e-47
6.81342e-47
6.81402e-47
6.81463e-47
6.81523e-47
6.81584e-47
6.81644e-47
6.81704e-47
6.81764e-47
6.81822e-47
6.8188e-47
6.81937e-47
6.81992e-47
6.82046e-47
6.82097e-47
6.82147e-47
6.82195e-47
6.82241e-47
6.82284e-47
6.82325e-47
6.82366e-47
6.82414e-47
6.82498e-47
6.82724e-47
6.83495e-47
6.86315e-47
6.96748e-47
7.35279e-47
8.76821e-47
1.39358e-46
3.26837e-46
1.00272e-45
3.42408e-45
1.20443e-44
4.25421e-44
1.49774e-43
5.24493e-43
1.82597e-42
6.31898e-42
2.17375e-41
7.43372e-41
2.52737e-40
8.5435e-40
2.87177e-39
9.59974e-39
3.19165e-38
1.05554e-37
3.47298e-37
1.137e-36
3.70445e-36
1.20135e-35
3.87859e-35
1.24688e-34
3.99217e-34
1.27326e-33
4.04619e-33
1.28141e-32
4.04525e-32
1.27325e-31
3.99666e-31
1.25141e-30
3.90956e-30
1.21898e-29
3.79422e-29
1.17936e-28
3.66199e-28
1.13639e-27
3.5262e-27
1.09488e-26
3.40493e-26
1.06192e-25
3.32717e-25
1.04975e-24
3.34572e-24
1.08156e-23
3.56375e-23
1.20355e-22
4.18907e-22
1.51729e-21
5.68803e-21
2.20904e-20
8.87649e-20
3.6748e-19
1.55903e-18
6.74195e-18
2.95791e-17
1.3116e-16
5.86098e-16
2.63366e-15
1.18821e-14
5.37637e-14
2.43782e-13
1.10709e-12
5.03325e-12
2.29014e-11
1.04262e-10
4.79612e-10
2.23012e-09
1.04431e-08
4.93306e-08
2.39866e-07
1.27254e-06
7.95308e-06
5.42531e-05
0.000273038
0.000634536
0.00083568
0.00101636
0.00147019
0.00235691
0.0036032
0.00498378
0.00644793
0.00758032
0.00848964
0.00920368
0.00975973
0.0101937
0.0105347
0.0108052
0.0110217
0.0111963
0.0113378
0.0114528
0.0115464
0.0116224
0.0116837
0.0117326
0.0117711
0.0118006
0.0118225
0.0118377
0.0118472
0.0118517
0.0118518
0.0118481
0.0118409
0.0118308
0.011818
0.0118034
0.0117873
0.0117696
0.0117504
0.0117297
0.0117078
0.0116848
0.0116606
0.0116356
0.0116096
0.0115829
0.0115554
0.0115273
0.0114987
0.0114694
0.0114397
0.0114096
0.0113791
0.0113483
0.0113172
0.0112858
0.0112542
0.0112224
0.0111905
0.0111584
0.0111262
0.011094
0.0110617
0.0110294
0.010997
0.0109646
0.0109323
0.0109
0.0108678
0.0108355
0.0108034
0.0107713
0.0107394
0.0107075
0.0106757
0.010644
0.0106124
0.0105809
0.0105496
0.0105183
0.0104872
0.0104562
0.0104254
0.0103946
0.010364
0.0103336
0.0103033
0.0102731
0.010243
0.0102131
0.0101833
0.0101537
0.0101242
0.0100949
0.0100657
0.0100367
0.0100078
0.00997909
0.00995051
0.00992205
0.00989365
0.00986541
0.00983732
0.00980937
0.00978157
0.00975391
0.00972641
0.00969905
0.00967183
0.00964476
0.00961785
0.00959108
0.00956445
0.00953798
0.00951166
0.00948548
0.00945946
0.00943358
0.00940786
0.00938228
0.00935686
0.00933159
0.00930646
0.00928149
0.00925667
0.009232
0.00920748
0.00918311
0.0091589
0.00913483
0.00911091
0.00908714
0.00906351
0.00904004
0.00901671
0.00899352
0.00897048
0.00894758
0.00892483
0.00890221
0.00887973
0.00885739
0.00883518
0.00881311
0.00879116
0.00876935
0.00874766
0.0087261
0.00870467
0.00868336
0.00866216
0.00864109
0.00862013
0.00859929
0.00857856
0.00855794
0.00853743
0.00851703
0.00849674
0.00847655
0.00845646
0.00843648
0.0084166
0.00839682
0.00837713
0.00835754
0.00833805
0.00831865
0.00829934
0.00828013
0.008261
0.00824195
0.00822299
0.00820411
0.00818531
0.00816658
0.00814792
0.00812933
0.00811081
0.00809234
0.00807392
0.00805555
0.00803722
0.00801892
0.00800065
0.00798239
0.00796414
0.00794589
0.00792762
0.00790932
0.00789099
0.00787261
0.00785416
0.00783563
0.007817
0.00779825
0.00777935
0.00776028
0.00774107
0.00772171
0.00769995
0.0076756
0.00765558
0.00763498
0.00761399
0.00759264
0.00757093
0.00754883
0.00752633
0.0075034
0.00748004
0.00745623
0.00743197
0.00740726
0.00738213
0.00735663
0.00733086
0.00730498
0.0072793
0.00725437
0.00723119
0.00721151
0.00719857
)
;

boundaryField
{
    boundary
    {
        type            empty;
    }
    inlet
    {
        type            fixedValue;
        value           uniform 0;
    }
    outlet
    {
        type            zeroGradient;
    }
}


// ************************************************************************* //
