/*--------------------------------*- C++ -*----------------------------------*\
  =========                 |
  \\      /  F ield         | OpenFOAM: The Open Source CFD Toolbox
   \\    /   O peration     | Website:  https://openfoam.org
    \\  /    A nd           | Version:  7
     \\/     M anipulation  |
\*---------------------------------------------------------------------------*/
FoamFile
{
    version     2.0;
    format      ascii;
    class       volScalarField;
    location    "0.00073";
    object      Qdot;
}
// * * * * * * * * * * * * * * * * * * * * * * * * * * * * * * * * * * * * * //

dimensions      [1 -1 -3 0 0 0 0];

internalField   nonuniform List<scalar> 
500
(
-2.45113e-27
-1.86059e-27
-1.73224e-27
-1.70326e-27
-1.69538e-27
-1.69178e-27
-1.68889e-27
-1.686e-27
-1.68309e-27
-1.68023e-27
-1.67755e-27
-1.67515e-27
-1.67312e-27
-1.67153e-27
-1.6704e-27
-1.66975e-27
-1.66959e-27
-1.6699e-27
-1.67065e-27
-1.67182e-27
-1.67338e-27
-1.67531e-27
-1.67762e-27
-1.68029e-27
-1.68336e-27
-1.68684e-27
-1.69079e-27
-1.69527e-27
-1.70036e-27
-1.70615e-27
-1.71272e-27
-1.72021e-27
-1.72871e-27
-1.73835e-27
-1.74926e-27
-1.76156e-27
-1.77535e-27
-1.79074e-27
-1.80784e-27
-1.8267e-27
-1.8474e-27
-1.86995e-27
-1.89436e-27
-1.92059e-27
-1.94859e-27
-1.97824e-27
-2.00942e-27
-2.04194e-27
-2.0756e-27
-2.11016e-27
-2.14535e-27
-2.1809e-27
-2.2165e-27
-2.25185e-27
-2.28664e-27
-2.32059e-27
-2.35343e-27
-2.38491e-27
-2.41482e-27
-2.44298e-27
-2.46926e-27
-2.49357e-27
-2.51586e-27
-2.53611e-27
-2.55435e-27
-2.57064e-27
-2.58506e-27
-2.59772e-27
-2.60874e-27
-2.61825e-27
-2.6264e-27
-2.63331e-27
-2.63914e-27
-2.64402e-27
-2.64806e-27
-2.65139e-27
-2.65411e-27
-2.65632e-27
-2.6581e-27
-2.65952e-27
-2.66065e-27
-2.66154e-27
-2.66224e-27
-2.66279e-27
-2.66321e-27
-2.66354e-27
-2.6638e-27
-2.66399e-27
-2.66415e-27
-2.66426e-27
-2.66436e-27
-2.66443e-27
-2.66449e-27
-2.66454e-27
-2.66458e-27
-2.66462e-27
-2.66466e-27
-2.66469e-27
-2.66472e-27
-2.66476e-27
-2.66479e-27
-2.66482e-27
-2.66486e-27
-2.66489e-27
-2.66493e-27
-2.66497e-27
-2.665e-27
-2.66505e-27
-2.66509e-27
-2.66513e-27
-2.66518e-27
-2.66523e-27
-2.66528e-27
-2.66533e-27
-2.66538e-27
-2.66544e-27
-2.6655e-27
-2.66556e-27
-2.66562e-27
-2.66569e-27
-2.66576e-27
-2.66584e-27
-2.66592e-27
-2.66603e-27
-2.66617e-27
-2.66634e-27
-2.66652e-27
-2.66669e-27
-2.66686e-27
-2.66703e-27
-2.66718e-27
-2.66732e-27
-2.66743e-27
-2.66753e-27
-2.6676e-27
-2.66766e-27
-2.66771e-27
-2.66775e-27
-2.66779e-27
-2.66783e-27
-2.66787e-27
-2.66793e-27
-2.668e-27
-2.66808e-27
-2.66818e-27
-2.66828e-27
-2.6684e-27
-2.66853e-27
-2.66867e-27
-2.66882e-27
-2.66897e-27
-2.66913e-27
-2.66928e-27
-2.66944e-27
-2.6696e-27
-2.66977e-27
-2.66993e-27
-2.67009e-27
-2.67026e-27
-2.67043e-27
-2.67059e-27
-2.67076e-27
-2.67093e-27
-2.6711e-27
-2.67127e-27
-2.67145e-27
-2.67162e-27
-2.6718e-27
-2.67198e-27
-2.67216e-27
-2.67234e-27
-2.67253e-27
-2.67272e-27
-2.6729e-27
-2.67309e-27
-2.67328e-27
-2.67348e-27
-2.67367e-27
-2.67386e-27
-2.67405e-27
-2.67423e-27
-2.67442e-27
-2.6746e-27
-2.67478e-27
-2.67496e-27
-2.67513e-27
-2.6753e-27
-2.67546e-27
-2.67562e-27
-2.67577e-27
-2.67591e-27
-2.67605e-27
-2.67617e-27
-2.67629e-27
-2.6764e-27
-2.6765e-27
-2.67659e-27
-2.67666e-27
-2.67673e-27
-2.67678e-27
-2.67682e-27
-2.67685e-27
-2.67686e-27
-2.67686e-27
-2.67684e-27
-2.6768e-27
-2.67674e-27
-2.67663e-27
-2.67642e-27
-2.67587e-27
-2.67421e-27
-2.66877e-27
-2.65044e-27
-2.58832e-27
-2.37814e-27
-1.67002e-27
7.03352e-28
8.6157e-27
3.48538e-26
1.21409e-25
4.05491e-25
1.3333e-24
4.3491e-24
1.41071e-23
4.55422e-23
1.46387e-22
4.68611e-22
1.49434e-21
4.74793e-21
1.5034e-20
4.74524e-20
1.49331e-19
4.68653e-19
1.4671e-18
4.5822e-18
1.42823e-17
4.44362e-17
1.38039e-16
4.28266e-16
1.32742e-15
4.11198e-15
1.27361e-14
3.94663e-14
1.2245e-13
3.808e-13
1.1887e-12
3.73209e-12
1.18169e-11
3.78665e-11
1.23352e-10
4.10634e-10
1.41194e-09
5.00168e-09
1.83387e-08
6.97919e-08
2.7544e-07
1.1233e-06
4.71014e-06
2.01967e-05
8.81176e-05
0.000389575
0.00173984
0.00783275
0.0355071
0.162042
0.745081
3.45874
16.2669
81.9113
451.835
2932.42
22558.5
184626
1.68714e+06
1.60906e+07
1.4749e+08
1.09777e+09
4.78797e+09
1.04757e+10
1.33805e+10
1.38612e+10
1.39069e+10
1.37667e+10
1.29342e+10
1.1245e+10
9.21033e+09
7.47971e+09
6.16533e+09
5.15676e+09
4.38938e+09
3.79839e+09
3.33474e+09
2.96364e+09
2.66087e+09
2.40953e+09
2.19771e+09
2.01686e+09
1.8607e+09
1.72457e+09
1.6049e+09
1.49893e+09
1.4045e+09
1.31987e+09
1.24363e+09
1.17465e+09
1.11197e+09
1.05481e+09
1.00249e+09
9.54467e+08
9.10259e+08
8.69475e+08
8.31835e+08
7.97937e+08
7.66875e+08
7.37656e+08
7.10206e+08
6.84361e+08
6.59993e+08
6.36971e+08
6.15199e+08
5.94582e+08
5.75034e+08
5.5648e+08
5.38847e+08
5.22076e+08
5.06107e+08
4.90887e+08
4.76367e+08
4.62504e+08
4.49257e+08
4.36588e+08
4.24462e+08
4.12848e+08
4.01716e+08
3.91039e+08
3.80791e+08
3.70949e+08
3.61491e+08
3.52397e+08
3.43647e+08
3.35223e+08
3.2711e+08
3.19291e+08
3.11752e+08
3.04479e+08
2.97458e+08
2.9068e+08
2.84132e+08
2.77802e+08
2.71682e+08
2.65762e+08
2.60032e+08
2.54485e+08
2.49111e+08
2.43905e+08
2.38858e+08
2.33964e+08
2.29217e+08
2.2461e+08
2.20138e+08
2.15796e+08
2.11577e+08
2.07478e+08
2.03494e+08
1.9962e+08
1.95853e+08
1.92187e+08
1.8862e+08
1.85148e+08
1.81767e+08
1.78475e+08
1.75268e+08
1.72144e+08
1.69101e+08
1.6614e+08
1.6326e+08
1.6045e+08
1.57692e+08
1.54996e+08
1.52366e+08
1.49798e+08
1.4729e+08
1.44841e+08
1.42448e+08
1.4011e+08
1.37825e+08
1.35592e+08
1.33408e+08
1.31273e+08
1.29185e+08
1.27142e+08
1.25144e+08
1.23188e+08
1.21274e+08
1.19401e+08
1.17566e+08
1.1577e+08
1.14012e+08
1.12289e+08
1.10601e+08
1.08948e+08
1.07328e+08
1.0574e+08
1.04184e+08
1.02658e+08
1.01162e+08
9.9695e+07
9.82565e+07
9.68455e+07
9.54614e+07
9.41034e+07
9.2771e+07
9.14635e+07
9.01799e+07
8.89203e+07
8.76837e+07
8.64696e+07
8.52774e+07
8.41066e+07
8.29567e+07
8.18273e+07
8.07177e+07
7.96275e+07
7.85564e+07
7.75038e+07
7.64693e+07
7.54525e+07
7.44529e+07
7.34703e+07
7.25045e+07
7.15545e+07
7.06203e+07
6.97017e+07
6.87981e+07
6.79094e+07
6.70352e+07
6.61751e+07
6.53289e+07
6.44964e+07
6.36772e+07
6.2871e+07
6.20776e+07
6.12968e+07
6.05283e+07
5.97718e+07
5.90272e+07
5.82942e+07
5.75728e+07
5.68615e+07
5.61624e+07
5.54738e+07
5.47958e+07
5.41281e+07
5.34705e+07
5.2823e+07
5.21853e+07
5.15574e+07
5.0939e+07
5.03293e+07
4.97295e+07
4.91386e+07
4.85565e+07
4.7983e+07
4.74182e+07
4.68617e+07
4.63135e+07
4.57734e+07
4.52413e+07
4.4717e+07
4.42005e+07
4.36917e+07
4.31903e+07
4.26963e+07
4.22102e+07
4.17359e+07
4.13199e+07
4.09809e+07
4.00903e+07
3.96452e+07
3.9233e+07
3.88012e+07
3.8365e+07
3.79288e+07
3.74947e+07
3.70637e+07
3.66364e+07
3.62124e+07
3.57917e+07
3.5374e+07
3.4959e+07
3.45463e+07
3.41353e+07
3.37252e+07
3.33148e+07
3.2902e+07
3.24848e+07
3.20607e+07
3.16288e+07
3.12025e+07
3.08746e+07
)
;

boundaryField
{
    boundary
    {
        type            empty;
    }
    inlet
    {
        type            calculated;
        value           uniform 0;
    }
    outlet
    {
        type            calculated;
        value           uniform 0;
    }
}


// ************************************************************************* //
