/*--------------------------------*- C++ -*----------------------------------*\
  =========                 |
  \\      /  F ield         | OpenFOAM: The Open Source CFD Toolbox
   \\    /   O peration     | Website:  https://openfoam.org
    \\  /    A nd           | Version:  7
     \\/     M anipulation  |
\*---------------------------------------------------------------------------*/
FoamFile
{
    version     2.0;
    format      ascii;
    class       volVectorField;
    location    "0.00073";
    object      U;
}
// * * * * * * * * * * * * * * * * * * * * * * * * * * * * * * * * * * * * * //

dimensions      [0 1 -1 0 0 0 0];

internalField   nonuniform List<vector> 
500
(
(2.34893 0 0)
(2.34891 0 0)
(2.34889 0 0)
(2.34888 0 0)
(2.34887 0 0)
(2.34885 0 0)
(2.34884 0 0)
(2.34883 0 0)
(2.34882 0 0)
(2.34882 0 0)
(2.34881 0 0)
(2.34881 0 0)
(2.34881 0 0)
(2.34881 0 0)
(2.34881 0 0)
(2.34881 0 0)
(2.34881 0 0)
(2.34881 0 0)
(2.34881 0 0)
(2.34881 0 0)
(2.34881 0 0)
(2.34881 0 0)
(2.34881 0 0)
(2.3488 0 0)
(2.3488 0 0)
(2.3488 0 0)
(2.3488 0 0)
(2.34881 0 0)
(2.34881 0 0)
(2.34881 0 0)
(2.34882 0 0)
(2.34883 0 0)
(2.34884 0 0)
(2.34885 0 0)
(2.34886 0 0)
(2.34887 0 0)
(2.34889 0 0)
(2.34891 0 0)
(2.34892 0 0)
(2.34894 0 0)
(2.34896 0 0)
(2.34898 0 0)
(2.34899 0 0)
(2.34901 0 0)
(2.34902 0 0)
(2.34903 0 0)
(2.34903 0 0)
(2.34904 0 0)
(2.34904 0 0)
(2.34903 0 0)
(2.34902 0 0)
(2.34901 0 0)
(2.34899 0 0)
(2.34897 0 0)
(2.34895 0 0)
(2.34893 0 0)
(2.3489 0 0)
(2.34887 0 0)
(2.34884 0 0)
(2.3488 0 0)
(2.34877 0 0)
(2.34874 0 0)
(2.3487 0 0)
(2.34867 0 0)
(2.34864 0 0)
(2.34861 0 0)
(2.34858 0 0)
(2.34855 0 0)
(2.34853 0 0)
(2.3485 0 0)
(2.34848 0 0)
(2.34846 0 0)
(2.34844 0 0)
(2.34842 0 0)
(2.34841 0 0)
(2.34839 0 0)
(2.34838 0 0)
(2.34837 0 0)
(2.34835 0 0)
(2.34834 0 0)
(2.34833 0 0)
(2.34832 0 0)
(2.34831 0 0)
(2.3483 0 0)
(2.3483 0 0)
(2.34829 0 0)
(2.34828 0 0)
(2.34827 0 0)
(2.34826 0 0)
(2.34826 0 0)
(2.34825 0 0)
(2.34824 0 0)
(2.34823 0 0)
(2.34822 0 0)
(2.34822 0 0)
(2.34821 0 0)
(2.3482 0 0)
(2.34819 0 0)
(2.34819 0 0)
(2.34818 0 0)
(2.34817 0 0)
(2.34816 0 0)
(2.34816 0 0)
(2.34815 0 0)
(2.34814 0 0)
(2.34813 0 0)
(2.34813 0 0)
(2.34812 0 0)
(2.34811 0 0)
(2.3481 0 0)
(2.3481 0 0)
(2.34809 0 0)
(2.34808 0 0)
(2.34807 0 0)
(2.34806 0 0)
(2.34806 0 0)
(2.34805 0 0)
(2.34804 0 0)
(2.34803 0 0)
(2.34803 0 0)
(2.34802 0 0)
(2.34801 0 0)
(2.348 0 0)
(2.348 0 0)
(2.34799 0 0)
(2.34798 0 0)
(2.34798 0 0)
(2.34797 0 0)
(2.34796 0 0)
(2.34795 0 0)
(2.34794 0 0)
(2.34794 0 0)
(2.34793 0 0)
(2.34792 0 0)
(2.34791 0 0)
(2.3479 0 0)
(2.3479 0 0)
(2.34789 0 0)
(2.34788 0 0)
(2.34787 0 0)
(2.34787 0 0)
(2.34786 0 0)
(2.34785 0 0)
(2.34784 0 0)
(2.34784 0 0)
(2.34783 0 0)
(2.34782 0 0)
(2.34781 0 0)
(2.3478 0 0)
(2.3478 0 0)
(2.34779 0 0)
(2.34778 0 0)
(2.34777 0 0)
(2.34777 0 0)
(2.34776 0 0)
(2.34775 0 0)
(2.34774 0 0)
(2.34774 0 0)
(2.34773 0 0)
(2.34772 0 0)
(2.34771 0 0)
(2.3477 0 0)
(2.3477 0 0)
(2.34769 0 0)
(2.34768 0 0)
(2.34767 0 0)
(2.34766 0 0)
(2.34766 0 0)
(2.34765 0 0)
(2.34764 0 0)
(2.34763 0 0)
(2.34763 0 0)
(2.34762 0 0)
(2.34761 0 0)
(2.3476 0 0)
(2.34759 0 0)
(2.34759 0 0)
(2.34758 0 0)
(2.34757 0 0)
(2.34756 0 0)
(2.34755 0 0)
(2.34754 0 0)
(2.34754 0 0)
(2.34753 0 0)
(2.34752 0 0)
(2.34751 0 0)
(2.3475 0 0)
(2.3475 0 0)
(2.34749 0 0)
(2.34748 0 0)
(2.34747 0 0)
(2.34746 0 0)
(2.34745 0 0)
(2.34744 0 0)
(2.34744 0 0)
(2.34743 0 0)
(2.34742 0 0)
(2.34741 0 0)
(2.3474 0 0)
(2.34739 0 0)
(2.34739 0 0)
(2.34738 0 0)
(2.34737 0 0)
(2.34736 0 0)
(2.34735 0 0)
(2.34734 0 0)
(2.34733 0 0)
(2.34733 0 0)
(2.34732 0 0)
(2.34731 0 0)
(2.3473 0 0)
(2.34729 0 0)
(2.34728 0 0)
(2.34727 0 0)
(2.34726 0 0)
(2.34726 0 0)
(2.34725 0 0)
(2.34724 0 0)
(2.34723 0 0)
(2.34722 0 0)
(2.34721 0 0)
(2.3472 0 0)
(2.34719 0 0)
(2.34719 0 0)
(2.34718 0 0)
(2.34717 0 0)
(2.34716 0 0)
(2.34715 0 0)
(2.34714 0 0)
(2.34713 0 0)
(2.34712 0 0)
(2.34712 0 0)
(2.34711 0 0)
(2.3471 0 0)
(2.34709 0 0)
(2.34708 0 0)
(2.34707 0 0)
(2.34706 0 0)
(2.34705 0 0)
(2.34705 0 0)
(2.34704 0 0)
(2.34703 0 0)
(2.34702 0 0)
(2.34701 0 0)
(2.347 0 0)
(2.34699 0 0)
(2.34699 0 0)
(2.34698 0 0)
(2.34697 0 0)
(2.34696 0 0)
(2.34695 0 0)
(2.34694 0 0)
(2.34693 0 0)
(2.34692 0 0)
(2.34691 0 0)
(2.3469 0 0)
(2.3469 0 0)
(2.34689 0 0)
(2.34688 0 0)
(2.34687 0 0)
(2.34686 0 0)
(2.34685 0 0)
(2.34684 0 0)
(2.34683 0 0)
(2.34682 0 0)
(2.34681 0 0)
(2.34681 0 0)
(2.34681 0 0)
(2.34687 0 0)
(2.3471 0 0)
(2.34792 0 0)
(2.35054 0 0)
(2.35839 0 0)
(2.38005 0 0)
(2.43461 0 0)
(2.56366 0 0)
(2.85325 0 0)
(3.45774 0 0)
(4.46261 0 0)
(5.68161 0 0)
(6.8927 0 0)
(7.98706 0 0)
(8.93843 0 0)
(9.74388 0 0)
(10.4185 0 0)
(10.9797 0 0)
(11.4311 0 0)
(11.787 0 0)
(12.0767 0 0)
(12.3232 0 0)
(12.5378 0 0)
(12.7268 0 0)
(12.8948 0 0)
(13.0456 0 0)
(13.182 0 0)
(13.3065 0 0)
(13.4206 0 0)
(13.5258 0 0)
(13.6233 0 0)
(13.7139 0 0)
(13.7985 0 0)
(13.8777 0 0)
(13.952 0 0)
(14.0221 0 0)
(14.0881 0 0)
(14.1506 0 0)
(14.2099 0 0)
(14.2661 0 0)
(14.3195 0 0)
(14.3704 0 0)
(14.4189 0 0)
(14.4652 0 0)
(14.5081 0 0)
(14.5484 0 0)
(14.5874 0 0)
(14.6251 0 0)
(14.6615 0 0)
(14.6968 0 0)
(14.7309 0 0)
(14.7639 0 0)
(14.7959 0 0)
(14.827 0 0)
(14.8572 0 0)
(14.8865 0 0)
(14.9149 0 0)
(14.9426 0 0)
(14.9696 0 0)
(14.9958 0 0)
(15.0214 0 0)
(15.0462 0 0)
(15.0705 0 0)
(15.0942 0 0)
(15.1173 0 0)
(15.1398 0 0)
(15.1618 0 0)
(15.1833 0 0)
(15.2043 0 0)
(15.2249 0 0)
(15.245 0 0)
(15.2646 0 0)
(15.2838 0 0)
(15.3027 0 0)
(15.3211 0 0)
(15.3392 0 0)
(15.3569 0 0)
(15.3742 0 0)
(15.3912 0 0)
(15.4079 0 0)
(15.4242 0 0)
(15.4403 0 0)
(15.456 0 0)
(15.4715 0 0)
(15.4867 0 0)
(15.5016 0 0)
(15.5162 0 0)
(15.5306 0 0)
(15.5448 0 0)
(15.5587 0 0)
(15.5723 0 0)
(15.5858 0 0)
(15.599 0 0)
(15.612 0 0)
(15.6248 0 0)
(15.6374 0 0)
(15.6498 0 0)
(15.662 0 0)
(15.674 0 0)
(15.6858 0 0)
(15.6974 0 0)
(15.7089 0 0)
(15.7202 0 0)
(15.7314 0 0)
(15.7423 0 0)
(15.7531 0 0)
(15.7637 0 0)
(15.7742 0 0)
(15.7845 0 0)
(15.7947 0 0)
(15.8048 0 0)
(15.8147 0 0)
(15.8245 0 0)
(15.8342 0 0)
(15.8438 0 0)
(15.8532 0 0)
(15.8625 0 0)
(15.8717 0 0)
(15.8807 0 0)
(15.8897 0 0)
(15.8985 0 0)
(15.9072 0 0)
(15.9159 0 0)
(15.9244 0 0)
(15.9328 0 0)
(15.9411 0 0)
(15.9493 0 0)
(15.9574 0 0)
(15.9654 0 0)
(15.9733 0 0)
(15.9812 0 0)
(15.9889 0 0)
(15.9965 0 0)
(16.0041 0 0)
(16.0116 0 0)
(16.0189 0 0)
(16.0262 0 0)
(16.0335 0 0)
(16.0406 0 0)
(16.0477 0 0)
(16.0547 0 0)
(16.0616 0 0)
(16.0684 0 0)
(16.0752 0 0)
(16.0819 0 0)
(16.0885 0 0)
(16.095 0 0)
(16.1015 0 0)
(16.1079 0 0)
(16.1143 0 0)
(16.1206 0 0)
(16.1268 0 0)
(16.1329 0 0)
(16.139 0 0)
(16.1451 0 0)
(16.151 0 0)
(16.157 0 0)
(16.1628 0 0)
(16.1686 0 0)
(16.1744 0 0)
(16.18 0 0)
(16.1857 0 0)
(16.1913 0 0)
(16.1968 0 0)
(16.2023 0 0)
(16.2077 0 0)
(16.213 0 0)
(16.2184 0 0)
(16.2236 0 0)
(16.2289 0 0)
(16.234 0 0)
(16.2392 0 0)
(16.2442 0 0)
(16.2493 0 0)
(16.2543 0 0)
(16.2592 0 0)
(16.2641 0 0)
(16.269 0 0)
(16.2738 0 0)
(16.2786 0 0)
(16.2833 0 0)
(16.288 0 0)
(16.2927 0 0)
(16.2973 0 0)
(16.3019 0 0)
(16.3064 0 0)
(16.3109 0 0)
(16.3154 0 0)
(16.3198 0 0)
(16.3242 0 0)
(16.3285 0 0)
(16.3328 0 0)
(16.3371 0 0)
(16.3413 0 0)
(16.3455 0 0)
(16.3497 0 0)
(16.3538 0 0)
(16.3579 0 0)
(16.362 0 0)
(16.366 0 0)
(16.37 0 0)
(16.374 0 0)
(16.3779 0 0)
(16.3818 0 0)
(16.3857 0 0)
(16.3895 0 0)
(16.3933 0 0)
(16.397 0 0)
(16.4012 0 0)
(16.4045 0 0)
(16.4077 0 0)
(16.4118 0 0)
(16.4155 0 0)
(16.4191 0 0)
(16.4226 0 0)
(16.4261 0 0)
(16.4296 0 0)
(16.4331 0 0)
(16.4365 0 0)
(16.4399 0 0)
(16.4433 0 0)
(16.4467 0 0)
(16.45 0 0)
(16.4534 0 0)
(16.4567 0 0)
(16.46 0 0)
(16.4632 0 0)
(16.4665 0 0)
(16.4696 0 0)
(16.4725 0 0)
(16.4751 0 0)
(16.4771 0 0)
)
;

boundaryField
{
    boundary
    {
        type            empty;
    }
    inlet
    {
        type            fixedValue;
        value           uniform (2.34893 0 0);
    }
    outlet
    {
        type            zeroGradient;
    }
}


// ************************************************************************* //
