/*--------------------------------*- C++ -*----------------------------------*\
  =========                 |
  \\      /  F ield         | OpenFOAM: The Open Source CFD Toolbox
   \\    /   O peration     | Website:  https://openfoam.org
    \\  /    A nd           | Version:  7
     \\/     M anipulation  |
\*---------------------------------------------------------------------------*/
FoamFile
{
    version     2.0;
    format      ascii;
    class       surfaceScalarField;
    location    "0.00013";
    object      phi;
}
// * * * * * * * * * * * * * * * * * * * * * * * * * * * * * * * * * * * * * //

dimensions      [1 0 -1 0 0 0 0];

internalField   nonuniform List<scalar> 
124
(
6.919e-06
6.91621e-06
6.91328e-06
6.91008e-06
6.90644e-06
6.90232e-06
6.89778e-06
6.89301e-06
6.88821e-06
6.88359e-06
6.8793e-06
6.87542e-06
6.87199e-06
6.86898e-06
6.86634e-06
6.86401e-06
6.86189e-06
6.85994e-06
6.8581e-06
6.85634e-06
6.85461e-06
6.85291e-06
6.85122e-06
6.84954e-06
6.84785e-06
6.84616e-06
6.84447e-06
6.84276e-06
6.84105e-06
6.83933e-06
6.83761e-06
6.83587e-06
6.83413e-06
6.83238e-06
6.83061e-06
6.82884e-06
6.82706e-06
6.82527e-06
6.82347e-06
6.82166e-06
6.81984e-06
6.818e-06
6.81616e-06
6.81431e-06
6.81244e-06
6.81057e-06
6.80868e-06
6.80678e-06
6.80487e-06
6.80294e-06
6.80101e-06
6.79906e-06
6.7971e-06
6.79513e-06
6.79314e-06
6.79114e-06
6.78913e-06
6.78711e-06
6.78507e-06
6.78302e-06
6.78095e-06
6.77888e-06
6.77679e-06
6.77468e-06
6.77256e-06
6.77043e-06
6.76829e-06
6.76613e-06
6.76396e-06
6.76177e-06
6.75957e-06
6.75735e-06
6.75513e-06
6.75288e-06
6.75063e-06
6.74836e-06
6.74607e-06
6.74377e-06
6.74146e-06
6.73914e-06
6.7368e-06
6.73444e-06
6.73207e-06
6.72969e-06
6.7273e-06
6.72489e-06
6.72246e-06
6.72003e-06
6.71758e-06
6.71511e-06
6.71264e-06
6.71014e-06
6.70764e-06
6.70512e-06
6.70259e-06
6.70005e-06
6.69749e-06
6.69492e-06
6.69234e-06
6.68975e-06
6.68714e-06
6.68452e-06
6.68189e-06
6.67925e-06
6.67659e-06
6.67392e-06
6.67124e-06
6.66855e-06
6.66585e-06
6.66314e-06
6.66041e-06
6.65768e-06
6.65493e-06
6.65217e-06
6.64941e-06
6.64663e-06
6.64384e-06
6.64104e-06
6.63824e-06
6.63542e-06
6.6326e-06
6.62976e-06
6.62692e-06
6.62407e-06
)
;

boundaryField
{
    boundary
    {
        type            empty;
        value           nonuniform 0();
    }
    inlet
    {
        type            calculated;
        value           uniform -6.92163e-06;
    }
    outlet
    {
        type            calculated;
        value           nonuniform 0();
    }
    procBoundary2to3
    {
        type            processor;
        value           uniform 6.62121e-06;
    }
}


// ************************************************************************* //
