/*--------------------------------*- C++ -*----------------------------------*\
  =========                 |
  \\      /  F ield         | OpenFOAM: The Open Source CFD Toolbox
   \\    /   O peration     | Website:  https://openfoam.org
    \\  /    A nd           | Version:  7
     \\/     M anipulation  |
\*---------------------------------------------------------------------------*/
FoamFile
{
    version     2.0;
    format      ascii;
    class       volScalarField;
    location    "0.00056";
    object      p;
}
// * * * * * * * * * * * * * * * * * * * * * * * * * * * * * * * * * * * * * //

dimensions      [1 -1 -2 0 0 0 0];

internalField   nonuniform List<scalar> 
124
(
103170
103170
103170
103170
103170
103170
103170
103170
103170
103170
103170
103170
103170
103170
103170
103170
103170
103170
103170
103170
103170
103170
103170
103170
103170
103170
103170
103170
103169
103169
103169
103169
103169
103169
103169
103169
103169
103169
103169
103169
103169
103169
103169
103169
103169
103169
103169
103169
103169
103169
103169
103169
103169
103169
103169
103169
103169
103169
103169
103169
103169
103169
103169
103169
103169
103169
103169
103169
103169
103169
103169
103169
103169
103169
103169
103169
103168
103168
103168
103168
103168
103168
103168
103168
103168
103168
103168
103168
103168
103168
103168
103168
103168
103168
103168
103168
103168
103168
103168
103168
103168
103168
103168
103168
103168
103168
103168
103168
103168
103168
103168
103168
103168
103168
103168
103168
103168
103168
103168
103168
103168
103168
103168
103168
)
;

boundaryField
{
    boundary
    {
        type            empty;
    }
    inlet
    {
        type            zeroGradient;
    }
    outlet
    {
        type            waveTransmissive;
        gamma           1.4;
        value           uniform 103168;
    }
    procBoundary0to1
    {
        type            processor;
        value           uniform 103170;
    }
}


// ************************************************************************* //
