/*--------------------------------*- C++ -*----------------------------------*\
  =========                 |
  \\      /  F ield         | OpenFOAM: The Open Source CFD Toolbox
   \\    /   O peration     | Website:  https://openfoam.org
    \\  /    A nd           | Version:  7
     \\/     M anipulation  |
\*---------------------------------------------------------------------------*/
FoamFile
{
    version     2.0;
    format      ascii;
    class       volScalarField;
    location    "0.00056";
    object      Qdot;
}
// * * * * * * * * * * * * * * * * * * * * * * * * * * * * * * * * * * * * * //

dimensions      [1 -1 -3 0 0 0 0];

internalField   nonuniform List<scalar> 
124
(
1.61661e+08
1.58873e+08
1.5615e+08
1.53494e+08
1.509e+08
1.48368e+08
1.45895e+08
1.4348e+08
1.4112e+08
1.38815e+08
1.36562e+08
1.3436e+08
1.32207e+08
1.30102e+08
1.28043e+08
1.2603e+08
1.2406e+08
1.22133e+08
1.20247e+08
1.18402e+08
1.16595e+08
1.14827e+08
1.13095e+08
1.11399e+08
1.09738e+08
1.08111e+08
1.06517e+08
1.04955e+08
1.03425e+08
1.01925e+08
1.00455e+08
9.90134e+07
9.76004e+07
9.62149e+07
9.48561e+07
9.35236e+07
9.22166e+07
9.09343e+07
8.96765e+07
8.84424e+07
8.72315e+07
8.60432e+07
8.4877e+07
8.37325e+07
8.26091e+07
8.15067e+07
8.04251e+07
7.9365e+07
7.83295e+07
7.7329e+07
7.64156e+07
7.56108e+07
7.39334e+07
7.29935e+07
7.21236e+07
7.12256e+07
7.03259e+07
6.94308e+07
6.85444e+07
6.76684e+07
6.68033e+07
6.59493e+07
6.51059e+07
6.42729e+07
6.34497e+07
6.26358e+07
6.18309e+07
6.10332e+07
6.02445e+07
5.94628e+07
5.86877e+07
5.79187e+07
5.71553e+07
5.63968e+07
5.56428e+07
5.48927e+07
5.41459e+07
5.34019e+07
5.26596e+07
5.19195e+07
5.11805e+07
5.0442e+07
4.97035e+07
4.89646e+07
4.82249e+07
4.74838e+07
4.6741e+07
4.59962e+07
4.5249e+07
4.44991e+07
4.37463e+07
4.29905e+07
4.22314e+07
4.1469e+07
4.07033e+07
3.99343e+07
3.91621e+07
3.83867e+07
3.76084e+07
3.68273e+07
3.60438e+07
3.52581e+07
3.44706e+07
3.36816e+07
3.28915e+07
3.21009e+07
3.131e+07
3.05195e+07
2.97299e+07
2.89416e+07
2.81554e+07
2.73716e+07
2.6591e+07
2.58142e+07
2.50418e+07
2.42742e+07
2.35122e+07
2.2756e+07
2.20064e+07
2.12616e+07
2.05219e+07
1.9791e+07
1.90912e+07
1.85412e+07
)
;

boundaryField
{
    boundary
    {
        type            empty;
    }
    inlet
    {
        type            calculated;
        value           nonuniform 0();
    }
    outlet
    {
        type            calculated;
        value           uniform 0;
    }
    procBoundary0to1
    {
        type            processor;
        value           uniform 0;
    }
}


// ************************************************************************* //
