/*--------------------------------*- C++ -*----------------------------------*\
  =========                 |
  \\      /  F ield         | OpenFOAM: The Open Source CFD Toolbox
   \\    /   O peration     | Website:  https://openfoam.org
    \\  /    A nd           | Version:  7
     \\/     M anipulation  |
\*---------------------------------------------------------------------------*/
FoamFile
{
    version     2.0;
    format      ascii;
    class       volScalarField;
    location    "0.00093";
    object      Qdot;
}
// * * * * * * * * * * * * * * * * * * * * * * * * * * * * * * * * * * * * * //

dimensions      [1 -1 -3 0 0 0 0];

internalField   nonuniform List<scalar> 
125
(
3.91807e-09
1.42652e-08
5.39669e-08
2.12218e-07
8.64448e-07
3.62773e-06
1.55904e-05
6.82351e-05
0.000302714
0.00135677
0.0061294
0.0278759
0.127595
0.588267
2.73717
12.8974
64.3972
351.96
2264.08
16726.3
135350
1.22624e+06
1.16747e+07
1.08461e+08
8.47662e+08
4.05846e+09
9.78091e+09
1.32033e+10
1.38674e+10
1.39172e+10
1.38261e+10
1.30868e+10
1.14731e+10
9.46578e+09
7.70863e+09
6.34314e+09
5.29348e+09
4.49518e+09
3.88167e+09
3.40163e+09
3.01848e+09
2.70667e+09
2.4484e+09
2.23117e+09
2.04599e+09
1.8863e+09
1.74725e+09
1.62511e+09
1.51705e+09
1.42079e+09
1.33457e+09
1.25693e+09
1.1867e+09
1.12291e+09
1.06474e+09
1.01151e+09
9.62654e+08
9.17682e+08
8.76182e+08
8.37811e+08
8.02328e+08
7.70307e+08
7.40927e+08
7.13241e+08
6.87197e+08
6.62652e+08
6.39472e+08
6.17557e+08
5.96813e+08
5.7715e+08
5.58493e+08
5.40768e+08
5.23915e+08
5.07872e+08
4.92586e+08
4.78008e+08
4.64093e+08
4.508e+08
4.38088e+08
4.25925e+08
4.14277e+08
4.03113e+08
3.92408e+08
3.82133e+08
3.72267e+08
3.62785e+08
3.53668e+08
3.44897e+08
3.36453e+08
3.28319e+08
3.2048e+08
3.12921e+08
3.05629e+08
2.9859e+08
2.91792e+08
2.85225e+08
2.78876e+08
2.72737e+08
2.66798e+08
2.6105e+08
2.55484e+08
2.50093e+08
2.44868e+08
2.39804e+08
2.34892e+08
2.30128e+08
2.25504e+08
2.21016e+08
2.16657e+08
2.12423e+08
2.08308e+08
2.04309e+08
2.00421e+08
1.96639e+08
1.9296e+08
1.89379e+08
1.85894e+08
1.82501e+08
1.79197e+08
1.75978e+08
1.72841e+08
1.69786e+08
1.66808e+08
1.63911e+08
1.61092e+08
)
;

boundaryField
{
    boundary
    {
        type            empty;
    }
    inlet
    {
        type            calculated;
        value           nonuniform 0();
    }
    outlet
    {
        type            calculated;
        value           nonuniform 0();
    }
    procBoundary1to0
    {
        type            processor;
        value           uniform 0;
    }
    procBoundary1to3
    {
        type            processor;
        value           uniform 0;
    }
}


// ************************************************************************* //
