/*--------------------------------*- C++ -*----------------------------------*\
  =========                 |
  \\      /  F ield         | OpenFOAM: The Open Source CFD Toolbox
   \\    /   O peration     | Website:  https://openfoam.org
    \\  /    A nd           | Version:  7
     \\/     M anipulation  |
\*---------------------------------------------------------------------------*/
FoamFile
{
    version     2.0;
    format      ascii;
    class       volScalarField;
    location    "0.00029";
    object      O;
}
// * * * * * * * * * * * * * * * * * * * * * * * * * * * * * * * * * * * * * //

dimensions      [0 0 0 0 0 0 0];

internalField   nonuniform List<scalar> 
125
(
1.58469e-47
3.79156e-47
6.02661e-47
8.28507e-47
1.05726e-46
1.28987e-46
1.52749e-46
1.77144e-46
2.02311e-46
2.28385e-46
2.55481e-46
2.83676e-46
3.12992e-46
3.43381e-46
3.7471e-46
4.0676e-46
4.39225e-46
4.71723e-46
5.03815e-46
5.35034e-46
5.64913e-46
5.93021e-46
6.18989e-46
6.42536e-46
6.63484e-46
6.81761e-46
6.97399e-46
7.1052e-46
7.21316e-46
7.30028e-46
7.36925e-46
7.42283e-46
7.46367e-46
7.49425e-46
7.51672e-46
7.53296e-46
7.54447e-46
7.55251e-46
7.55802e-46
7.56174e-46
7.56421e-46
7.56582e-46
7.56686e-46
7.56751e-46
7.56792e-46
7.56817e-46
7.56832e-46
7.56841e-46
7.56847e-46
7.5685e-46
7.56852e-46
7.56853e-46
7.56854e-46
7.56855e-46
7.56856e-46
7.56857e-46
7.56858e-46
7.5686e-46
7.56862e-46
7.56864e-46
7.56866e-46
7.56868e-46
7.56871e-46
7.56875e-46
7.56878e-46
7.56882e-46
7.56886e-46
7.56891e-46
7.56896e-46
7.56902e-46
7.56907e-46
7.56914e-46
7.56921e-46
7.56928e-46
7.56936e-46
7.56945e-46
7.56954e-46
7.56964e-46
7.56974e-46
7.56985e-46
7.56996e-46
7.57009e-46
7.57022e-46
7.57035e-46
7.5705e-46
7.57065e-46
7.57081e-46
7.57097e-46
7.57115e-46
7.57133e-46
7.57152e-46
7.57172e-46
7.57193e-46
7.57214e-46
7.57237e-46
7.57261e-46
7.57285e-46
7.5731e-46
7.57337e-46
7.57364e-46
7.57392e-46
7.57422e-46
7.57452e-46
7.57483e-46
7.57516e-46
7.57549e-46
7.57584e-46
7.57619e-46
7.57656e-46
7.57693e-46
7.57732e-46
7.57772e-46
7.57812e-46
7.57854e-46
7.57897e-46
7.57941e-46
7.57986e-46
7.58032e-46
7.58079e-46
7.58126e-46
7.58173e-46
7.5822e-46
7.58261e-46
7.58288e-46
7.58271e-46
)
;

boundaryField
{
    boundary
    {
        type            empty;
    }
    inlet
    {
        type            fixedValue;
        value           uniform 0;
    }
    outlet
    {
        type            zeroGradient;
    }
    procBoundary2to3
    {
        type            processor;
        value           uniform 7.58203e-46;
    }
}


// ************************************************************************* //
