/*--------------------------------*- C++ -*----------------------------------*\
  =========                 |
  \\      /  F ield         | OpenFOAM: The Open Source CFD Toolbox
   \\    /   O peration     | Website:  https://openfoam.org
    \\  /    A nd           | Version:  7
     \\/     M anipulation  |
\*---------------------------------------------------------------------------*/
FoamFile
{
    version     2.0;
    format      ascii;
    class       volScalarField;
    location    "0.0003";
    object      H;
}
// * * * * * * * * * * * * * * * * * * * * * * * * * * * * * * * * * * * * * //

dimensions      [0 0 0 0 0 0 0];

internalField   nonuniform List<scalar> 
500
(
1.48807e-41
2.01895e-41
2.13728e-41
2.16751e-41
2.17992e-41
2.19e-41
2.2015e-41
2.21566e-41
2.23321e-41
2.25484e-41
2.28119e-41
2.31285e-41
2.35031e-41
2.39391e-41
2.44376e-41
2.49972e-41
2.56135e-41
2.62791e-41
2.69839e-41
2.77151e-41
2.84579e-41
2.91967e-41
2.99158e-41
3.06005e-41
3.12383e-41
3.18194e-41
3.23374e-41
3.27893e-41
3.3175e-41
3.34975e-41
3.37616e-41
3.39737e-41
3.41406e-41
3.42696e-41
3.43673e-41
3.44402e-41
3.44935e-41
3.45319e-41
3.45591e-41
3.4578e-41
3.4591e-41
3.45998e-41
3.46056e-41
3.46095e-41
3.4612e-41
3.46137e-41
3.46147e-41
3.46154e-41
3.46159e-41
3.46162e-41
3.46165e-41
3.46166e-41
3.46168e-41
3.4617e-41
3.46171e-41
3.46173e-41
3.46175e-41
3.46177e-41
3.46178e-41
3.4618e-41
3.46183e-41
3.46185e-41
3.46187e-41
3.4619e-41
3.46192e-41
3.46195e-41
3.46198e-41
3.46201e-41
3.46204e-41
3.46208e-41
3.46211e-41
3.46215e-41
3.46219e-41
3.46223e-41
3.46228e-41
3.46233e-41
3.46237e-41
3.46242e-41
3.46248e-41
3.46253e-41
3.46259e-41
3.46265e-41
3.46272e-41
3.46278e-41
3.46285e-41
3.46292e-41
3.463e-41
3.46308e-41
3.46316e-41
3.46324e-41
3.46333e-41
3.46342e-41
3.46351e-41
3.46361e-41
3.46371e-41
3.46382e-41
3.46393e-41
3.46404e-41
3.46415e-41
3.46427e-41
3.4644e-41
3.46453e-41
3.46466e-41
3.46479e-41
3.46493e-41
3.46507e-41
3.46522e-41
3.46537e-41
3.46553e-41
3.46569e-41
3.46585e-41
3.46602e-41
3.46619e-41
3.46637e-41
3.46655e-41
3.46673e-41
3.46692e-41
3.46712e-41
3.46731e-41
3.46751e-41
3.46772e-41
3.46792e-41
3.46813e-41
3.46834e-41
3.46854e-41
3.46875e-41
3.46898e-41
3.4692e-41
3.46942e-41
3.46964e-41
3.46987e-41
3.47008e-41
3.4703e-41
3.47052e-41
3.47073e-41
3.47095e-41
3.47117e-41
3.47139e-41
3.47161e-41
3.47185e-41
3.47209e-41
3.47233e-41
3.47259e-41
3.47286e-41
3.47313e-41
3.47341e-41
3.4737e-41
3.47399e-41
3.47428e-41
3.47457e-41
3.47485e-41
3.47513e-41
3.4754e-41
3.47567e-41
3.47592e-41
3.47617e-41
3.4764e-41
3.47663e-41
3.47685e-41
3.47705e-41
3.47725e-41
3.47743e-41
3.47761e-41
3.47777e-41
3.47792e-41
3.47806e-41
3.47818e-41
3.47829e-41
3.47838e-41
3.47846e-41
3.47851e-41
3.47856e-41
3.47858e-41
3.47858e-41
3.47856e-41
3.47852e-41
3.47846e-41
3.47837e-41
3.47826e-41
3.47812e-41
3.47795e-41
3.47776e-41
3.47753e-41
3.47727e-41
3.47698e-41
3.47666e-41
3.4763e-41
3.47591e-41
3.47547e-41
3.475e-41
3.47449e-41
3.47394e-41
3.47335e-41
3.47271e-41
3.47203e-41
3.4713e-41
3.47052e-41
3.4697e-41
3.46882e-41
3.4679e-41
3.46692e-41
3.46589e-41
3.46481e-41
3.46367e-41
3.46248e-41
3.46122e-41
3.45992e-41
3.45855e-41
3.45712e-41
3.45564e-41
3.45409e-41
3.45249e-41
3.45082e-41
3.44909e-41
3.4473e-41
3.44545e-41
3.44354e-41
3.44157e-41
3.43953e-41
3.43746e-41
3.43539e-41
3.43367e-41
3.43394e-41
3.44464e-41
3.50821e-41
3.83592e-41
5.46702e-41
1.34547e-40
5.20796e-40
2.36622e-39
1.10782e-38
5.1712e-38
2.38941e-37
1.09112e-36
4.92225e-36
2.19341e-35
9.65441e-35
4.19752e-34
1.80282e-33
7.6502e-33
3.20814e-32
1.32997e-31
5.45324e-31
2.21297e-30
8.89596e-30
3.54657e-29
1.40434e-28
5.53349e-28
2.17461e-27
8.54645e-27
3.36915e-26
1.33858e-25
5.36497e-25
2.1759e-24
8.95281e-24
3.74164e-23
1.58864e-22
6.84751e-22
2.99216e-21
1.32328e-20
5.913e-20
2.66609e-19
1.21204e-18
5.55572e-18
2.5704e-17
1.20315e-16
5.7201e-16
2.77808e-15
1.38851e-14
7.20105e-14
3.90432e-13
2.39934e-12
1.77678e-11
1.71038e-10
1.60735e-09
1.5052e-08
1.39156e-07
1.20972e-06
8.99037e-06
4.93289e-05
0.000171419
0.000391404
0.00069362
0.00104944
0.00140075
0.00167813
0.00184747
0.00192008
0.00191887
0.00187568
0.00181069
0.00173661
0.00166077
0.00158706
0.00151736
0.00145241
0.00139232
0.0013369
0.00128581
0.00123866
0.00119506
0.00115467
0.00111715
0.0010822
0.00104957
0.00101904
0.000990397
0.000963472
0.000938109
0.000914174
0.000891547
0.00087012
0.000850395
0.000832059
0.000814498
0.000797663
0.00078151
0.000765997
0.000751087
0.000736743
0.000722934
0.000709629
0.000696802
0.000684426
0.000672478
0.000660936
0.00064978
0.000638991
0.000628551
0.000618443
0.000608653
0.000599165
0.000589967
0.000581046
0.000572389
0.000563986
0.000555827
0.0005479
0.000540198
0.00053271
0.00052543
0.000518348
0.000511457
0.000504751
0.000498222
0.000491863
0.00048567
0.000479634
0.000473752
0.000468017
0.000462425
0.000456969
0.000451646
0.00044645
0.000441377
0.000436423
0.000431582
0.000426851
0.000422226
0.000417701
0.000413275
0.000408942
0.000404698
0.00040054
0.000396464
0.000392466
0.000388543
0.00038469
0.000380905
0.000377183
0.000373521
0.000369915
0.000366361
0.000362855
0.000359391
0.000355963
0.000352544
0.000349143
0.000345766
0.000342409
0.000339068
0.000335741
0.000332423
0.000329111
0.000325803
0.000322493
0.00031918
0.00031586
0.00031253
0.000309188
0.000305832
0.000302458
0.000299064
0.00029565
0.000292213
0.000288753
0.000285267
0.000281755
0.000278217
0.000274652
0.00027106
0.000267442
0.000263797
0.000260127
0.000256432
0.000252713
0.000248973
0.000245212
0.000241432
0.000237636
0.000233825
0.000230002
0.00022617
0.000222331
0.000218488
0.000214645
0.000210803
0.000206967
0.00020314
0.000199326
0.000195527
0.000191747
0.00018799
0.00018426
0.000180559
0.000176892
0.000173262
0.000169673
0.000166129
0.000162631
0.000159185
0.000155794
0.000152459
0.000149186
0.000145976
0.000142832
0.000139757
0.000136753
0.000133823
0.000130968
0.000128191
0.000125493
0.000122876
0.00012034
0.000117887
0.000115518
0.000113233
0.000111032
0.000108916
0.000106884
0.000104936
0.000103071
0.000101289
9.95886e-05
9.79687e-05
9.64279e-05
9.49648e-05
9.35777e-05
9.22649e-05
9.10245e-05
8.98544e-05
8.87525e-05
8.77167e-05
8.67446e-05
8.58339e-05
8.49822e-05
8.41872e-05
8.34463e-05
8.27572e-05
8.21174e-05
8.15244e-05
8.09758e-05
8.04694e-05
8.00026e-05
7.95732e-05
7.91791e-05
7.8818e-05
7.84877e-05
7.81862e-05
7.79117e-05
7.7662e-05
7.74356e-05
7.72306e-05
7.70454e-05
7.68785e-05
7.67283e-05
7.65935e-05
7.64728e-05
7.63649e-05
7.62689e-05
7.61835e-05
7.61079e-05
7.60412e-05
7.59828e-05
7.5932e-05
7.58885e-05
7.58522e-05
7.58232e-05
7.58022e-05
7.57907e-05
)
;

boundaryField
{
    boundary
    {
        type            empty;
    }
    inlet
    {
        type            fixedValue;
        value           uniform 0;
    }
    outlet
    {
        type            zeroGradient;
    }
}


// ************************************************************************* //
