/*--------------------------------*- C++ -*----------------------------------*\
  =========                 |
  \\      /  F ield         | OpenFOAM: The Open Source CFD Toolbox
   \\    /   O peration     | Website:  https://openfoam.org
    \\  /    A nd           | Version:  7
     \\/     M anipulation  |
\*---------------------------------------------------------------------------*/
FoamFile
{
    version     2.0;
    format      ascii;
    class       volScalarField;
    location    "0.0003";
    object      H2;
}
// * * * * * * * * * * * * * * * * * * * * * * * * * * * * * * * * * * * * * //

dimensions      [0 0 0 0 0 0 0];

internalField   nonuniform List<scalar> 
500
(
0.0285116
0.0285116
0.0285116
0.0285116
0.0285116
0.0285116
0.0285116
0.0285116
0.0285116
0.0285116
0.0285116
0.0285116
0.0285116
0.0285116
0.0285116
0.0285116
0.0285116
0.0285116
0.0285116
0.0285116
0.0285116
0.0285116
0.0285116
0.0285116
0.0285116
0.0285116
0.0285116
0.0285116
0.0285116
0.0285116
0.0285116
0.0285116
0.0285116
0.0285116
0.0285116
0.0285116
0.0285116
0.0285116
0.0285116
0.0285116
0.0285116
0.0285116
0.0285116
0.0285116
0.0285116
0.0285116
0.0285116
0.0285116
0.0285116
0.0285116
0.0285116
0.0285116
0.0285116
0.0285116
0.0285116
0.0285116
0.0285116
0.0285116
0.0285116
0.0285116
0.0285116
0.0285116
0.0285116
0.0285116
0.0285116
0.0285116
0.0285116
0.0285116
0.0285116
0.0285116
0.0285116
0.0285116
0.0285116
0.0285116
0.0285116
0.0285116
0.0285116
0.0285116
0.0285116
0.0285116
0.0285116
0.0285116
0.0285116
0.0285116
0.0285116
0.0285116
0.0285116
0.0285116
0.0285116
0.0285116
0.0285116
0.0285116
0.0285116
0.0285116
0.0285116
0.0285116
0.0285116
0.0285116
0.0285116
0.0285116
0.0285116
0.0285116
0.0285116
0.0285116
0.0285116
0.0285116
0.0285116
0.0285116
0.0285116
0.0285116
0.0285116
0.0285116
0.0285116
0.0285116
0.0285116
0.0285116
0.0285116
0.0285116
0.0285116
0.0285116
0.0285116
0.0285116
0.0285116
0.0285116
0.0285116
0.0285116
0.0285116
0.0285116
0.0285116
0.0285116
0.0285116
0.0285116
0.0285116
0.0285116
0.0285116
0.0285116
0.0285116
0.0285116
0.0285116
0.0285116
0.0285116
0.0285116
0.0285116
0.0285116
0.0285116
0.0285116
0.0285116
0.0285116
0.0285116
0.0285116
0.0285116
0.0285116
0.0285116
0.0285116
0.0285116
0.0285116
0.0285116
0.0285116
0.0285116
0.0285116
0.0285116
0.0285116
0.0285116
0.0285116
0.0285116
0.0285116
0.0285116
0.0285116
0.0285116
0.0285116
0.0285116
0.0285116
0.0285116
0.0285116
0.0285116
0.0285116
0.0285116
0.0285116
0.0285116
0.0285116
0.0285116
0.0285116
0.0285116
0.0285116
0.0285116
0.0285116
0.0285116
0.0285116
0.0285116
0.0285116
0.0285116
0.0285116
0.0285116
0.0285116
0.0285116
0.0285116
0.0285116
0.0285116
0.0285116
0.0285116
0.0285116
0.0285116
0.0285116
0.0285116
0.0285116
0.0285116
0.0285116
0.0285116
0.0285116
0.0285116
0.0285116
0.0285116
0.0285116
0.0285116
0.0285116
0.0285116
0.0285116
0.0285116
0.0285116
0.0285116
0.0285116
0.0285116
0.0285116
0.0285116
0.0285116
0.0285116
0.0285116
0.0285116
0.0285116
0.0285116
0.0285116
0.0285116
0.0285116
0.0285116
0.0285116
0.0285116
0.0285116
0.0285116
0.0285116
0.0285116
0.0285116
0.0285116
0.0285116
0.0285116
0.0285116
0.0285116
0.0285116
0.0285116
0.0285116
0.0285116
0.0285116
0.0285116
0.0285116
0.0285116
0.0285116
0.0285116
0.0285116
0.0285116
0.0285116
0.0285116
0.0285116
0.0285116
0.0285116
0.0285116
0.0285115
0.0285114
0.0285113
0.0285109
0.0285101
0.0285085
0.0285051
0.028498
0.028483
0.0284517
0.0283864
0.0282512
0.0279756
0.0274352
0.0264573
0.0248903
0.022738
0.020173
0.0172994
0.0142373
0.0112871
0.00881282
0.00699297
0.00567519
0.00489704
0.00441455
0.00411769
0.0039335
0.00381632
0.00373843
0.00368337
0.00364145
0.00360705
0.00357694
0.00354928
0.00352303
0.00349763
0.00347279
0.00344836
0.00342426
0.00340048
0.00337701
0.00335387
0.00333106
0.00330859
0.00328648
0.00326473
0.00324334
0.00322296
0.00320339
0.0031841
0.00316508
0.00314633
0.00312785
0.00310963
0.00309168
0.003074
0.00305658
0.00303942
0.00302252
0.00300589
0.00298951
0.0029734
0.00295755
0.00294196
0.00292663
0.00291157
0.00289677
0.00288224
0.00286797
0.00285398
0.00284025
0.0028268
0.00281363
0.00280073
0.00278811
0.00277578
0.00276374
0.00275199
0.00274053
0.00272937
0.00271851
0.00270796
0.00269772
0.00268778
0.00267817
0.00266887
0.00265989
0.00265125
0.00264293
0.00263495
0.0026273
0.00261999
0.00261303
0.00260641
0.00260013
0.00259421
0.00258864
0.00258342
0.00257855
0.00257404
0.00256988
0.00256607
0.00256262
0.00255952
0.00255678
0.00255439
0.00255237
0.00255072
0.00254945
0.00254858
0.00254814
0.0025471
0.00254641
0.00254592
0.00254561
0.00254546
0.00254542
0.00254547
0.00254559
0.00254574
0.00254588
0.00254598
0.00254599
0.00254589
0.00254563
0.00254518
0.00254448
0.00254349
0.00254218
0.0025405
0.00253841
0.00253587
0.00253283
0.00252925
0.00252511
0.00252035
0.00251494
0.00250886
0.00250206
0.00249453
0.00248623
0.00247715
0.00246726
0.00245655
0.00244501
0.00243263
0.00241941
0.00240534
0.00239043
0.00237468
0.00235811
0.00234074
0.00232257
0.00230364
0.00228397
0.00226359
0.00224252
0.00222082
0.00219851
0.00217564
0.00215225
0.00212839
0.00210411
0.00207945
0.00205448
0.00202924
0.00200379
0.00197818
0.00195247
0.00192672
0.00190097
0.00187529
0.00184974
0.00182435
0.00179919
0.00177431
0.00174975
0.00172557
0.00170179
0.00167848
0.00165565
0.00163336
0.00161164
0.0015905
0.00156999
0.00155012
0.00153091
0.00151237
0.00149453
0.00147739
0.00146096
0.00144524
0.00143023
0.00141593
0.00140233
0.00138943
0.00137721
0.00136566
0.00135478
0.00134453
0.00133491
0.0013259
0.00131746
0.0013096
0.00130227
0.00129546
0.00128914
0.00128329
0.0012779
0.00127292
0.00126835
0.00126415
0.0012603
0.00125679
0.00125359
0.00125067
0.00124802
0.00124563
0.00124346
0.00124151
0.00123975
0.00123817
0.00123675
0.00123549
0.00123436
0.00123336
0.00123247
0.00123169
0.00123101
0.00123041
0.0012299
0.00122947
0.00122912
0.00122887
0.00122873
)
;

boundaryField
{
    boundary
    {
        type            empty;
    }
    inlet
    {
        type            fixedValue;
        value           uniform 0.0285116;
    }
    outlet
    {
        type            zeroGradient;
    }
}


// ************************************************************************* //
