/*--------------------------------*- C++ -*----------------------------------*\
  =========                 |
  \\      /  F ield         | OpenFOAM: The Open Source CFD Toolbox
   \\    /   O peration     | Website:  https://openfoam.org
    \\  /    A nd           | Version:  7
     \\/     M anipulation  |
\*---------------------------------------------------------------------------*/
FoamFile
{
    version     2.0;
    format      ascii;
    class       volScalarField;
    location    "0.0003";
    object      H2O;
}
// * * * * * * * * * * * * * * * * * * * * * * * * * * * * * * * * * * * * * //

dimensions      [0 0 0 0 0 0 0];

internalField   nonuniform List<scalar> 
500
(
7.92301e-48
2.29451e-47
4.13926e-47
6.22514e-47
8.48734e-47
1.08868e-46
1.34028e-46
1.60275e-46
1.8762e-46
2.1613e-46
2.45896e-46
2.77003e-46
3.095e-46
3.43372e-46
3.78521e-46
4.14747e-46
4.5174e-46
4.89094e-46
5.26316e-46
5.62856e-46
5.98148e-46
6.31645e-46
6.6286e-46
6.91402e-46
7.16993e-46
7.3949e-46
7.58874e-46
7.75244e-46
7.88794e-46
7.99789e-46
8.08537e-46
8.15361e-46
8.20585e-46
8.24508e-46
8.274e-46
8.29493e-46
8.30982e-46
8.32022e-46
8.32737e-46
8.33219e-46
8.33539e-46
8.33748e-46
8.33883e-46
8.33968e-46
8.3402e-46
8.34053e-46
8.34072e-46
8.34084e-46
8.3409e-46
8.34094e-46
8.34096e-46
8.34098e-46
8.34099e-46
8.34099e-46
8.341e-46
8.34101e-46
8.34102e-46
8.34104e-46
8.34105e-46
8.34107e-46
8.34109e-46
8.34111e-46
8.34114e-46
8.34117e-46
8.34121e-46
8.34124e-46
8.34129e-46
8.34133e-46
8.34138e-46
8.34144e-46
8.3415e-46
8.34157e-46
8.34164e-46
8.34171e-46
8.3418e-46
8.34188e-46
8.34198e-46
8.34208e-46
8.34219e-46
8.3423e-46
8.34242e-46
8.34255e-46
8.34268e-46
8.34283e-46
8.34298e-46
8.34314e-46
8.34331e-46
8.34348e-46
8.34367e-46
8.34386e-46
8.34406e-46
8.34427e-46
8.34449e-46
8.34473e-46
8.34497e-46
8.34522e-46
8.34548e-46
8.34575e-46
8.34603e-46
8.34632e-46
8.34663e-46
8.34694e-46
8.34727e-46
8.3476e-46
8.34795e-46
8.34831e-46
8.34868e-46
8.34906e-46
8.34946e-46
8.34986e-46
8.35028e-46
8.35071e-46
8.35115e-46
8.3516e-46
8.35207e-46
8.35254e-46
8.35303e-46
8.35353e-46
8.35404e-46
8.35456e-46
8.3551e-46
8.35568e-46
8.3564e-46
8.35763e-46
8.36086e-46
8.36795e-46
8.36783e-46
8.36751e-46
8.36689e-46
8.36588e-46
8.36442e-46
8.36251e-46
8.36019e-46
8.35754e-46
8.35471e-46
8.35182e-46
8.34906e-46
8.34661e-46
8.34463e-46
8.34328e-46
8.34267e-46
8.34286e-46
8.34383e-46
8.34552e-46
8.3478e-46
8.35053e-46
8.35354e-46
8.35667e-46
8.35978e-46
8.36276e-46
8.36552e-46
8.36802e-46
8.37023e-46
8.37216e-46
8.37381e-46
8.37523e-46
8.37643e-46
8.37746e-46
8.37833e-46
8.37909e-46
8.37974e-46
8.38031e-46
8.38081e-46
8.38126e-46
8.38165e-46
8.38198e-46
8.38227e-46
8.38252e-46
8.38271e-46
8.38286e-46
8.38295e-46
8.38299e-46
8.38297e-46
8.38289e-46
8.38275e-46
8.38255e-46
8.38227e-46
8.38192e-46
8.3815e-46
8.381e-46
8.38042e-46
8.37975e-46
8.37899e-46
8.37813e-46
8.37719e-46
8.37614e-46
8.37498e-46
8.37372e-46
8.37235e-46
8.37086e-46
8.36925e-46
8.36752e-46
8.36566e-46
8.36367e-46
8.36154e-46
8.35928e-46
8.35688e-46
8.35433e-46
8.35163e-46
8.34878e-46
8.34578e-46
8.34261e-46
8.33929e-46
8.3358e-46
8.33214e-46
8.32831e-46
8.32431e-46
8.32013e-46
8.31578e-46
8.31126e-46
8.30663e-46
8.30222e-46
8.30006e-46
8.31216e-46
8.40926e-46
9.00421e-46
1.24879e-45
3.26059e-45
1.47857e-44
8.03945e-44
4.5197e-43
2.54829e-42
1.43476e-41
8.07268e-41
4.54709e-40
2.56937e-39
1.45948e-38
8.34934e-38
4.81717e-37
2.80496e-36
1.6482e-35
9.76408e-35
5.82196e-34
3.48637e-33
2.09156e-32
1.25389e-31
7.49352e-31
4.45446e-30
2.62875e-29
1.53757e-28
8.90152e-28
5.09503e-27
2.88062e-26
1.60753e-25
8.84914e-25
4.80278e-24
2.56894e-23
1.35372e-22
7.02575e-22
3.59038e-21
1.80631e-20
8.89284e-20
4.33034e-19
2.07771e-18
9.81479e-18
4.56489e-17
2.09096e-16
9.43613e-16
4.19749e-15
1.8416e-14
7.97491e-14
3.41142e-13
1.44285e-12
6.03966e-12
2.50472e-11
1.03021e-10
4.20694e-10
1.70738e-09
6.89329e-09
2.77098e-08
1.10985e-07
4.43148e-07
1.76449e-06
7.00521e-06
2.76983e-05
0.00010865
0.000417974
0.00152893
0.00496586
0.013009
0.0263112
0.0433633
0.0639984
0.0884154
0.114431
0.13796
0.156047
0.171684
0.180839
0.186986
0.191167
0.194098
0.196243
0.197893
0.199226
0.200351
0.201334
0.202218
0.203028
0.203781
0.204488
0.205156
0.205791
0.206397
0.206976
0.207531
0.208063
0.208576
0.209068
0.209543
0.210001
0.210443
0.210855
0.211249
0.211632
0.212004
0.212368
0.212722
0.213068
0.213406
0.213736
0.214058
0.214374
0.214682
0.214985
0.215281
0.215572
0.215857
0.216137
0.216412
0.216682
0.216948
0.21721
0.217468
0.217723
0.217974
0.218222
0.218468
0.218711
0.218952
0.21919
0.219427
0.219662
0.219896
0.220129
0.220361
0.220592
0.220823
0.221053
0.221283
0.221514
0.221744
0.221976
0.222208
0.22244
0.222674
0.222909
0.223145
0.223382
0.223621
0.223861
0.224103
0.224346
0.224591
0.224838
0.225087
0.225337
0.225588
0.225841
0.226096
0.226352
0.22661
0.226869
0.227131
0.227395
0.227662
0.22792
0.228179
0.228437
0.228695
0.228951
0.229206
0.229459
0.22971
0.229958
0.230205
0.230448
0.230688
0.230926
0.23116
0.23139
0.231617
0.231841
0.23206
0.232276
0.232488
0.232696
0.2329
0.233101
0.233298
0.233492
0.233682
0.233869
0.234054
0.234235
0.234413
0.234589
0.234762
0.234933
0.235102
0.235268
0.235433
0.235595
0.235756
0.235915
0.236072
0.236227
0.23638
0.236532
0.236681
0.236829
0.236974
0.237117
0.237257
0.237395
0.23753
0.237662
0.237791
0.237918
0.23804
0.23816
0.238275
0.238387
0.238495
0.238599
0.238699
0.238795
0.238887
0.238974
0.239057
0.239136
0.239211
0.239281
0.239347
0.23941
0.239468
0.239522
0.239573
0.23962
0.239664
0.239704
0.239741
0.239776
0.239807
0.239836
0.239862
0.239886
0.239907
0.239927
0.239945
0.239961
0.239976
0.239989
0.240001
0.240012
0.240021
0.24003
0.240038
0.240045
0.240051
0.240056
0.240061
0.240066
0.24007
0.240074
0.240077
0.24008
0.240083
0.240085
0.240087
0.240089
0.240091
0.240092
0.240093
0.240095
0.240096
0.240097
0.240098
0.240098
0.240099
0.240099
0.2401
0.2401
0.240101
0.240101
0.240101
0.240101
0.240102
0.240102
0.240102
)
;

boundaryField
{
    boundary
    {
        type            empty;
    }
    inlet
    {
        type            fixedValue;
        value           uniform 0;
    }
    outlet
    {
        type            zeroGradient;
    }
}


// ************************************************************************* //
