/*--------------------------------*- C++ -*----------------------------------*\
  =========                 |
  \\      /  F ield         | OpenFOAM: The Open Source CFD Toolbox
   \\    /   O peration     | Website:  https://openfoam.org
    \\  /    A nd           | Version:  7
     \\/     M anipulation  |
\*---------------------------------------------------------------------------*/
FoamFile
{
    version     2.0;
    format      ascii;
    class       volScalarField;
    location    "0.0003";
    object      H2O2;
}
// * * * * * * * * * * * * * * * * * * * * * * * * * * * * * * * * * * * * * //

dimensions      [0 0 0 0 0 0 0];

internalField   nonuniform List<scalar> 
500
(
2.00546e-52
6.45944e-52
1.28818e-51
2.13088e-51
3.17906e-51
4.43943e-51
5.92057e-51
7.63284e-51
9.58787e-51
1.17976e-50
1.42726e-50
1.702e-50
2.00412e-50
2.33287e-50
2.68642e-50
3.06168e-50
3.45421e-50
3.85831e-50
4.2672e-50
4.67345e-50
5.06938e-50
5.4476e-50
5.80154e-50
6.12587e-50
6.41681e-50
6.67225e-50
6.89176e-50
7.07641e-50
7.22848e-50
7.3511e-50
7.44797e-50
7.52295e-50
7.57984e-50
7.62217e-50
7.65308e-50
7.67521e-50
7.69079e-50
7.70155e-50
7.70886e-50
7.71373e-50
7.71693e-50
7.719e-50
7.72031e-50
7.72113e-50
7.72164e-50
7.72195e-50
7.72213e-50
7.72224e-50
7.72231e-50
7.72235e-50
7.72237e-50
7.72239e-50
7.7224e-50
7.72242e-50
7.72243e-50
7.72245e-50
7.72246e-50
7.72248e-50
7.72251e-50
7.72253e-50
7.72256e-50
7.72259e-50
7.72263e-50
7.72266e-50
7.72271e-50
7.72275e-50
7.7228e-50
7.72286e-50
7.72292e-50
7.72298e-50
7.72305e-50
7.72313e-50
7.72321e-50
7.7233e-50
7.72339e-50
7.72349e-50
7.72359e-50
7.7237e-50
7.72382e-50
7.72395e-50
7.72408e-50
7.72422e-50
7.72436e-50
7.72452e-50
7.72468e-50
7.72485e-50
7.72503e-50
7.72522e-50
7.72542e-50
7.72562e-50
7.72584e-50
7.72607e-50
7.7263e-50
7.72654e-50
7.7268e-50
7.72706e-50
7.72734e-50
7.72762e-50
7.72792e-50
7.72823e-50
7.72855e-50
7.72888e-50
7.72922e-50
7.72957e-50
7.72993e-50
7.73031e-50
7.73069e-50
7.73109e-50
7.7315e-50
7.73193e-50
7.73236e-50
7.73281e-50
7.73326e-50
7.73373e-50
7.73422e-50
7.73471e-50
7.73521e-50
7.73573e-50
7.73626e-50
7.73679e-50
7.73733e-50
7.73789e-50
7.73853e-50
7.73972e-50
7.74362e-50
7.7535e-50
7.75085e-50
7.74707e-50
7.74222e-50
7.73652e-50
7.73027e-50
7.72382e-50
7.71747e-50
7.7115e-50
7.70618e-50
7.70168e-50
7.69817e-50
7.69577e-50
7.69457e-50
7.69462e-50
7.6959e-50
7.69837e-50
7.7019e-50
7.70631e-50
7.71138e-50
7.71686e-50
7.72251e-50
7.72809e-50
7.73342e-50
7.73835e-50
7.74279e-50
7.74668e-50
7.75003e-50
7.75286e-50
7.75522e-50
7.75716e-50
7.75876e-50
7.76008e-50
7.76117e-50
7.76208e-50
7.76284e-50
7.7635e-50
7.76407e-50
7.76456e-50
7.76499e-50
7.76537e-50
7.76569e-50
7.76597e-50
7.76619e-50
7.76637e-50
7.76649e-50
7.76656e-50
7.76657e-50
7.76652e-50
7.76641e-50
7.76624e-50
7.76599e-50
7.76567e-50
7.76528e-50
7.7648e-50
7.76425e-50
7.7636e-50
7.76287e-50
7.76204e-50
7.76112e-50
7.76009e-50
7.75896e-50
7.75772e-50
7.75637e-50
7.7549e-50
7.75331e-50
7.7516e-50
7.74976e-50
7.74778e-50
7.74567e-50
7.74342e-50
7.74103e-50
7.73849e-50
7.73581e-50
7.73296e-50
7.72996e-50
7.7268e-50
7.72348e-50
7.71999e-50
7.71633e-50
7.7125e-50
7.70849e-50
7.70431e-50
7.69994e-50
7.6954e-50
7.69067e-50
7.68576e-50
7.68069e-50
7.67567e-50
7.67254e-50
7.6877e-50
7.86482e-50
9.44957e-50
2.31247e-49
1.39492e-48
1.11834e-47
9.25874e-47
7.6181e-46
6.1995e-45
4.98612e-44
3.96239e-43
3.11071e-42
2.41204e-41
1.84693e-40
1.39627e-39
1.04197e-38
7.67382e-38
5.57629e-37
3.99722e-36
2.82585e-35
1.96977e-34
1.35348e-33
9.16546e-33
6.11524e-32
4.01901e-31
2.60111e-30
1.65733e-29
1.0393e-28
6.41234e-28
3.89129e-27
2.3218e-26
1.36169e-25
7.84772e-25
4.44361e-24
2.47178e-23
1.35066e-22
7.2073e-22
3.79774e-21
1.96824e-20
1.00264e-19
5.02106e-19
2.4729e-18
1.19842e-17
5.71861e-17
2.6891e-16
1.24728e-15
5.71251e-15
2.5864e-14
1.15905e-13
5.14751e-13
2.2684e-12
9.93096e-12
4.32407e-11
1.87435e-10
8.09519e-10
3.4858e-09
1.49713e-08
6.41384e-08
2.7382e-07
1.15997e-06
4.79905e-06
1.83781e-05
5.59813e-05
0.000104273
0.000125321
9.75981e-05
5.01807e-05
2.05767e-05
8.61122e-06
4.99116e-06
4.43138e-06
4.84709e-06
5.56664e-06
6.1073e-06
6.48233e-06
6.69354e-06
6.77178e-06
6.75197e-06
6.66403e-06
6.53097e-06
6.3695e-06
6.19138e-06
6.00482e-06
5.81535e-06
5.62676e-06
5.44154e-06
5.26131e-06
5.08708e-06
4.91944e-06
4.75866e-06
4.60484e-06
4.45793e-06
4.3178e-06
4.18424e-06
4.05703e-06
3.93595e-06
3.82082e-06
3.71476e-06
3.61505e-06
3.51943e-06
3.4277e-06
3.33966e-06
3.25514e-06
3.17396e-06
3.09597e-06
3.021e-06
2.94893e-06
2.87959e-06
2.81287e-06
2.74863e-06
2.68675e-06
2.62713e-06
2.56964e-06
2.5142e-06
2.46069e-06
2.40904e-06
2.35914e-06
2.31093e-06
2.26431e-06
2.21922e-06
2.17559e-06
2.13335e-06
2.09243e-06
2.05278e-06
2.01434e-06
1.97705e-06
1.94086e-06
1.90572e-06
1.87159e-06
1.83842e-06
1.80617e-06
1.7748e-06
1.74427e-06
1.71454e-06
1.68557e-06
1.65734e-06
1.62981e-06
1.60294e-06
1.57671e-06
1.55108e-06
1.52603e-06
1.50153e-06
1.47755e-06
1.45406e-06
1.43103e-06
1.40845e-06
1.38628e-06
1.3645e-06
1.34308e-06
1.322e-06
1.30123e-06
1.28075e-06
1.26053e-06
1.24055e-06
1.22079e-06
1.20121e-06
1.18178e-06
1.16249e-06
1.14328e-06
1.12412e-06
1.10498e-06
1.08616e-06
1.06735e-06
1.0486e-06
1.02989e-06
1.01119e-06
9.92519e-07
9.73851e-07
9.55184e-07
9.36517e-07
9.17847e-07
8.99176e-07
8.80511e-07
8.61855e-07
8.43221e-07
8.24618e-07
8.06062e-07
7.87568e-07
7.69154e-07
7.50841e-07
7.32649e-07
7.14601e-07
6.9672e-07
6.7903e-07
6.61555e-07
6.44318e-07
6.27343e-07
6.10654e-07
5.94271e-07
5.78216e-07
5.62508e-07
5.47165e-07
5.32202e-07
5.17634e-07
5.03471e-07
4.89724e-07
4.764e-07
4.63506e-07
4.51044e-07
4.39015e-07
4.2742e-07
4.16256e-07
4.0552e-07
3.95205e-07
3.85305e-07
3.75812e-07
3.66717e-07
3.58009e-07
3.49679e-07
3.41715e-07
3.34104e-07
3.26834e-07
3.19894e-07
3.1327e-07
3.0695e-07
3.00922e-07
2.95172e-07
2.89689e-07
2.84462e-07
2.79477e-07
2.74725e-07
2.70195e-07
2.65876e-07
2.61758e-07
2.57832e-07
2.54089e-07
2.50521e-07
2.4712e-07
2.43878e-07
2.40787e-07
2.37842e-07
2.35037e-07
2.32364e-07
2.29819e-07
2.27397e-07
2.25093e-07
2.22901e-07
2.20819e-07
2.18842e-07
2.16966e-07
2.15187e-07
2.13501e-07
2.11907e-07
2.104e-07
2.08976e-07
2.07634e-07
2.0637e-07
2.05181e-07
2.04065e-07
2.03018e-07
2.02037e-07
2.0112e-07
2.00264e-07
1.99467e-07
1.98725e-07
1.98036e-07
1.97397e-07
1.96806e-07
1.9626e-07
1.95757e-07
1.95294e-07
1.94868e-07
1.94478e-07
1.94122e-07
1.93796e-07
1.93499e-07
1.93229e-07
1.92984e-07
1.92762e-07
1.92562e-07
1.9238e-07
1.92218e-07
1.92071e-07
1.9194e-07
1.91823e-07
1.91718e-07
1.91625e-07
1.91542e-07
1.91469e-07
1.91406e-07
1.9135e-07
1.91303e-07
1.91264e-07
1.91235e-07
1.91217e-07
)
;

boundaryField
{
    boundary
    {
        type            empty;
    }
    inlet
    {
        type            fixedValue;
        value           uniform 0;
    }
    outlet
    {
        type            zeroGradient;
    }
}


// ************************************************************************* //
