/*--------------------------------*- C++ -*----------------------------------*\
  =========                 |
  \\      /  F ield         | OpenFOAM: The Open Source CFD Toolbox
   \\    /   O peration     | Website:  https://openfoam.org
    \\  /    A nd           | Version:  7
     \\/     M anipulation  |
\*---------------------------------------------------------------------------*/
FoamFile
{
    version     2.0;
    format      ascii;
    class       volScalarField;
    location    "0.0003";
    object      HO2;
}
// * * * * * * * * * * * * * * * * * * * * * * * * * * * * * * * * * * * * * //

dimensions      [0 0 0 0 0 0 0];

internalField   nonuniform List<scalar> 
500
(
5.6051e-38
1.27758e-37
2.00018e-37
2.72756e-37
3.46093e-37
4.20235e-37
4.95439e-37
5.72014e-37
6.50299e-37
7.30644e-37
8.13363e-37
8.98692e-37
9.86731e-37
1.07739e-36
1.17036e-36
1.26507e-36
1.36069e-36
1.45616e-36
1.55025e-36
1.64163e-36
1.72895e-36
1.81098e-36
1.88663e-36
1.9551e-36
2.01588e-36
2.06879e-36
2.11393e-36
2.15168e-36
2.18264e-36
2.20752e-36
2.22713e-36
2.24229e-36
2.25379e-36
2.26235e-36
2.2686e-36
2.27309e-36
2.27626e-36
2.27845e-36
2.27994e-36
2.28094e-36
2.2816e-36
2.28203e-36
2.28231e-36
2.28248e-36
2.28258e-36
2.28265e-36
2.28269e-36
2.28271e-36
2.28273e-36
2.28274e-36
2.28274e-36
2.28275e-36
2.28275e-36
2.28275e-36
2.28276e-36
2.28276e-36
2.28276e-36
2.28277e-36
2.28277e-36
2.28278e-36
2.28278e-36
2.28279e-36
2.2828e-36
2.28281e-36
2.28282e-36
2.28283e-36
2.28284e-36
2.28285e-36
2.28286e-36
2.28288e-36
2.28289e-36
2.28291e-36
2.28292e-36
2.28294e-36
2.28296e-36
2.28298e-36
2.283e-36
2.28303e-36
2.28305e-36
2.28308e-36
2.2831e-36
2.28313e-36
2.28316e-36
2.2832e-36
2.28323e-36
2.28327e-36
2.2833e-36
2.28334e-36
2.28338e-36
2.28343e-36
2.28347e-36
2.28352e-36
2.28357e-36
2.28362e-36
2.28367e-36
2.28372e-36
2.28378e-36
2.28384e-36
2.2839e-36
2.28397e-36
2.28403e-36
2.2841e-36
2.28417e-36
2.28424e-36
2.28432e-36
2.2844e-36
2.28448e-36
2.28456e-36
2.28464e-36
2.28473e-36
2.28482e-36
2.28491e-36
2.28501e-36
2.28511e-36
2.28521e-36
2.28531e-36
2.28541e-36
2.28552e-36
2.28563e-36
2.28574e-36
2.28585e-36
2.28596e-36
2.28608e-36
2.28626e-36
2.28678e-36
2.2881e-36
2.28764e-36
2.28692e-36
2.28591e-36
2.28463e-36
2.28316e-36
2.28162e-36
2.28014e-36
2.27884e-36
2.27783e-36
2.27714e-36
2.2768e-36
2.27678e-36
2.27704e-36
2.27754e-36
2.27823e-36
2.27908e-36
2.28003e-36
2.28106e-36
2.28213e-36
2.2832e-36
2.28425e-36
2.28524e-36
2.28616e-36
2.287e-36
2.28774e-36
2.28838e-36
2.28894e-36
2.28941e-36
2.2898e-36
2.29013e-36
2.29041e-36
2.29064e-36
2.29084e-36
2.291e-36
2.29115e-36
2.29127e-36
2.29138e-36
2.29148e-36
2.29156e-36
2.29164e-36
2.2917e-36
2.29176e-36
2.2918e-36
2.29184e-36
2.29186e-36
2.29187e-36
2.29187e-36
2.29186e-36
2.29183e-36
2.2918e-36
2.29174e-36
2.29167e-36
2.29159e-36
2.29149e-36
2.29137e-36
2.29124e-36
2.29108e-36
2.29091e-36
2.29071e-36
2.2905e-36
2.29026e-36
2.29e-36
2.28972e-36
2.28941e-36
2.28908e-36
2.28872e-36
2.28834e-36
2.28793e-36
2.28749e-36
2.28702e-36
2.28652e-36
2.28599e-36
2.28543e-36
2.28484e-36
2.28422e-36
2.28356e-36
2.28287e-36
2.28214e-36
2.28138e-36
2.28059e-36
2.27975e-36
2.27888e-36
2.27798e-36
2.27703e-36
2.27605e-36
2.27503e-36
2.27397e-36
2.27287e-36
2.27173e-36
2.27055e-36
2.26934e-36
2.26808e-36
2.26679e-36
2.26545e-36
2.26408e-36
2.26268e-36
2.26127e-36
2.25997e-36
2.25946e-36
2.26316e-36
2.28874e-36
2.42618e-36
3.12975e-36
6.67423e-36
2.43651e-35
1.12027e-34
5.43882e-34
2.66214e-33
1.3025e-32
6.36895e-32
3.11761e-31
1.53084e-30
7.55506e-30
3.7533e-29
1.87861e-28
9.47396e-28
4.81001e-27
2.45473e-26
1.25662e-25
6.43747e-25
3.2923e-24
1.67714e-23
8.49264e-23
4.26743e-22
2.12482e-21
1.04296e-20
5.07941e-20
2.44713e-19
1.16518e-18
5.48232e-18
2.5494e-17
1.17214e-16
5.33121e-16
2.40037e-15
1.07073e-14
4.73592e-14
2.07892e-13
9.06476e-13
3.92936e-12
1.69459e-11
7.27574e-11
3.11173e-10
1.32626e-09
5.63488e-09
2.38685e-08
1.00731e-07
4.22895e-07
1.75625e-06
7.14679e-06
2.78453e-05
9.83862e-05
0.000278098
0.000488921
0.000509418
0.000419426
0.000307482
0.000216834
0.000151899
0.000106181
7.44959e-05
5.351e-05
3.73891e-05
2.85301e-05
2.28275e-05
1.90615e-05
1.64848e-05
1.46465e-05
1.32772e-05
1.22153e-05
1.13622e-05
1.06563e-05
1.00582e-05
9.54183e-06
9.08931e-06
8.68802e-06
8.32875e-06
8.00459e-06
7.7102e-06
7.44137e-06
7.19472e-06
6.9675e-06
6.75744e-06
6.56261e-06
6.38144e-06
6.21261e-06
6.05506e-06
5.9123e-06
5.77988e-06
5.65444e-06
5.53543e-06
5.42236e-06
5.31481e-06
5.21237e-06
5.11469e-06
5.02144e-06
4.93233e-06
4.84708e-06
4.76544e-06
4.6872e-06
4.61213e-06
4.54005e-06
4.47077e-06
4.40412e-06
4.33996e-06
4.27812e-06
4.21848e-06
4.1609e-06
4.10527e-06
4.05147e-06
3.9994e-06
3.94896e-06
3.90004e-06
3.85256e-06
3.80643e-06
3.76157e-06
3.7179e-06
3.67535e-06
3.63385e-06
3.59332e-06
3.5537e-06
3.51494e-06
3.47696e-06
3.43971e-06
3.40313e-06
3.36717e-06
3.33177e-06
3.29689e-06
3.26247e-06
3.22847e-06
3.19483e-06
3.16152e-06
3.12848e-06
3.09569e-06
3.06308e-06
3.03064e-06
2.99832e-06
2.96608e-06
2.9339e-06
2.90174e-06
2.86957e-06
2.83737e-06
2.80511e-06
2.77277e-06
2.74033e-06
2.70776e-06
2.67504e-06
2.64215e-06
2.60902e-06
2.57558e-06
2.54168e-06
2.50865e-06
2.47539e-06
2.4421e-06
2.40881e-06
2.37555e-06
2.34236e-06
2.30926e-06
2.27631e-06
2.24355e-06
2.21103e-06
2.17881e-06
2.14694e-06
2.11548e-06
2.0845e-06
2.05406e-06
2.02422e-06
1.99505e-06
1.96661e-06
1.93897e-06
1.91218e-06
1.88631e-06
1.86142e-06
1.83755e-06
1.81477e-06
1.7931e-06
1.77261e-06
1.75331e-06
1.73524e-06
1.71842e-06
1.70287e-06
1.6886e-06
1.6756e-06
1.66387e-06
1.65339e-06
1.64415e-06
1.63612e-06
1.62925e-06
1.62352e-06
1.61886e-06
1.61522e-06
1.61255e-06
1.61078e-06
1.60984e-06
1.60967e-06
1.6102e-06
1.61134e-06
1.61304e-06
1.61521e-06
1.6178e-06
1.62073e-06
1.62394e-06
1.62738e-06
1.63099e-06
1.63472e-06
1.63853e-06
1.64238e-06
1.64623e-06
1.65005e-06
1.65383e-06
1.65754e-06
1.66117e-06
1.66471e-06
1.66814e-06
1.67147e-06
1.6747e-06
1.67782e-06
1.68084e-06
1.68375e-06
1.68657e-06
1.6893e-06
1.69194e-06
1.69451e-06
1.69699e-06
1.6994e-06
1.70175e-06
1.70403e-06
1.70624e-06
1.7084e-06
1.71049e-06
1.71253e-06
1.71451e-06
1.71643e-06
1.71829e-06
1.72009e-06
1.72183e-06
1.72351e-06
1.72512e-06
1.72667e-06
1.72816e-06
1.72958e-06
1.73093e-06
1.73222e-06
1.73344e-06
1.7346e-06
1.73569e-06
1.73672e-06
1.73768e-06
1.73858e-06
1.73943e-06
1.74022e-06
1.74095e-06
1.74163e-06
1.74226e-06
1.74284e-06
1.74337e-06
1.74387e-06
1.74432e-06
1.74474e-06
1.74512e-06
1.74547e-06
1.74578e-06
1.74608e-06
1.74634e-06
1.74658e-06
1.7468e-06
1.74701e-06
1.74719e-06
1.74736e-06
1.74751e-06
1.74765e-06
1.74777e-06
1.74788e-06
1.74797e-06
1.74803e-06
)
;

boundaryField
{
    boundary
    {
        type            empty;
    }
    inlet
    {
        type            fixedValue;
        value           uniform 0;
    }
    outlet
    {
        type            zeroGradient;
    }
}


// ************************************************************************* //
