/*--------------------------------*- C++ -*----------------------------------*\
  =========                 |
  \\      /  F ield         | OpenFOAM: The Open Source CFD Toolbox
   \\    /   O peration     | Website:  https://openfoam.org
    \\  /    A nd           | Version:  7
     \\/     M anipulation  |
\*---------------------------------------------------------------------------*/
FoamFile
{
    version     2.0;
    format      ascii;
    class       volScalarField;
    location    "0.0003";
    object      N2;
}
// * * * * * * * * * * * * * * * * * * * * * * * * * * * * * * * * * * * * * //

dimensions      [0 0 0 0 0 0 0];

internalField   nonuniform List<scalar> 
500
(
0.745219
0.745219
0.745219
0.745219
0.745219
0.745219
0.745219
0.745219
0.745219
0.745219
0.745219
0.745219
0.745219
0.745219
0.745219
0.745219
0.745219
0.745219
0.745219
0.745219
0.74522
0.74522
0.74522
0.74522
0.74522
0.74522
0.74522
0.74522
0.74522
0.74522
0.74522
0.74522
0.74522
0.74522
0.74522
0.74522
0.74522
0.74522
0.74522
0.74522
0.74522
0.74522
0.74522
0.74522
0.74522
0.74522
0.74522
0.74522
0.74522
0.74522
0.74522
0.74522
0.74522
0.74522
0.74522
0.74522
0.74522
0.74522
0.74522
0.74522
0.74522
0.74522
0.74522
0.74522
0.74522
0.74522
0.74522
0.74522
0.74522
0.74522
0.74522
0.74522
0.74522
0.74522
0.74522
0.74522
0.74522
0.74522
0.74522
0.74522
0.74522
0.74522
0.74522
0.74522
0.74522
0.74522
0.74522
0.74522
0.74522
0.74522
0.74522
0.74522
0.74522
0.74522
0.74522
0.74522
0.74522
0.74522
0.74522
0.74522
0.74522
0.74522
0.74522
0.74522
0.74522
0.74522
0.74522
0.74522
0.74522
0.74522
0.74522
0.74522
0.74522
0.74522
0.74522
0.74522
0.74522
0.74522
0.74522
0.74522
0.74522
0.74522
0.74522
0.74522
0.74522
0.74522
0.74522
0.74522
0.74522
0.74522
0.74522
0.74522
0.74522
0.74522
0.74522
0.74522
0.74522
0.74522
0.74522
0.74522
0.74522
0.74522
0.74522
0.74522
0.74522
0.74522
0.74522
0.74522
0.74522
0.74522
0.74522
0.74522
0.74522
0.74522
0.74522
0.74522
0.74522
0.74522
0.74522
0.74522
0.74522
0.74522
0.74522
0.74522
0.74522
0.74522
0.74522
0.74522
0.74522
0.74522
0.74522
0.74522
0.74522
0.74522
0.74522
0.74522
0.74522
0.74522
0.74522
0.74522
0.74522
0.74522
0.74522
0.74522
0.74522
0.74522
0.74522
0.74522
0.74522
0.74522
0.74522
0.74522
0.74522
0.74522
0.74522
0.74522
0.74522
0.74522
0.74522
0.74522
0.74522
0.74522
0.74522
0.74522
0.74522
0.74522
0.74522
0.74522
0.74522
0.74522
0.74522
0.74522
0.74522
0.74522
0.74522
0.74522
0.74522
0.74522
0.74522
0.74522
0.74522
0.74522
0.74522
0.74522
0.74522
0.74522
0.74522
0.74522
0.74522
0.74522
0.74522
0.74522
0.74522
0.74522
0.74522
0.74522
0.74522
0.74522
0.74522
0.74522
0.74522
0.74522
0.74522
0.74522
0.74522
0.74522
0.74522
0.74522
0.74522
0.74522
0.74522
0.74522
0.74522
0.74522
0.74522
0.74522
0.74522
0.74522
0.74522
0.74522
0.74522
0.74522
0.74522
0.74522
0.74522
0.74522
0.74522
0.74522
0.745221
0.745222
0.745224
0.745229
0.74524
0.745261
0.745303
0.745379
0.745496
0.745612
0.745584
0.745325
0.744916
0.744375
0.743849
0.743608
0.743743
0.744055
0.744232
0.744801
0.745
0.745138
0.745225
0.745278
0.74531
0.745328
0.745337
0.745341
0.745342
0.745342
0.74534
0.745337
0.745335
0.745332
0.745329
0.745326
0.745324
0.745321
0.745318
0.745316
0.745314
0.745311
0.745309
0.745307
0.745305
0.745303
0.7453
0.745298
0.745296
0.745293
0.745291
0.745288
0.745285
0.745282
0.745279
0.745276
0.745273
0.745269
0.745266
0.745262
0.745258
0.745254
0.74525
0.745246
0.745241
0.745237
0.745232
0.745228
0.745223
0.745218
0.745213
0.745208
0.745203
0.745198
0.745193
0.745188
0.745183
0.745178
0.745174
0.745169
0.745164
0.74516
0.745155
0.745151
0.745147
0.745144
0.74514
0.745138
0.745135
0.745133
0.745131
0.74513
0.74513
0.74513
0.745131
0.745133
0.745135
0.745139
0.745143
0.745149
0.745155
0.745163
0.745172
0.745181
0.745192
0.745203
0.745215
0.745228
0.745244
0.745262
0.74528
0.7453
0.74532
0.745342
0.745364
0.745387
0.745411
0.745435
0.745459
0.745483
0.745507
0.74553
0.745553
0.745575
0.745597
0.745617
0.745635
0.745653
0.745668
0.745682
0.745693
0.745703
0.74571
0.745714
0.745716
0.745716
0.745712
0.745707
0.745698
0.745687
0.745674
0.745658
0.745639
0.745619
0.745596
0.745571
0.745545
0.745517
0.745488
0.745458
0.745427
0.745396
0.745363
0.745331
0.745299
0.745267
0.745236
0.745206
0.745176
0.745148
0.74512
0.745095
0.74507
0.745048
0.745027
0.745008
0.744991
0.744976
0.744963
0.744952
0.744942
0.744935
0.744929
0.744925
0.744923
0.744923
0.744924
0.744926
0.74493
0.744935
0.744941
0.744948
0.744956
0.744964
0.744973
0.744983
0.744993
0.745003
0.745013
0.745024
0.745034
0.745045
0.745055
0.745065
0.745075
0.745085
0.745095
0.745104
0.745112
0.74512
0.745128
0.745136
0.745143
0.745149
0.745156
0.745161
0.745167
0.745172
0.745176
0.745181
0.745185
0.745188
0.745191
0.745194
0.745197
0.7452
0.745202
0.745204
0.745206
0.745207
0.745209
0.74521
0.745211
0.745212
0.745213
0.745214
0.745215
0.745215
0.745216
0.745216
0.745217
0.745217
)
;

boundaryField
{
    boundary
    {
        type            empty;
    }
    inlet
    {
        type            fixedValue;
        value           uniform 0.74522;
    }
    outlet
    {
        type            zeroGradient;
    }
}


// ************************************************************************* //
