/*--------------------------------*- C++ -*----------------------------------*\
  =========                 |
  \\      /  F ield         | OpenFOAM: The Open Source CFD Toolbox
   \\    /   O peration     | Website:  https://openfoam.org
    \\  /    A nd           | Version:  7
     \\/     M anipulation  |
\*---------------------------------------------------------------------------*/
FoamFile
{
    version     2.0;
    format      ascii;
    class       volScalarField;
    location    "0.0003";
    object      O;
}
// * * * * * * * * * * * * * * * * * * * * * * * * * * * * * * * * * * * * * //

dimensions      [0 0 0 0 0 0 0];

internalField   nonuniform List<scalar> 
500
(
1.58408e-47
3.7889e-47
6.01996e-47
8.27174e-47
1.05492e-46
1.28608e-46
1.52173e-46
1.76311e-46
2.01157e-46
2.26846e-46
2.53504e-46
2.81232e-46
3.10084e-46
3.40058e-46
3.71075e-46
4.02977e-46
4.35517e-46
4.68369e-46
5.0114e-46
5.33388e-46
5.64651e-46
5.94478e-46
6.22457e-46
6.48244e-46
6.71583e-46
6.92318e-46
7.10396e-46
7.25862e-46
7.38846e-46
7.49541e-46
7.58188e-46
7.65049e-46
7.70395e-46
7.74486e-46
7.7756e-46
7.79831e-46
7.81479e-46
7.82656e-46
7.83482e-46
7.84052e-46
7.8444e-46
7.84699e-46
7.8487e-46
7.8498e-46
7.85051e-46
7.85095e-46
7.85123e-46
7.8514e-46
7.8515e-46
7.85156e-46
7.8516e-46
7.85162e-46
7.85164e-46
7.85165e-46
7.85167e-46
7.85168e-46
7.85169e-46
7.85171e-46
7.85173e-46
7.85175e-46
7.85177e-46
7.8518e-46
7.85182e-46
7.85186e-46
7.85189e-46
7.85193e-46
7.85198e-46
7.85202e-46
7.85207e-46
7.85213e-46
7.85219e-46
7.85226e-46
7.85233e-46
7.8524e-46
7.85248e-46
7.85257e-46
7.85266e-46
7.85276e-46
7.85286e-46
7.85298e-46
7.85309e-46
7.85322e-46
7.85335e-46
7.85349e-46
7.85363e-46
7.85379e-46
7.85395e-46
7.85412e-46
7.85429e-46
7.85448e-46
7.85467e-46
7.85488e-46
7.85509e-46
7.85531e-46
7.85554e-46
7.85578e-46
7.85603e-46
7.85629e-46
7.85655e-46
7.85683e-46
7.85712e-46
7.85742e-46
7.85773e-46
7.85805e-46
7.85838e-46
7.85872e-46
7.85908e-46
7.85944e-46
7.85981e-46
7.8602e-46
7.8606e-46
7.861e-46
7.86142e-46
7.86185e-46
7.86229e-46
7.86274e-46
7.8632e-46
7.86367e-46
7.86415e-46
7.86464e-46
7.86513e-46
7.86561e-46
7.86604e-46
7.86633e-46
7.86617e-46
7.8655e-46
7.86598e-46
7.8664e-46
7.86673e-46
7.86697e-46
7.8671e-46
7.86711e-46
7.86699e-46
7.86675e-46
7.86639e-46
7.86595e-46
7.86546e-46
7.86498e-46
7.86457e-46
7.86431e-46
7.86426e-46
7.86446e-46
7.86496e-46
7.86576e-46
7.86685e-46
7.8682e-46
7.86977e-46
7.87149e-46
7.8733e-46
7.87513e-46
7.87693e-46
7.87865e-46
7.88026e-46
7.88173e-46
7.88306e-46
7.88425e-46
7.8853e-46
7.88623e-46
7.88704e-46
7.88776e-46
7.88839e-46
7.88894e-46
7.88943e-46
7.88986e-46
7.89024e-46
7.89056e-46
7.89085e-46
7.89108e-46
7.89127e-46
7.89141e-46
7.8915e-46
7.89154e-46
7.89153e-46
7.89146e-46
7.89133e-46
7.89114e-46
7.89088e-46
7.89056e-46
7.89017e-46
7.8897e-46
7.88915e-46
7.88853e-46
7.88782e-46
7.88702e-46
7.88613e-46
7.88515e-46
7.88407e-46
7.88289e-46
7.88161e-46
7.88021e-46
7.87871e-46
7.87708e-46
7.87534e-46
7.87348e-46
7.87149e-46
7.86938e-46
7.86713e-46
7.86474e-46
7.86222e-46
7.85955e-46
7.85673e-46
7.85377e-46
7.85066e-46
7.84739e-46
7.84397e-46
7.84039e-46
7.83668e-46
7.83298e-46
7.83018e-46
7.83365e-46
7.87535e-46
8.14396e-46
9.74195e-46
1.90465e-45
7.25705e-45
3.77215e-44
2.09312e-43
1.16564e-42
6.43887e-42
3.5202e-41
1.90377e-40
1.01825e-39
5.3854e-39
2.81601e-38
1.45558e-37
7.43624e-37
3.75421e-36
1.87267e-35
9.2281e-35
4.49159e-34
2.15902e-33
1.02473e-32
4.80166e-32
2.22093e-31
1.01384e-30
4.56698e-30
2.0298e-29
8.89969e-29
3.84891e-28
1.64166e-27
6.90499e-27
2.8637e-26
1.17094e-25
4.72015e-25
1.87569e-24
7.34747e-24
2.83716e-23
1.07997e-22
4.05274e-22
1.49949e-21
5.471e-21
1.97044e-20
6.99787e-20
2.45222e-19
8.48405e-19
2.89948e-18
9.79393e-18
3.27175e-17
1.08164e-16
3.54148e-16
1.14924e-15
3.69916e-15
1.18196e-14
3.75189e-14
1.18408e-13
3.71806e-13
1.16242e-12
3.62083e-12
1.12437e-11
3.48253e-11
1.07637e-10
3.32117e-10
1.02364e-09
3.15692e-09
9.80394e-09
3.14272e-08
1.12785e-07
5.33029e-07
3.49493e-06
2.2974e-05
0.000111043
0.000428223
0.00121084
0.00244657
0.00380993
0.00495977
0.00575542
0.00622269
0.00641108
0.0064433
0.00638043
0.00626287
0.00611633
0.00595653
0.00579281
0.00563055
0.00547274
0.00532089
0.0051757
0.00503737
0.00490579
0.00478074
0.00466189
0.00454889
0.00444139
0.00433905
0.00424153
0.00414852
0.00405974
0.00397493
0.00389386
0.00381634
0.00374444
0.00367663
0.0036112
0.00354801
0.00348693
0.00342787
0.00337072
0.00331539
0.00326178
0.00320982
0.00315943
0.00311053
0.00306305
0.00301694
0.00297211
0.00292852
0.00288611
0.00284481
0.00280459
0.00276538
0.00272714
0.00268982
0.00265337
0.00261776
0.00258294
0.00254888
0.00251552
0.00248285
0.00245081
0.00241938
0.00238853
0.00235821
0.0023284
0.00229908
0.0022702
0.00224174
0.00221368
0.00218599
0.00215864
0.0021316
0.00210487
0.0020784
0.00205218
0.00202619
0.00200041
0.00197481
0.00194939
0.00192412
0.00189898
0.00187397
0.00184907
0.00182427
0.00179955
0.00177492
0.00175035
0.00172584
0.00170139
0.001677
0.00165264
0.00162833
0.00160404
0.00157978
0.00155553
0.00153132
0.00150732
0.00148344
0.00145969
0.00143608
0.00141262
0.00138933
0.00136623
0.00134333
0.00132064
0.0012982
0.00127601
0.0012541
0.00123248
0.00121116
0.00119017
0.00116952
0.00114922
0.00112928
0.00110972
0.00109053
0.00107173
0.00105331
0.00103529
0.00101766
0.00100042
0.000983573
0.000967105
0.000951012
0.000935289
0.000919925
0.000904911
0.000890238
0.000875892
0.000861863
0.00084814
0.000834709
0.000821559
0.000808679
0.000796056
0.000783681
0.000771543
0.000759633
0.000747941
0.000736461
0.000725185
0.000714107
0.000703222
0.000692526
0.000682015
0.000671688
0.000661543
0.000651578
0.000641795
0.000632194
0.000622775
0.000613541
0.000604495
0.000595638
0.000586973
0.000578504
0.000570233
0.000562163
0.000554298
0.000546641
0.000539194
0.00053196
0.00052494
0.000518138
0.000511555
0.000505191
0.000499048
0.000493126
0.000487425
0.000481945
0.000476684
0.000471641
0.000466815
0.000462203
0.000457802
0.000453609
0.000449622
0.000445835
0.000442245
0.000438848
0.000435638
0.00043261
0.000429759
0.00042708
0.000424566
0.000422212
0.000420012
0.000417959
0.000416047
0.000414269
0.000412621
0.000411094
0.000409683
0.000408382
0.000407184
0.000406084
0.000405075
0.000404153
0.000403311
0.000402543
0.000401846
0.000401213
0.00040064
0.000400123
0.000399657
0.000399238
0.000398862
0.000398526
0.000398226
0.000397959
0.000397722
0.000397512
0.000397328
0.000397166
0.000397026
0.000396906
0.000396805
0.000396723
0.000396662
0.000396626
)
;

boundaryField
{
    boundary
    {
        type            empty;
    }
    inlet
    {
        type            fixedValue;
        value           uniform 0;
    }
    outlet
    {
        type            zeroGradient;
    }
}


// ************************************************************************* //
