/*--------------------------------*- C++ -*----------------------------------*\
  =========                 |
  \\      /  F ield         | OpenFOAM: The Open Source CFD Toolbox
   \\    /   O peration     | Website:  https://openfoam.org
    \\  /    A nd           | Version:  7
     \\/     M anipulation  |
\*---------------------------------------------------------------------------*/
FoamFile
{
    version     2.0;
    format      ascii;
    class       surfaceScalarField;
    location    "0.0003";
    object      phi;
}
// * * * * * * * * * * * * * * * * * * * * * * * * * * * * * * * * * * * * * //

dimensions      [1 0 -1 0 0 0 0];

internalField   nonuniform List<scalar> 
499
(
6.93058e-06
6.93014e-06
6.92969e-06
6.92921e-06
6.9287e-06
6.92813e-06
6.9275e-06
6.92678e-06
6.92597e-06
6.92504e-06
6.92397e-06
6.92274e-06
6.92135e-06
6.91978e-06
6.91804e-06
6.91613e-06
6.91408e-06
6.91191e-06
6.90965e-06
6.90735e-06
6.90505e-06
6.90278e-06
6.90059e-06
6.89852e-06
6.89659e-06
6.89481e-06
6.89321e-06
6.89178e-06
6.89052e-06
6.88942e-06
6.88846e-06
6.88763e-06
6.88691e-06
6.88629e-06
6.88574e-06
6.88525e-06
6.88481e-06
6.88441e-06
6.88403e-06
6.88368e-06
6.88334e-06
6.88301e-06
6.88269e-06
6.88237e-06
6.88206e-06
6.88175e-06
6.88144e-06
6.88113e-06
6.88082e-06
6.88051e-06
6.88021e-06
6.8799e-06
6.8796e-06
6.87929e-06
6.87898e-06
6.87868e-06
6.87837e-06
6.87807e-06
6.87776e-06
6.87746e-06
6.87715e-06
6.87685e-06
6.87654e-06
6.87624e-06
6.87593e-06
6.87563e-06
6.87532e-06
6.87502e-06
6.87472e-06
6.87441e-06
6.87411e-06
6.8738e-06
6.8735e-06
6.8732e-06
6.87289e-06
6.87259e-06
6.87229e-06
6.87199e-06
6.87168e-06
6.87138e-06
6.87108e-06
6.87078e-06
6.87048e-06
6.87017e-06
6.86987e-06
6.86957e-06
6.86927e-06
6.86897e-06
6.86867e-06
6.86837e-06
6.86807e-06
6.86776e-06
6.86746e-06
6.86716e-06
6.86686e-06
6.86656e-06
6.86626e-06
6.86596e-06
6.86566e-06
6.86537e-06
6.86507e-06
6.86477e-06
6.86447e-06
6.86417e-06
6.86387e-06
6.86357e-06
6.86327e-06
6.86298e-06
6.86268e-06
6.86238e-06
6.86208e-06
6.86178e-06
6.86149e-06
6.86119e-06
6.86089e-06
6.8606e-06
6.8603e-06
6.86e-06
6.85971e-06
6.85941e-06
6.85911e-06
6.85882e-06
6.85852e-06
6.85823e-06
6.85793e-06
6.85764e-06
6.85734e-06
6.85705e-06
6.85675e-06
6.85646e-06
6.85616e-06
6.85587e-06
6.85558e-06
6.85528e-06
6.85499e-06
6.8547e-06
6.8544e-06
6.85411e-06
6.85382e-06
6.85353e-06
6.85324e-06
6.85294e-06
6.85265e-06
6.85236e-06
6.85207e-06
6.85178e-06
6.85149e-06
6.85119e-06
6.8509e-06
6.85061e-06
6.85032e-06
6.85003e-06
6.84974e-06
6.84945e-06
6.84916e-06
6.84887e-06
6.84858e-06
6.8483e-06
6.84801e-06
6.84772e-06
6.84744e-06
6.84715e-06
6.84686e-06
6.84658e-06
6.8463e-06
6.84601e-06
6.84573e-06
6.84544e-06
6.84516e-06
6.84488e-06
6.8446e-06
6.84432e-06
6.84404e-06
6.84376e-06
6.84348e-06
6.8432e-06
6.84293e-06
6.84265e-06
6.84237e-06
6.8421e-06
6.84182e-06
6.84155e-06
6.84128e-06
6.84101e-06
6.84073e-06
6.84046e-06
6.8402e-06
6.83993e-06
6.83966e-06
6.8394e-06
6.83913e-06
6.83887e-06
6.8386e-06
6.83834e-06
6.83808e-06
6.83782e-06
6.83757e-06
6.83731e-06
6.83705e-06
6.8368e-06
6.83655e-06
6.8363e-06
6.83605e-06
6.8358e-06
6.83555e-06
6.8353e-06
6.83506e-06
6.83482e-06
6.83457e-06
6.83433e-06
6.8341e-06
6.83386e-06
6.83362e-06
6.83339e-06
6.83316e-06
6.83293e-06
6.8327e-06
6.83247e-06
6.83224e-06
6.83202e-06
6.8318e-06
6.83158e-06
6.83136e-06
6.83114e-06
6.83092e-06
6.83071e-06
6.83049e-06
6.83028e-06
6.83007e-06
6.82986e-06
6.82965e-06
6.82944e-06
6.82924e-06
6.82903e-06
6.82883e-06
6.82863e-06
6.82843e-06
6.82823e-06
6.82803e-06
6.82783e-06
6.82764e-06
6.82744e-06
6.82724e-06
6.82705e-06
6.82686e-06
6.82667e-06
6.82647e-06
6.82628e-06
6.82609e-06
6.8259e-06
6.82571e-06
6.82552e-06
6.82534e-06
6.82515e-06
6.82496e-06
6.82478e-06
6.82459e-06
6.82441e-06
6.82422e-06
6.82404e-06
6.82386e-06
6.82368e-06
6.8235e-06
6.82332e-06
6.82314e-06
6.82296e-06
6.82278e-06
6.8226e-06
6.82243e-06
6.82226e-06
6.82211e-06
6.82203e-06
6.82216e-06
6.82288e-06
6.82538e-06
6.83288e-06
6.85345e-06
6.90016e-06
6.97217e-06
7.04094e-06
7.0888e-06
7.11975e-06
7.14077e-06
7.15575e-06
7.16648e-06
7.17413e-06
7.17959e-06
7.18357e-06
7.18657e-06
7.18893e-06
7.19084e-06
7.19241e-06
7.19373e-06
7.19487e-06
7.19585e-06
7.19671e-06
7.19748e-06
7.19816e-06
7.19877e-06
7.19933e-06
7.19983e-06
7.20029e-06
7.20071e-06
7.2011e-06
7.20146e-06
7.20179e-06
7.2021e-06
7.20239e-06
7.20265e-06
7.2029e-06
7.20313e-06
7.20334e-06
7.20353e-06
7.2037e-06
7.20387e-06
7.20402e-06
7.20416e-06
7.20429e-06
7.2044e-06
7.20451e-06
7.20461e-06
7.2047e-06
7.20478e-06
7.20485e-06
7.20491e-06
7.20496e-06
7.20501e-06
7.20505e-06
7.20509e-06
7.20512e-06
7.20515e-06
7.20517e-06
7.20519e-06
7.20521e-06
7.20523e-06
7.20525e-06
7.20527e-06
7.2053e-06
7.20533e-06
7.20537e-06
7.20542e-06
7.20548e-06
7.20555e-06
7.20564e-06
7.20574e-06
7.20586e-06
7.206e-06
7.20616e-06
7.20635e-06
7.20657e-06
7.20681e-06
7.20709e-06
7.2074e-06
7.20774e-06
7.20812e-06
7.20855e-06
7.20901e-06
7.20951e-06
7.21005e-06
7.21064e-06
7.21127e-06
7.21193e-06
7.21264e-06
7.21338e-06
7.21415e-06
7.21495e-06
7.21577e-06
7.2166e-06
7.21744e-06
7.21827e-06
7.21909e-06
7.21988e-06
7.22063e-06
7.22131e-06
7.22192e-06
7.22242e-06
7.22281e-06
7.22306e-06
7.22316e-06
7.22309e-06
7.2228e-06
7.22229e-06
7.22152e-06
7.22046e-06
7.21909e-06
7.21738e-06
7.2153e-06
7.21284e-06
7.20995e-06
7.20663e-06
7.20286e-06
7.19861e-06
7.19387e-06
7.18863e-06
7.18288e-06
7.17663e-06
7.16986e-06
7.16259e-06
7.15483e-06
7.14658e-06
7.13787e-06
7.12872e-06
7.11916e-06
7.10921e-06
7.09892e-06
7.08832e-06
7.07745e-06
7.06635e-06
7.05508e-06
7.04369e-06
7.03221e-06
7.02071e-06
7.00923e-06
6.99783e-06
6.98655e-06
6.97544e-06
6.96455e-06
6.95393e-06
6.94361e-06
6.93363e-06
6.92404e-06
6.91486e-06
6.90612e-06
6.89784e-06
6.89006e-06
6.88277e-06
6.876e-06
6.86976e-06
6.86404e-06
6.85885e-06
6.85418e-06
6.85004e-06
6.8464e-06
6.84325e-06
6.84058e-06
6.83837e-06
6.8366e-06
6.83525e-06
6.83428e-06
6.83368e-06
6.83342e-06
6.83347e-06
6.8338e-06
6.83439e-06
6.8352e-06
6.83622e-06
6.83741e-06
6.83875e-06
6.84022e-06
6.84179e-06
6.84344e-06
6.84515e-06
6.84689e-06
6.84867e-06
6.85045e-06
6.85222e-06
6.85397e-06
6.85569e-06
6.85737e-06
6.85901e-06
6.86058e-06
6.8621e-06
6.86355e-06
6.86493e-06
6.86623e-06
6.86747e-06
6.86863e-06
6.86971e-06
6.87072e-06
6.87166e-06
6.87253e-06
6.87333e-06
6.87406e-06
6.87473e-06
6.87534e-06
6.87589e-06
6.87638e-06
6.87682e-06
6.87722e-06
6.87756e-06
6.87787e-06
6.87813e-06
6.87836e-06
6.87855e-06
6.87871e-06
6.87884e-06
6.87894e-06
6.87902e-06
6.87908e-06
6.87912e-06
6.87914e-06
6.87914e-06
6.87912e-06
6.8791e-06
6.87906e-06
6.87901e-06
6.87895e-06
6.87889e-06
6.87882e-06
)
;

boundaryField
{
    boundary
    {
        type            empty;
        value           nonuniform 0();
    }
    inlet
    {
        type            calculated;
        value           uniform -6.93101e-06;
    }
    outlet
    {
        type            calculated;
        value           uniform 6.87874e-06;
    }
}


// ************************************************************************* //
