/*--------------------------------*- C++ -*----------------------------------*\
  =========                 |
  \\      /  F ield         | OpenFOAM: The Open Source CFD Toolbox
   \\    /   O peration     | Website:  https://openfoam.org
    \\  /    A nd           | Version:  7
     \\/     M anipulation  |
\*---------------------------------------------------------------------------*/
FoamFile
{
    version     2.0;
    format      ascii;
    class       volScalarField;
    location    "0.0003";
    object      rho;
}
// * * * * * * * * * * * * * * * * * * * * * * * * * * * * * * * * * * * * * //

dimensions      [1 -3 0 0 0 0 0];

internalField   nonuniform List<scalar> 
500
(
0.864771
0.864754
0.864734
0.86471
0.86468
0.864642
0.864595
0.864537
0.864465
0.864376
0.864269
0.864142
0.863994
0.863825
0.863635
0.863426
0.863201
0.862964
0.862719
0.862472
0.862228
0.861991
0.861766
0.861556
0.861366
0.861195
0.861046
0.860918
0.86081
0.860721
0.860649
0.860592
0.860547
0.860512
0.860486
0.860467
0.860453
0.860443
0.860436
0.860431
0.860427
0.860425
0.860423
0.860422
0.860422
0.860421
0.860421
0.860421
0.860421
0.860421
0.860421
0.860421
0.860421
0.860421
0.86042
0.86042
0.86042
0.86042
0.86042
0.86042
0.86042
0.86042
0.86042
0.86042
0.86042
0.86042
0.86042
0.86042
0.86042
0.860419
0.860419
0.860419
0.860419
0.860419
0.860419
0.860419
0.860419
0.860419
0.860418
0.860418
0.860418
0.860418
0.860418
0.860418
0.860417
0.860417
0.860417
0.860417
0.860417
0.860416
0.860416
0.860416
0.860416
0.860415
0.860415
0.860415
0.860414
0.860414
0.860414
0.860414
0.860413
0.860413
0.860413
0.860412
0.860412
0.860411
0.860411
0.860411
0.86041
0.86041
0.860409
0.860409
0.860408
0.860408
0.860407
0.860407
0.860406
0.860406
0.860405
0.860405
0.860404
0.860404
0.860403
0.860403
0.860402
0.860402
0.860401
0.8604
0.8604
0.860399
0.860399
0.860398
0.860397
0.860397
0.860396
0.860396
0.860395
0.860394
0.860394
0.860393
0.860393
0.860392
0.860391
0.860391
0.86039
0.860389
0.860388
0.860388
0.860387
0.860386
0.860385
0.860384
0.860384
0.860383
0.860382
0.860382
0.860381
0.86038
0.86038
0.860379
0.860379
0.860378
0.860378
0.860377
0.860377
0.860377
0.860376
0.860376
0.860376
0.860376
0.860375
0.860375
0.860375
0.860375
0.860375
0.860375
0.860375
0.860376
0.860376
0.860376
0.860377
0.860377
0.860378
0.860379
0.860379
0.86038
0.860381
0.860382
0.860383
0.860384
0.860386
0.860387
0.860389
0.860391
0.860392
0.860394
0.860396
0.860398
0.860401
0.860403
0.860406
0.860409
0.860411
0.860414
0.860418
0.860421
0.860424
0.860428
0.860432
0.860436
0.86044
0.860444
0.860449
0.860453
0.860458
0.860463
0.860468
0.860473
0.860479
0.860484
0.86049
0.860496
0.860502
0.860508
0.860515
0.860521
0.860528
0.860535
0.860542
0.860549
0.860557
0.860564
0.860572
0.860579
0.860587
0.860595
0.860603
0.860612
0.86062
0.860628
0.860637
0.860645
0.860654
0.860663
0.860672
0.860681
0.86069
0.860699
0.860708
0.860717
0.860726
0.860736
0.860745
0.860754
0.860764
0.860773
0.860783
0.860793
0.860803
0.860812
0.860822
0.860832
0.860842
0.860853
0.860863
0.860874
0.860885
0.860896
0.860907
0.860913
0.860899
0.860819
0.860524
0.859567
0.856622
0.847888
0.823295
0.762212
0.648601
0.512662
0.40363
0.331578
0.284125
0.251102
0.227569
0.211125
0.198956
0.189559
0.1828
0.177805
0.173787
0.170488
0.167717
0.165347
0.16329
0.161481
0.159875
0.158435
0.157135
0.155954
0.154875
0.153883
0.152969
0.152122
0.151334
0.1506
0.149913
0.149268
0.148663
0.148093
0.147555
0.147047
0.14658
0.146145
0.145726
0.145325
0.144941
0.144571
0.144215
0.143873
0.143543
0.143225
0.142917
0.14262
0.142333
0.142055
0.141786
0.141525
0.141272
0.141026
0.140788
0.140556
0.140331
0.140112
0.1399
0.139692
0.139491
0.139295
0.139104
0.138917
0.138736
0.138559
0.138387
0.138219
0.138056
0.137896
0.137741
0.13759
0.137442
0.137298
0.137159
0.137022
0.13689
0.13676
0.136635
0.136512
0.136394
0.136278
0.136165
0.136056
0.13595
0.135846
0.135746
0.135648
0.135552
0.135459
0.135368
0.135279
0.135192
0.135106
0.135021
0.134937
0.134854
0.13477
0.134685
0.1346
0.134517
0.134432
0.134345
0.134256
0.134165
0.13407
0.133972
0.13387
0.133763
0.133651
0.133534
0.133411
0.133282
0.133146
0.133003
0.132853
0.132695
0.13253
0.132358
0.132178
0.131991
0.131796
0.131595
0.131387
0.131173
0.130953
0.130727
0.130498
0.130264
0.130027
0.129788
0.129548
0.129307
0.129066
0.128826
0.128588
0.128352
0.128121
0.127894
0.127672
0.127456
0.127247
0.127046
0.126852
0.126667
0.126491
0.126324
0.126167
0.12602
0.125883
0.125756
0.125639
0.125532
0.125436
0.125349
0.125272
0.125204
0.125146
0.125096
0.125054
0.12502
0.124994
0.124975
0.124961
0.124954
0.124953
0.124956
0.124963
0.124975
0.12499
0.125007
0.125028
0.12505
0.125075
0.1251
0.125127
0.125154
0.125182
0.125209
0.125237
0.125264
0.125291
0.125318
0.125343
0.125368
0.125392
0.125414
0.125436
0.125456
0.125476
0.125494
0.125511
0.125527
0.125542
0.125556
0.125569
0.12558
0.125591
0.125601
0.12561
0.125619
0.125626
0.125633
0.125639
0.125645
0.12565
0.125654
0.125658
0.125661
0.125664
0.125667
0.125669
0.125671
0.125673
0.125675
0.125676
0.125677
0.125678
0.125678
0.125679
0.125679
0.125679
0.12568
0.12568
)
;

boundaryField
{
    boundary
    {
        type            empty;
    }
    inlet
    {
        type            calculated;
        value           uniform 0.864783;
    }
    outlet
    {
        type            calculated;
        value           uniform 0.12568;
    }
}


// ************************************************************************* //
