/*--------------------------------*- C++ -*----------------------------------*\
  =========                 |
  \\      /  F ield         | OpenFOAM: The Open Source CFD Toolbox
   \\    /   O peration     | Website:  https://openfoam.org
    \\  /    A nd           | Version:  7
     \\/     M anipulation  |
\*---------------------------------------------------------------------------*/
FoamFile
{
    version     2.0;
    format      ascii;
    class       volScalarField;
    location    "0.0003";
    object      T;
}
// * * * * * * * * * * * * * * * * * * * * * * * * * * * * * * * * * * * * * //

dimensions      [0 0 0 1 0 0 0];

internalField   nonuniform List<scalar> 
500
(
300.004
300.01
300.017
300.025
300.036
300.049
300.065
300.085
300.111
300.141
300.178
300.222
300.274
300.333
300.399
300.472
300.55
300.632
300.718
300.804
300.889
300.972
301.051
301.124
301.19
301.25
301.302
301.347
301.385
301.416
301.441
301.461
301.477
301.489
301.498
301.505
301.51
301.513
301.516
301.518
301.519
301.52
301.52
301.52
301.521
301.521
301.521
301.521
301.521
301.521
301.521
301.521
301.521
301.521
301.521
301.521
301.521
301.521
301.521
301.521
301.521
301.521
301.521
301.521
301.521
301.521
301.521
301.521
301.521
301.521
301.522
301.522
301.522
301.522
301.522
301.522
301.522
301.522
301.522
301.522
301.522
301.522
301.522
301.522
301.522
301.522
301.522
301.522
301.523
301.523
301.523
301.523
301.523
301.523
301.523
301.523
301.523
301.523
301.523
301.524
301.524
301.524
301.524
301.524
301.524
301.524
301.524
301.525
301.525
301.525
301.525
301.525
301.525
301.525
301.526
301.526
301.526
301.526
301.526
301.527
301.527
301.527
301.527
301.527
301.528
301.528
301.528
301.528
301.528
301.529
301.529
301.529
301.529
301.529
301.53
301.53
301.53
301.53
301.53
301.531
301.531
301.531
301.531
301.532
301.532
301.532
301.532
301.533
301.533
301.533
301.533
301.534
301.534
301.534
301.534
301.535
301.535
301.535
301.535
301.535
301.536
301.536
301.536
301.536
301.536
301.536
301.536
301.537
301.537
301.537
301.537
301.537
301.537
301.537
301.537
301.537
301.537
301.537
301.537
301.536
301.536
301.536
301.536
301.536
301.535
301.535
301.535
301.534
301.534
301.533
301.533
301.533
301.532
301.531
301.531
301.53
301.529
301.529
301.528
301.527
301.526
301.525
301.524
301.523
301.522
301.521
301.519
301.518
301.517
301.515
301.514
301.512
301.511
301.509
301.508
301.506
301.504
301.502
301.5
301.498
301.496
301.494
301.492
301.49
301.488
301.485
301.483
301.481
301.478
301.476
301.473
301.47
301.468
301.465
301.462
301.459
301.457
301.454
301.451
301.448
301.445
301.442
301.439
301.436
301.433
301.429
301.426
301.423
301.42
301.417
301.413
301.41
301.407
301.403
301.4
301.397
301.393
301.39
301.387
301.383
301.38
301.376
301.373
301.369
301.366
301.362
301.359
301.356
301.354
301.357
301.371
301.42
301.567
301.993
303.22
306.732
316.691
343.677
406.985
520.292
668.737
823.982
972.631
1111.31
1235.42
1338.88
1426.62
1501.01
1560.23
1607.43
1647.71
1682.49
1713
1740.08
1764.38
1786.38
1806.44
1824.84
1841.81
1857.54
1872.18
1885.85
1898.65
1910.68
1922.02
1932.72
1942.86
1952.47
1961.6
1970.28
1978.56
1986.43
1993.75
2000.61
2007.26
2013.67
2019.86
2025.85
2031.65
2037.27
2042.72
2048
2053.13
2058.11
2062.95
2067.66
2072.24
2076.7
2081.05
2085.28
2089.4
2093.42
2097.34
2101.16
2104.89
2108.53
2112.08
2115.54
2118.92
2122.23
2125.45
2128.6
2131.66
2134.66
2137.58
2140.43
2143.21
2145.92
2148.56
2151.13
2153.64
2156.08
2158.45
2160.75
2162.99
2165.17
2167.28
2169.33
2171.31
2173.24
2175.11
2176.92
2178.67
2180.37
2182.01
2183.61
2185.16
2186.67
2188.14
2189.58
2190.99
2192.37
2193.74
2195.09
2196.45
2197.81
2199.16
2200.53
2201.92
2203.34
2204.81
2206.33
2207.91
2209.55
2211.28
2213.1
2215.01
2217.03
2219.16
2221.41
2223.79
2226.31
2228.97
2231.76
2234.71
2237.81
2241.05
2244.44
2247.98
2251.66
2255.48
2259.43
2263.5
2267.69
2271.99
2276.37
2280.84
2285.37
2289.96
2294.58
2299.23
2303.88
2308.53
2313.15
2317.72
2322.25
2326.7
2331.07
2335.34
2339.49
2343.53
2347.43
2351.18
2354.79
2358.23
2361.51
2364.62
2367.56
2370.33
2372.92
2375.34
2377.59
2379.66
2381.57
2383.33
2384.92
2386.37
2387.68
2388.85
2389.89
2390.82
2391.63
2392.34
2392.96
2393.48
2393.93
2394.31
2394.62
2394.87
2395.07
2395.23
2395.35
2395.43
2395.49
2395.52
2395.53
2395.52
2395.51
2395.48
2395.44
2395.4
2395.35
2395.3
2395.25
2395.2
2395.15
2395.1
2395.06
2395.02
2394.98
2394.94
2394.91
2394.88
2394.86
2394.83
2394.82
2394.8
2394.78
2394.77
2394.76
2394.76
2394.75
2394.75
2394.75
2394.75
2394.75
2394.75
2394.75
2394.76
2394.76
2394.77
2394.77
2394.78
2394.78
2394.79
2394.8
2394.81
2394.81
2394.82
2394.82
)
;

boundaryField
{
    boundary
    {
        type            empty;
    }
    inlet
    {
        type            fixedValue;
        value           uniform 300;
    }
    outlet
    {
        type            zeroGradient;
    }
}


// ************************************************************************* //
