/*--------------------------------*- C++ -*----------------------------------*\
  =========                 |
  \\      /  F ield         | OpenFOAM: The Open Source CFD Toolbox
   \\    /   O peration     | Website:  https://openfoam.org
    \\  /    A nd           | Version:  7
     \\/     M anipulation  |
\*---------------------------------------------------------------------------*/
FoamFile
{
    version     2.0;
    format      ascii;
    class       volScalarField;
    location    "0.00044";
    object      H2;
}
// * * * * * * * * * * * * * * * * * * * * * * * * * * * * * * * * * * * * * //

dimensions      [0 0 0 0 0 0 0];

internalField   nonuniform List<scalar> 
500
(
0.0285116
0.0285116
0.0285116
0.0285116
0.0285116
0.0285116
0.0285116
0.0285116
0.0285116
0.0285116
0.0285116
0.0285116
0.0285116
0.0285116
0.0285116
0.0285116
0.0285116
0.0285116
0.0285116
0.0285116
0.0285116
0.0285116
0.0285116
0.0285116
0.0285116
0.0285116
0.0285116
0.0285116
0.0285116
0.0285116
0.0285116
0.0285116
0.0285116
0.0285116
0.0285116
0.0285116
0.0285116
0.0285116
0.0285116
0.0285116
0.0285116
0.0285116
0.0285116
0.0285116
0.0285116
0.0285116
0.0285116
0.0285116
0.0285116
0.0285116
0.0285116
0.0285116
0.0285116
0.0285116
0.0285116
0.0285116
0.0285116
0.0285116
0.0285116
0.0285116
0.0285116
0.0285116
0.0285116
0.0285116
0.0285116
0.0285116
0.0285116
0.0285116
0.0285116
0.0285116
0.0285116
0.0285116
0.0285116
0.0285116
0.0285116
0.0285116
0.0285116
0.0285116
0.0285116
0.0285116
0.0285116
0.0285116
0.0285116
0.0285116
0.0285116
0.0285116
0.0285116
0.0285116
0.0285116
0.0285116
0.0285116
0.0285116
0.0285116
0.0285116
0.0285116
0.0285116
0.0285116
0.0285116
0.0285116
0.0285116
0.0285116
0.0285116
0.0285116
0.0285116
0.0285116
0.0285116
0.0285116
0.0285116
0.0285116
0.0285116
0.0285116
0.0285116
0.0285116
0.0285116
0.0285116
0.0285116
0.0285116
0.0285116
0.0285116
0.0285116
0.0285116
0.0285116
0.0285116
0.0285116
0.0285116
0.0285116
0.0285116
0.0285116
0.0285116
0.0285116
0.0285116
0.0285116
0.0285116
0.0285116
0.0285116
0.0285116
0.0285116
0.0285116
0.0285116
0.0285116
0.0285116
0.0285116
0.0285116
0.0285116
0.0285116
0.0285116
0.0285116
0.0285116
0.0285116
0.0285116
0.0285116
0.0285116
0.0285116
0.0285116
0.0285116
0.0285116
0.0285116
0.0285116
0.0285116
0.0285116
0.0285116
0.0285116
0.0285116
0.0285116
0.0285116
0.0285116
0.0285116
0.0285116
0.0285116
0.0285116
0.0285116
0.0285116
0.0285116
0.0285116
0.0285116
0.0285116
0.0285116
0.0285116
0.0285116
0.0285116
0.0285116
0.0285116
0.0285116
0.0285116
0.0285116
0.0285116
0.0285116
0.0285116
0.0285116
0.0285116
0.0285116
0.0285116
0.0285116
0.0285116
0.0285116
0.0285116
0.0285116
0.0285116
0.0285116
0.0285116
0.0285116
0.0285116
0.0285116
0.0285116
0.0285116
0.0285116
0.0285116
0.0285116
0.0285116
0.0285116
0.0285116
0.0285116
0.0285116
0.0285116
0.0285116
0.0285116
0.0285116
0.0285116
0.0285116
0.0285116
0.0285116
0.0285116
0.0285116
0.0285116
0.0285116
0.0285116
0.0285116
0.0285116
0.0285116
0.0285116
0.0285116
0.0285116
0.0285116
0.0285116
0.0285116
0.0285116
0.0285116
0.0285116
0.0285116
0.0285116
0.0285116
0.0285116
0.0285116
0.0285116
0.0285116
0.0285116
0.0285116
0.0285116
0.0285116
0.0285116
0.0285116
0.0285116
0.0285116
0.0285116
0.0285116
0.0285116
0.0285116
0.0285116
0.0285116
0.0285116
0.0285116
0.0285116
0.0285116
0.0285115
0.0285115
0.0285113
0.028511
0.0285104
0.0285091
0.0285064
0.0285008
0.028489
0.0284644
0.0284132
0.0283068
0.0280885
0.027653
0.0268395
0.0254775
0.0235023
0.0210566
0.0182776
0.0152554
0.0122278
0.00956767
0.00753294
0.00602458
0.00511761
0.0045516
0.004203
0.00398758
0.00385179
0.00376288
0.00370126
0.00365538
0.00361853
0.00358682
0.00355803
0.00353092
0.00350481
0.00347932
0.00345428
0.00342961
0.00340527
0.00338126
0.0033576
0.00333428
0.00331134
0.00328878
0.0032666
0.00324482
0.00322343
0.00320307
0.00318355
0.00316432
0.00314538
0.00312671
0.00310832
0.0030902
0.00307234
0.00305474
0.00303739
0.00302029
0.00300342
0.00298679
0.00297039
0.00295422
0.00293826
0.00292251
0.00290698
0.00289165
0.00287652
0.00286158
0.00284684
0.00283229
0.00281793
0.00280374
0.00278974
0.00277592
0.00276227
0.00274879
0.00273548
0.00272234
0.00270936
0.00269654
0.00268388
0.00267137
0.00265903
0.00264683
0.00263478
0.00262289
0.00261114
0.00259953
0.00258807
0.00257674
0.00256556
0.00255452
0.00254361
0.00253284
0.00252221
0.00251171
0.00250135
0.00249112
0.00248102
0.00247107
0.00246125
0.00245157
0.00244203
0.00243263
0.00242339
0.0024143
0.00240537
0.00239662
0.00238806
0.00237971
0.00237159
0.00236345
0.00235517
0.00234705
0.00233908
0.00233125
0.00232357
0.00231604
0.00230865
0.00230142
0.00229434
0.00228741
0.00228064
0.00227404
0.0022676
0.00226132
0.00225522
0.00224929
0.00224354
0.00223798
0.0022326
0.00222741
0.00222241
0.00221762
0.00221302
0.00220864
0.00220446
0.0022005
0.00219676
0.00219323
0.00218994
0.00218687
0.00218403
0.00218142
0.00217904
0.0021769
0.002175
0.00217333
0.0021719
0.00217069
0.00216972
0.00216898
0.00216845
0.00216814
0.00216804
0.00216814
0.00216843
0.00216891
0.00216955
0.00217035
0.00217129
0.00217235
0.00217352
0.00217479
0.00217612
0.00217749
0.0021789
0.0021803
0.00218168
0.00218301
0.00218426
0.0021854
0.00218641
0.00218725
0.0021879
0.00218832
0.00218848
0.00218836
0.00218791
0.00218712
0.00218596
0.00218438
0.00218237
0.0021799
0.00217694
0.00217347
0.00216947
0.00216491
0.00215978
0.00215407
0.00214775
0.00214082
0.00213326
0.00212508
0.00211627
0.00210682
0.00209674
0.00208604
0.00207472
0.00206279
0.00205026
0.00203715
0.00202348
0.00200926
0.00199452
0.00197929
0.00196359
0.00194746
0.00193091
0.00191399
0.00189673
0.00187916
0.00186132
0.00184325
0.00182499
0.00180658
0.00178806
0.00176947
0.00175085
0.00173225
0.00171372
0.00169529
0.00167703
0.00165898
0.00164122
0.0016238
0.00160682
0.00159039
0.00157464
0.00155975
0.00154596
0.00153359
0.0015231
0.0015151
0.00151048
)
;

boundaryField
{
    boundary
    {
        type            empty;
    }
    inlet
    {
        type            fixedValue;
        value           uniform 0.0285116;
    }
    outlet
    {
        type            zeroGradient;
    }
}


// ************************************************************************* //
