/*--------------------------------*- C++ -*----------------------------------*\
  =========                 |
  \\      /  F ield         | OpenFOAM: The Open Source CFD Toolbox
   \\    /   O peration     | Website:  https://openfoam.org
    \\  /    A nd           | Version:  7
     \\/     M anipulation  |
\*---------------------------------------------------------------------------*/
FoamFile
{
    version     2.0;
    format      ascii;
    class       volScalarField;
    location    "0.00044";
    object      H2O;
}
// * * * * * * * * * * * * * * * * * * * * * * * * * * * * * * * * * * * * * //

dimensions      [0 0 0 0 0 0 0];

internalField   nonuniform List<scalar> 
500
(
7.90496e-48
2.28595e-47
4.11586e-47
6.17372e-47
8.38808e-47
1.07117e-46
1.31139e-46
1.55754e-46
1.80853e-46
2.06384e-46
2.32342e-46
2.58759e-46
2.85697e-46
3.13245e-46
3.41515e-46
3.70636e-46
4.00746e-46
4.3199e-46
4.64504e-46
4.98405e-46
5.33783e-46
5.7068e-46
6.09087e-46
6.48927e-46
6.90049e-46
7.32228e-46
7.75166e-46
8.18496e-46
8.618e-46
9.04622e-46
9.46491e-46
9.86941e-46
1.02554e-45
1.06189e-45
1.09568e-45
1.12668e-45
1.15472e-45
1.17973e-45
1.20175e-45
1.22085e-45
1.2372e-45
1.251e-45
1.26249e-45
1.27193e-45
1.27957e-45
1.28568e-45
1.2905e-45
1.29426e-45
1.29714e-45
1.29933e-45
1.30097e-45
1.30218e-45
1.30307e-45
1.30371e-45
1.30417e-45
1.30449e-45
1.30472e-45
1.30488e-45
1.30498e-45
1.30506e-45
1.30511e-45
1.30514e-45
1.30516e-45
1.30518e-45
1.30519e-45
1.3052e-45
1.30521e-45
1.30521e-45
1.30522e-45
1.30523e-45
1.30523e-45
1.30524e-45
1.30525e-45
1.30525e-45
1.30526e-45
1.30527e-45
1.30528e-45
1.30529e-45
1.3053e-45
1.30531e-45
1.30533e-45
1.30534e-45
1.30535e-45
1.30537e-45
1.30538e-45
1.3054e-45
1.30542e-45
1.30544e-45
1.30546e-45
1.30548e-45
1.3055e-45
1.30552e-45
1.30555e-45
1.30557e-45
1.3056e-45
1.30563e-45
1.30566e-45
1.30569e-45
1.30572e-45
1.30576e-45
1.30579e-45
1.30583e-45
1.30587e-45
1.30591e-45
1.30595e-45
1.30599e-45
1.30604e-45
1.30608e-45
1.30613e-45
1.30618e-45
1.30623e-45
1.30629e-45
1.30634e-45
1.3064e-45
1.30646e-45
1.30652e-45
1.30658e-45
1.30664e-45
1.30671e-45
1.30678e-45
1.30684e-45
1.30689e-45
1.30685e-45
1.30648e-45
1.30481e-45
1.30171e-45
1.30214e-45
1.30272e-45
1.30344e-45
1.30427e-45
1.30515e-45
1.30601e-45
1.30678e-45
1.30743e-45
1.30794e-45
1.3083e-45
1.30854e-45
1.30867e-45
1.30871e-45
1.30869e-45
1.30862e-45
1.30852e-45
1.30839e-45
1.30825e-45
1.30811e-45
1.30797e-45
1.30785e-45
1.30775e-45
1.30769e-45
1.30766e-45
1.30768e-45
1.30774e-45
1.30785e-45
1.308e-45
1.30819e-45
1.30841e-45
1.30865e-45
1.30892e-45
1.30919e-45
1.30947e-45
1.30974e-45
1.31e-45
1.31025e-45
1.31048e-45
1.3107e-45
1.31089e-45
1.31107e-45
1.31123e-45
1.31138e-45
1.3115e-45
1.31162e-45
1.31172e-45
1.31181e-45
1.31189e-45
1.31196e-45
1.31202e-45
1.31207e-45
1.31211e-45
1.31215e-45
1.31217e-45
1.31219e-45
1.3122e-45
1.3122e-45
1.31219e-45
1.31216e-45
1.31213e-45
1.31209e-45
1.31204e-45
1.31197e-45
1.31189e-45
1.3118e-45
1.31169e-45
1.31157e-45
1.31144e-45
1.31129e-45
1.31112e-45
1.31094e-45
1.31074e-45
1.31052e-45
1.31029e-45
1.31003e-45
1.30976e-45
1.30947e-45
1.30916e-45
1.30886e-45
1.30865e-45
1.309e-45
1.31212e-45
1.32859e-45
1.40856e-45
1.78774e-45
3.56595e-45
1.18377e-44
5.00467e-44
2.25442e-43
1.02629e-42
4.66754e-42
2.11773e-41
9.59558e-41
4.34999e-40
1.97733e-39
9.03396e-39
4.15825e-38
1.9323e-37
9.07861e-37
4.3156e-36
2.07504e-35
1.008e-34
4.93753e-34
2.43293e-33
1.20279e-32
5.95082e-32
2.93945e-31
1.44664e-30
7.08112e-30
3.44251e-29
1.66029e-28
7.93681e-28
3.75815e-27
1.76185e-26
8.17538e-26
3.75444e-25
1.70648e-24
7.67808e-24
3.42072e-23
1.50953e-22
6.60053e-22
2.8607e-21
1.2293e-20
5.23921e-20
2.21527e-19
9.3958e-19
3.93041e-18
1.62693e-17
6.68754e-17
2.73309e-16
1.11131e-15
4.49846e-15
1.81375e-14
7.28786e-14
2.9197e-13
1.16677e-12
4.65277e-12
1.85214e-11
7.36222e-11
2.92304e-10
1.15945e-09
4.59569e-09
1.82055e-08
7.20886e-08
2.85349e-07
1.12907e-06
4.46457e-06
1.76253e-05
6.92628e-05
0.000268644
0.00100486
0.00343115
0.00973857
0.0214435
0.0373821
0.0567659
0.0800183
0.105881
0.13056
0.150399
0.167861
0.178289
0.185294
0.190024
0.193299
0.195657
0.197438
0.198853
0.200029
0.201045
0.201949
0.202773
0.203534
0.204246
0.204918
0.205554
0.206161
0.20674
0.207295
0.207827
0.208339
0.208832
0.209307
0.209766
0.210208
0.210636
0.211036
0.211419
0.211791
0.212155
0.212509
0.212856
0.213194
0.213525
0.213848
0.214164
0.214474
0.214776
0.215073
0.215363
0.215647
0.215926
0.216199
0.216466
0.216728
0.216986
0.217238
0.217486
0.217729
0.217967
0.218202
0.218432
0.218658
0.218881
0.219099
0.219314
0.219526
0.219734
0.219939
0.22014
0.220339
0.220535
0.220727
0.220917
0.221104
0.221289
0.221471
0.22165
0.221827
0.222002
0.222174
0.222344
0.222512
0.222678
0.222842
0.223003
0.223163
0.223321
0.223478
0.223632
0.223785
0.223937
0.224086
0.224235
0.224382
0.224529
0.224674
0.224819
0.224964
0.225109
0.225252
0.225393
0.225533
0.225671
0.225809
0.225947
0.226084
0.22622
0.226357
0.226493
0.226629
0.226765
0.226901
0.227037
0.227173
0.22731
0.227447
0.227584
0.227723
0.227862
0.228001
0.228142
0.228284
0.228427
0.228571
0.228716
0.228863
0.229012
0.229161
0.229313
0.229466
0.229622
0.229779
0.229937
0.230098
0.230261
0.230425
0.230591
0.230759
0.230929
0.231101
0.231274
0.231448
0.231624
0.231801
0.231979
0.232158
0.232338
0.232518
0.232698
0.232878
0.233058
0.233238
0.233417
0.233595
0.233772
0.233948
0.234122
0.234295
0.234465
0.234634
0.2348
0.234964
0.235125
0.235284
0.23544
0.235593
0.235743
0.23589
0.236035
0.236176
0.236314
0.236449
0.236581
0.236709
0.236835
0.236958
0.237079
0.237196
0.237311
0.237422
0.237532
0.237638
0.237742
0.237844
0.237943
0.23804
0.238134
0.238226
0.238316
0.238403
0.238488
0.238571
0.238651
0.238729
0.238805
0.238878
0.23895
0.239018
0.239085
0.239148
0.23921
0.239269
0.239325
0.239379
0.239431
0.23948
0.239526
0.239571
0.239612
0.239651
0.239688
0.239722
0.239754
0.239784
0.239811
0.239836
0.239858
0.239878
0.239895
0.239909
0.239921
0.239929
0.239933
)
;

boundaryField
{
    boundary
    {
        type            empty;
    }
    inlet
    {
        type            fixedValue;
        value           uniform 0;
    }
    outlet
    {
        type            zeroGradient;
    }
}


// ************************************************************************* //
