/*--------------------------------*- C++ -*----------------------------------*\
  =========                 |
  \\      /  F ield         | OpenFOAM: The Open Source CFD Toolbox
   \\    /   O peration     | Website:  https://openfoam.org
    \\  /    A nd           | Version:  7
     \\/     M anipulation  |
\*---------------------------------------------------------------------------*/
FoamFile
{
    version     2.0;
    format      ascii;
    class       volScalarField;
    location    "0.00044";
    object      HO2;
}
// * * * * * * * * * * * * * * * * * * * * * * * * * * * * * * * * * * * * * //

dimensions      [0 0 0 0 0 0 0];

internalField   nonuniform List<scalar> 
500
(
5.60319e-38
1.27605e-37
1.99541e-37
2.71646e-37
3.43889e-37
4.1629e-37
4.8889e-37
5.61749e-37
6.34949e-37
7.08593e-37
7.82816e-37
8.57782e-37
9.33689e-37
1.01077e-36
1.0893e-36
1.16955e-36
1.25184e-36
1.33646e-36
1.42368e-36
1.51371e-36
1.6067e-36
1.70267e-36
1.80151e-36
1.90295e-36
2.00657e-36
2.11176e-36
2.21776e-36
2.32366e-36
2.42848e-36
2.53114e-36
2.63057e-36
2.72576e-36
2.81576e-36
2.89978e-36
2.97719e-36
3.04758e-36
3.11072e-36
3.16658e-36
3.21533e-36
3.25729e-36
3.29291e-36
3.32274e-36
3.34738e-36
3.36746e-36
3.3836e-36
3.39641e-36
3.40643e-36
3.41418e-36
3.4201e-36
3.42456e-36
3.42787e-36
3.43031e-36
3.43208e-36
3.43336e-36
3.43426e-36
3.4349e-36
3.43534e-36
3.43564e-36
3.43585e-36
3.43599e-36
3.43609e-36
3.43615e-36
3.4362e-36
3.43623e-36
3.43625e-36
3.43627e-36
3.43629e-36
3.4363e-36
3.43631e-36
3.43633e-36
3.43634e-36
3.43636e-36
3.43637e-36
3.43639e-36
3.43641e-36
3.43643e-36
3.43645e-36
3.43647e-36
3.43649e-36
3.43652e-36
3.43655e-36
3.43657e-36
3.4366e-36
3.43664e-36
3.43667e-36
3.43671e-36
3.43674e-36
3.43678e-36
3.43683e-36
3.43687e-36
3.43692e-36
3.43697e-36
3.43702e-36
3.43707e-36
3.43713e-36
3.43719e-36
3.43725e-36
3.43731e-36
3.43738e-36
3.43745e-36
3.43752e-36
3.4376e-36
3.43768e-36
3.43776e-36
3.43785e-36
3.43794e-36
3.43803e-36
3.43812e-36
3.43822e-36
3.43833e-36
3.43843e-36
3.43854e-36
3.43865e-36
3.43877e-36
3.43889e-36
3.43901e-36
3.43914e-36
3.43927e-36
3.43941e-36
3.43954e-36
3.43967e-36
3.43976e-36
3.43966e-36
3.4388e-36
3.43486e-36
3.42701e-36
3.42764e-36
3.42849e-36
3.42962e-36
3.431e-36
3.43259e-36
3.43427e-36
3.43591e-36
3.43738e-36
3.43857e-36
3.4394e-36
3.43985e-36
3.43995e-36
3.43974e-36
3.43929e-36
3.43869e-36
3.438e-36
3.43731e-36
3.43667e-36
3.43614e-36
3.43575e-36
3.43554e-36
3.4355e-36
3.43566e-36
3.43598e-36
3.43647e-36
3.43709e-36
3.43782e-36
3.43865e-36
3.43953e-36
3.44044e-36
3.44136e-36
3.44227e-36
3.44315e-36
3.44399e-36
3.44477e-36
3.4455e-36
3.44616e-36
3.44675e-36
3.44729e-36
3.44776e-36
3.44818e-36
3.44855e-36
3.44887e-36
3.44916e-36
3.44941e-36
3.44963e-36
3.44982e-36
3.44999e-36
3.45013e-36
3.45026e-36
3.45037e-36
3.45046e-36
3.45053e-36
3.45059e-36
3.45062e-36
3.45064e-36
3.45064e-36
3.45063e-36
3.45059e-36
3.45053e-36
3.45044e-36
3.45034e-36
3.45021e-36
3.45005e-36
3.44987e-36
3.44966e-36
3.44943e-36
3.44916e-36
3.44886e-36
3.44853e-36
3.44817e-36
3.44777e-36
3.44734e-36
3.44687e-36
3.44636e-36
3.44582e-36
3.44523e-36
3.4446e-36
3.44393e-36
3.44322e-36
3.44246e-36
3.44166e-36
3.4408e-36
3.43991e-36
3.43896e-36
3.43796e-36
3.43691e-36
3.43581e-36
3.43465e-36
3.43345e-36
3.4322e-36
3.43093e-36
3.42978e-36
3.4293e-36
3.43191e-36
3.44769e-36
3.51883e-36
3.81972e-36
5.06504e-36
1.01578e-35
3.07912e-35
1.13691e-34
4.44234e-34
1.75324e-33
6.90737e-33
2.71119e-32
1.061e-31
4.14692e-31
1.62245e-30
6.37047e-30
2.51724e-29
1.00368e-28
4.04748e-28
1.65351e-27
6.84815e-27
2.87452e-26
1.22144e-25
5.24434e-25
2.27018e-24
9.88495e-24
4.32004e-23
1.89134e-22
8.28193e-22
3.62277e-21
1.58163e-20
6.95202e-20
3.02933e-19
1.31172e-18
5.65885e-18
2.43386e-17
1.04394e-16
4.46659e-16
1.90678e-15
8.12377e-15
3.45499e-14
1.46712e-13
6.22152e-13
2.63524e-12
1.11506e-11
4.71396e-11
1.99122e-10
8.40473e-10
3.54487e-09
1.49388e-08
6.28658e-08
2.63778e-07
1.09904e-06
4.50946e-06
1.78997e-05
6.59383e-05
0.000204913
0.000435295
0.000520898
0.000455207
0.000343128
0.000243704
0.000170894
0.000119602
8.38302e-05
5.97704e-05
4.12822e-05
3.10059e-05
2.44256e-05
2.01242e-05
1.72199e-05
1.51781e-05
1.36791e-05
1.25319e-05
1.16206e-05
1.08737e-05
1.02456e-05
9.70654e-06
9.23644e-06
8.82117e-06
8.45056e-06
8.11702e-06
7.81474e-06
7.53919e-06
7.28673e-06
7.05441e-06
6.83981e-06
6.64089e-06
6.45595e-06
6.28358e-06
6.12258e-06
5.97202e-06
5.83531e-06
5.70826e-06
5.58768e-06
5.47308e-06
5.36403e-06
5.26013e-06
5.16103e-06
5.0664e-06
4.97595e-06
4.88942e-06
4.80657e-06
4.72717e-06
4.65103e-06
4.57795e-06
4.50776e-06
4.44031e-06
4.37543e-06
4.31299e-06
4.25287e-06
4.19494e-06
4.13908e-06
4.08519e-06
4.03317e-06
3.98294e-06
3.93439e-06
3.88746e-06
3.84206e-06
3.79812e-06
3.75557e-06
3.71435e-06
3.6744e-06
3.63566e-06
3.59809e-06
3.56162e-06
3.52621e-06
3.49182e-06
3.45841e-06
3.42593e-06
3.39435e-06
3.36363e-06
3.33373e-06
3.30464e-06
3.2763e-06
3.2487e-06
3.22181e-06
3.1956e-06
3.17004e-06
3.14511e-06
3.12079e-06
3.09706e-06
3.07388e-06
3.05125e-06
3.02915e-06
3.00754e-06
2.98642e-06
2.96576e-06
2.94554e-06
2.92575e-06
2.90636e-06
2.88734e-06
2.86867e-06
2.85032e-06
2.83225e-06
2.81438e-06
2.79684e-06
2.77978e-06
2.76301e-06
2.74653e-06
2.73031e-06
2.71433e-06
2.69858e-06
2.68304e-06
2.66768e-06
2.65251e-06
2.63749e-06
2.62261e-06
2.60786e-06
2.59321e-06
2.57865e-06
2.56416e-06
2.54972e-06
2.53532e-06
2.52092e-06
2.50653e-06
2.4921e-06
2.47764e-06
2.46311e-06
2.4485e-06
2.43379e-06
2.41896e-06
2.40399e-06
2.38887e-06
2.37357e-06
2.35808e-06
2.34238e-06
2.32646e-06
2.31031e-06
2.29391e-06
2.27725e-06
2.26032e-06
2.24312e-06
2.22564e-06
2.20788e-06
2.18983e-06
2.17151e-06
2.15291e-06
2.13404e-06
2.11492e-06
2.09555e-06
2.07596e-06
2.05616e-06
2.03618e-06
2.01604e-06
1.99578e-06
1.97542e-06
1.955e-06
1.93455e-06
1.91412e-06
1.89375e-06
1.87348e-06
1.85336e-06
1.83343e-06
1.81374e-06
1.79435e-06
1.77529e-06
1.75663e-06
1.7384e-06
1.72066e-06
1.70346e-06
1.68683e-06
1.67084e-06
1.65551e-06
1.64089e-06
1.62702e-06
1.61393e-06
1.60164e-06
1.5902e-06
1.57962e-06
1.56993e-06
1.56112e-06
1.55323e-06
1.54624e-06
1.54016e-06
1.53499e-06
1.53072e-06
1.52732e-06
1.52479e-06
1.5231e-06
1.52222e-06
1.52212e-06
1.52275e-06
1.52409e-06
1.52609e-06
1.5287e-06
1.53188e-06
1.53557e-06
1.53973e-06
1.54431e-06
1.54925e-06
1.55451e-06
1.56003e-06
1.56576e-06
1.57167e-06
1.57771e-06
1.58383e-06
1.59e-06
1.59618e-06
1.60234e-06
1.60845e-06
1.61448e-06
1.62042e-06
1.62624e-06
1.63192e-06
1.63746e-06
1.64285e-06
1.64806e-06
1.65311e-06
1.65798e-06
1.66266e-06
1.66716e-06
1.67147e-06
1.67557e-06
1.67947e-06
1.68314e-06
1.68655e-06
1.68961e-06
1.69218e-06
1.69389e-06
)
;

boundaryField
{
    boundary
    {
        type            empty;
    }
    inlet
    {
        type            fixedValue;
        value           uniform 0;
    }
    outlet
    {
        type            zeroGradient;
    }
}


// ************************************************************************* //
