/*--------------------------------*- C++ -*----------------------------------*\
  =========                 |
  \\      /  F ield         | OpenFOAM: The Open Source CFD Toolbox
   \\    /   O peration     | Website:  https://openfoam.org
    \\  /    A nd           | Version:  7
     \\/     M anipulation  |
\*---------------------------------------------------------------------------*/
FoamFile
{
    version     2.0;
    format      ascii;
    class       volScalarField;
    location    "0.00044";
    object      N2;
}
// * * * * * * * * * * * * * * * * * * * * * * * * * * * * * * * * * * * * * //

dimensions      [0 0 0 0 0 0 0];

internalField   nonuniform List<scalar> 
500
(
0.745219
0.745219
0.745219
0.745219
0.745219
0.745219
0.745219
0.745219
0.745219
0.745219
0.745219
0.745219
0.745219
0.745219
0.745219
0.745219
0.745219
0.745219
0.745219
0.745219
0.745219
0.745219
0.745219
0.745219
0.745219
0.745219
0.745219
0.745219
0.745219
0.74522
0.74522
0.74522
0.74522
0.74522
0.74522
0.74522
0.74522
0.74522
0.74522
0.74522
0.74522
0.74522
0.74522
0.74522
0.74522
0.74522
0.74522
0.74522
0.74522
0.74522
0.74522
0.74522
0.74522
0.74522
0.74522
0.74522
0.74522
0.74522
0.74522
0.74522
0.74522
0.74522
0.74522
0.74522
0.74522
0.74522
0.74522
0.74522
0.74522
0.74522
0.74522
0.74522
0.74522
0.74522
0.74522
0.74522
0.74522
0.74522
0.74522
0.74522
0.74522
0.74522
0.74522
0.74522
0.74522
0.74522
0.74522
0.74522
0.74522
0.74522
0.74522
0.74522
0.74522
0.74522
0.74522
0.74522
0.74522
0.74522
0.74522
0.74522
0.74522
0.74522
0.74522
0.74522
0.74522
0.74522
0.74522
0.74522
0.74522
0.74522
0.74522
0.74522
0.74522
0.74522
0.74522
0.74522
0.74522
0.74522
0.74522
0.74522
0.74522
0.74522
0.74522
0.74522
0.74522
0.74522
0.74522
0.74522
0.74522
0.74522
0.74522
0.74522
0.74522
0.74522
0.74522
0.74522
0.74522
0.74522
0.74522
0.74522
0.74522
0.74522
0.74522
0.74522
0.74522
0.74522
0.74522
0.74522
0.74522
0.74522
0.74522
0.74522
0.74522
0.74522
0.74522
0.74522
0.74522
0.74522
0.74522
0.74522
0.74522
0.74522
0.74522
0.74522
0.74522
0.74522
0.74522
0.74522
0.74522
0.74522
0.74522
0.74522
0.74522
0.74522
0.74522
0.74522
0.74522
0.74522
0.74522
0.74522
0.74522
0.74522
0.74522
0.74522
0.74522
0.74522
0.74522
0.74522
0.74522
0.74522
0.74522
0.74522
0.74522
0.74522
0.74522
0.74522
0.74522
0.74522
0.74522
0.74522
0.74522
0.74522
0.74522
0.74522
0.74522
0.74522
0.74522
0.74522
0.74522
0.74522
0.74522
0.74522
0.74522
0.74522
0.74522
0.74522
0.74522
0.74522
0.74522
0.74522
0.74522
0.74522
0.74522
0.74522
0.74522
0.74522
0.74522
0.74522
0.74522
0.74522
0.74522
0.74522
0.74522
0.74522
0.74522
0.74522
0.74522
0.74522
0.74522
0.74522
0.74522
0.74522
0.74522
0.74522
0.74522
0.74522
0.74522
0.74522
0.74522
0.74522
0.74522
0.74522
0.74522
0.74522
0.74522
0.74522
0.74522
0.74522
0.74522
0.74522
0.74522
0.74522
0.74522
0.74522
0.74522
0.74522
0.74522
0.74522
0.745221
0.745223
0.745227
0.745236
0.745253
0.745287
0.74535
0.745454
0.745581
0.745619
0.74543
0.745065
0.744563
0.744003
0.743645
0.743664
0.743932
0.744112
0.744727
0.744956
0.745116
0.745218
0.745281
0.745318
0.745339
0.74535
0.745354
0.745355
0.745353
0.74535
0.745346
0.745341
0.745336
0.745332
0.745327
0.745322
0.745317
0.745313
0.745309
0.745306
0.745302
0.745299
0.745297
0.745294
0.745292
0.74529
0.745289
0.745287
0.745286
0.745285
0.745284
0.745283
0.745282
0.745281
0.74528
0.745279
0.745279
0.745278
0.745277
0.745276
0.745275
0.745274
0.745273
0.745272
0.745271
0.74527
0.745269
0.745268
0.745267
0.745266
0.745265
0.745264
0.745263
0.745262
0.745261
0.745261
0.74526
0.745259
0.745258
0.745257
0.745256
0.745256
0.745255
0.745254
0.745253
0.745252
0.745252
0.745251
0.74525
0.745249
0.745248
0.745247
0.745247
0.745246
0.745245
0.745244
0.745242
0.745241
0.74524
0.745239
0.745237
0.745236
0.745234
0.745232
0.74523
0.745227
0.745224
0.745221
0.745218
0.745215
0.745213
0.74521
0.745207
0.745204
0.745201
0.745198
0.745194
0.745191
0.745187
0.745184
0.74518
0.745177
0.745173
0.74517
0.745166
0.745163
0.745159
0.745156
0.745153
0.74515
0.745148
0.745145
0.745143
0.745141
0.74514
0.745138
0.745138
0.745137
0.745137
0.745138
0.745139
0.745141
0.745143
0.745145
0.745149
0.745153
0.745158
0.745163
0.74517
0.745177
0.745185
0.745193
0.745203
0.745213
0.745224
0.745236
0.745249
0.745263
0.745277
0.745292
0.745308
0.745324
0.74534
0.745357
0.745374
0.745392
0.745409
0.745427
0.745444
0.745461
0.745477
0.745493
0.745508
0.745522
0.745535
0.745547
0.745558
0.745568
0.745575
0.745582
0.745587
0.745589
0.745591
0.74559
0.745587
0.745583
0.745577
0.745568
0.745558
0.745547
0.745533
0.745518
0.745501
0.745483
0.745464
0.745444
0.745422
0.7454
0.745377
0.745353
0.74533
0.745306
0.745282
0.745258
0.745234
0.745211
0.745188
0.745167
0.745146
0.745126
0.745107
0.745089
0.745073
0.745058
0.745044
0.745032
0.745021
0.745011
0.745003
0.744997
0.744991
0.744987
0.744984
0.744982
0.744982
0.744981
0.744982
0.744982
0.744983
0.744983
0.744982
0.744981
)
;

boundaryField
{
    boundary
    {
        type            empty;
    }
    inlet
    {
        type            fixedValue;
        value           uniform 0.74522;
    }
    outlet
    {
        type            zeroGradient;
    }
}


// ************************************************************************* //
