/*--------------------------------*- C++ -*----------------------------------*\
  =========                 |
  \\      /  F ield         | OpenFOAM: The Open Source CFD Toolbox
   \\    /   O peration     | Website:  https://openfoam.org
    \\  /    A nd           | Version:  7
     \\/     M anipulation  |
\*---------------------------------------------------------------------------*/
FoamFile
{
    version     2.0;
    format      ascii;
    class       volScalarField;
    location    "0.00044";
    object      O2;
}
// * * * * * * * * * * * * * * * * * * * * * * * * * * * * * * * * * * * * * //

dimensions      [0 0 0 0 0 0 0];

internalField   nonuniform List<scalar> 
500
(
0.226269
0.226269
0.226269
0.226269
0.226269
0.226269
0.226269
0.226269
0.226269
0.226269
0.226269
0.226269
0.226269
0.226269
0.226269
0.226269
0.226269
0.226269
0.226269
0.226269
0.226269
0.226269
0.226269
0.226269
0.226269
0.226269
0.226269
0.226269
0.226269
0.226269
0.226269
0.226269
0.226269
0.226269
0.226269
0.226269
0.226269
0.226269
0.226269
0.226269
0.226269
0.226269
0.226269
0.226269
0.226269
0.226269
0.226269
0.226269
0.226269
0.226269
0.226269
0.226269
0.226269
0.226269
0.226269
0.226269
0.226269
0.226269
0.226269
0.226269
0.226269
0.226269
0.226269
0.226269
0.226269
0.226269
0.226269
0.226269
0.226269
0.226269
0.226269
0.226269
0.226269
0.226269
0.226269
0.226269
0.226269
0.226269
0.226269
0.226269
0.226269
0.226269
0.226269
0.226269
0.226269
0.226269
0.226269
0.226269
0.226269
0.226269
0.226269
0.226269
0.226269
0.226269
0.226269
0.226269
0.226269
0.226269
0.226269
0.226269
0.226269
0.226269
0.226269
0.226269
0.226269
0.226269
0.226269
0.226269
0.226269
0.226269
0.226269
0.226269
0.226269
0.226269
0.226269
0.226269
0.226269
0.226269
0.226269
0.226269
0.226269
0.226269
0.226269
0.226269
0.226269
0.226269
0.226269
0.226269
0.226269
0.226269
0.226269
0.226269
0.226269
0.226269
0.226269
0.226269
0.226269
0.226269
0.226269
0.226269
0.226269
0.226269
0.226269
0.226269
0.226269
0.226269
0.226269
0.226269
0.226269
0.226269
0.226269
0.226269
0.226269
0.226269
0.226269
0.226269
0.226269
0.226269
0.226269
0.226269
0.226269
0.226269
0.226269
0.226269
0.226269
0.226269
0.226269
0.226269
0.226269
0.226269
0.226269
0.226269
0.226269
0.226269
0.226269
0.226269
0.226269
0.226269
0.226269
0.226269
0.226269
0.226269
0.226269
0.226269
0.226269
0.226269
0.226269
0.226269
0.226269
0.226269
0.226269
0.226269
0.226269
0.226269
0.226269
0.226269
0.226269
0.226269
0.226269
0.226269
0.226269
0.226269
0.226269
0.226269
0.226269
0.226269
0.226269
0.226269
0.226269
0.226269
0.226269
0.226269
0.226269
0.226269
0.226269
0.226269
0.226269
0.226269
0.226269
0.226269
0.226269
0.226269
0.226269
0.226269
0.226269
0.226269
0.226269
0.226269
0.226269
0.226269
0.226269
0.226269
0.226269
0.226269
0.226269
0.226269
0.226269
0.226269
0.226269
0.226269
0.226269
0.226269
0.226269
0.226269
0.226269
0.226269
0.226269
0.226269
0.226269
0.226269
0.226269
0.226269
0.226269
0.226269
0.226269
0.226269
0.226269
0.226269
0.226269
0.226269
0.226269
0.226269
0.226269
0.226269
0.226269
0.226269
0.226269
0.226269
0.226269
0.22627
0.226271
0.226274
0.226277
0.226277
0.226253
0.22611
0.225507
0.223529
0.218415
0.208616
0.195171
0.178199
0.156529
0.131142
0.106106
0.0856462
0.0669443
0.0557847
0.0482281
0.0431218
0.0396144
0.0371318
0.035305
0.0339019
0.0327777
0.031842
0.0310379
0.0303291
0.0296921
0.0291111
0.0285754
0.0280772
0.027611
0.0271724
0.0267582
0.0263657
0.0259927
0.0256373
0.025298
0.0249735
0.0246629
0.0243655
0.0240893
0.0238268
0.0235725
0.0233258
0.0230864
0.0228539
0.0226279
0.0224082
0.0221945
0.0219865
0.021784
0.0215867
0.0213945
0.0212071
0.0210244
0.0208462
0.0206722
0.0205024
0.0203366
0.0201746
0.0200162
0.0198614
0.01971
0.0195618
0.0194167
0.0192746
0.0191355
0.0189991
0.0188653
0.0187342
0.0186055
0.0184792
0.0183552
0.0182333
0.0181137
0.0179961
0.0178804
0.0177667
0.0176548
0.0175448
0.0174364
0.0173298
0.0172247
0.0171213
0.0170193
0.0169188
0.0168197
0.016722
0.0166256
0.0165305
0.0164366
0.0163439
0.0162523
0.0161618
0.0160724
0.0159839
0.0158963
0.0158095
0.0157235
0.0156382
0.0155533
0.0154687
0.0153841
0.0152992
0.0152151
0.0151331
0.0150517
0.0149708
0.0148901
0.0148098
0.0147297
0.0146497
0.0145697
0.0144897
0.0144096
0.0143294
0.0142488
0.0141679
0.0140866
0.0140047
0.0139222
0.013839
0.013755
0.0136702
0.0135843
0.0134973
0.0134092
0.0133198
0.0132291
0.0131369
0.0130431
0.0129478
0.0128508
0.012752
0.0126513
0.0125488
0.0124443
0.0123379
0.0122294
0.0121188
0.0120062
0.0118916
0.0117749
0.0116562
0.0115355
0.011413
0.0112886
0.0111624
0.0110347
0.0109054
0.0107748
0.010643
0.0105101
0.0103765
0.0102421
0.0101073
0.00997234
0.00983734
0.00970259
0.00956832
0.00943477
0.00930218
0.00917081
0.0090409
0.00891269
0.0087864
0.00866227
0.00854052
0.00842136
0.00830498
0.00819156
0.00808129
0.00797432
0.00787079
0.00777083
0.00767455
0.00758205
0.0074934
0.00740868
0.00732793
0.00725118
0.00717845
0.00710974
0.00704505
0.00698436
0.00692763
0.00687481
0.00682584
0.00678068
0.00673922
0.00670141
0.00666714
0.00663632
0.00660885
0.00658462
0.00656353
0.00654546
0.00653029
0.00651792
0.00650822
0.00650106
0.00649634
0.00649394
0.00649372
0.00649558
0.00649939
0.00650504
0.00651241
0.0065214
0.00653187
0.00654373
0.00655686
0.00657115
0.00658649
0.00660278
0.0066199
0.00663774
0.0066562
0.00667514
0.00669445
0.00671398
0.00673357
0.00675303
0.00677209
0.00679038
0.0068073
0.00682177
0.00683157
)
;

boundaryField
{
    boundary
    {
        type            empty;
    }
    inlet
    {
        type            fixedValue;
        value           uniform 0.226269;
    }
    outlet
    {
        type            zeroGradient;
    }
}


// ************************************************************************* //
