/*--------------------------------*- C++ -*----------------------------------*\
  =========                 |
  \\      /  F ield         | OpenFOAM: The Open Source CFD Toolbox
   \\    /   O peration     | Website:  https://openfoam.org
    \\  /    A nd           | Version:  7
     \\/     M anipulation  |
\*---------------------------------------------------------------------------*/
FoamFile
{
    version     2.0;
    format      ascii;
    class       volScalarField;
    location    "0.00044";
    object      OH;
}
// * * * * * * * * * * * * * * * * * * * * * * * * * * * * * * * * * * * * * //

dimensions      [0 0 0 0 0 0 0];

internalField   nonuniform List<scalar> 
500
(
9.39811e-48
1.83313e-47
2.44572e-47
2.86244e-47
3.1461e-47
3.34023e-47
3.47442e-47
3.56873e-47
3.63676e-47
3.68779e-47
3.72822e-47
3.76254e-47
3.79397e-47
3.82495e-47
3.85735e-47
3.89273e-47
3.93242e-47
3.97758e-47
4.02925e-47
4.08834e-47
4.15561e-47
4.23166e-47
4.31688e-47
4.41144e-47
4.51521e-47
4.62778e-47
4.74842e-47
4.87608e-47
5.00942e-47
5.14681e-47
5.28645e-47
5.42637e-47
5.56457e-47
5.69909e-47
5.8281e-47
5.94999e-47
6.06345e-47
6.16749e-47
6.26147e-47
6.34513e-47
6.41849e-47
6.48192e-47
6.53597e-47
6.58138e-47
6.61902e-47
6.64979e-47
6.67462e-47
6.69439e-47
6.70994e-47
6.72201e-47
6.73127e-47
6.73829e-47
6.74355e-47
6.74744e-47
6.7503e-47
6.75237e-47
6.75386e-47
6.75491e-47
6.75566e-47
6.75619e-47
6.75656e-47
6.75682e-47
6.75701e-47
6.75714e-47
6.75724e-47
6.75732e-47
6.75739e-47
6.75745e-47
6.7575e-47
6.75755e-47
6.75761e-47
6.75766e-47
6.75772e-47
6.75777e-47
6.75784e-47
6.7579e-47
6.75797e-47
6.75804e-47
6.75812e-47
6.7582e-47
6.75828e-47
6.75837e-47
6.75846e-47
6.75856e-47
6.75866e-47
6.75877e-47
6.75888e-47
6.759e-47
6.75912e-47
6.75925e-47
6.75939e-47
6.75953e-47
6.75968e-47
6.75983e-47
6.75999e-47
6.76016e-47
6.76033e-47
6.76051e-47
6.7607e-47
6.7609e-47
6.7611e-47
6.76131e-47
6.76153e-47
6.76176e-47
6.76199e-47
6.76224e-47
6.76249e-47
6.76275e-47
6.76302e-47
6.7633e-47
6.76358e-47
6.76388e-47
6.76418e-47
6.7645e-47
6.76482e-47
6.76515e-47
6.76549e-47
6.76585e-47
6.76621e-47
6.76658e-47
6.76696e-47
6.76734e-47
6.76772e-47
6.76803e-47
6.76799e-47
6.76775e-47
6.76863e-47
6.76941e-47
6.7701e-47
6.7707e-47
6.77124e-47
6.77173e-47
6.7722e-47
6.77267e-47
6.77315e-47
6.77363e-47
6.77411e-47
6.7746e-47
6.7751e-47
6.7756e-47
6.77609e-47
6.7766e-47
6.7771e-47
6.7776e-47
6.77811e-47
6.77862e-47
6.77914e-47
6.77967e-47
6.78021e-47
6.78076e-47
6.78133e-47
6.78191e-47
6.7825e-47
6.78311e-47
6.78373e-47
6.78436e-47
6.78499e-47
6.78563e-47
6.78628e-47
6.78692e-47
6.78756e-47
6.78818e-47
6.7888e-47
6.7894e-47
6.78999e-47
6.79056e-47
6.7911e-47
6.79163e-47
6.79213e-47
6.79261e-47
6.79305e-47
6.79348e-47
6.79387e-47
6.79423e-47
6.79457e-47
6.79487e-47
6.79514e-47
6.79537e-47
6.79556e-47
6.79572e-47
6.79583e-47
6.7959e-47
6.79593e-47
6.7959e-47
6.79583e-47
6.79571e-47
6.79553e-47
6.79529e-47
6.795e-47
6.79464e-47
6.79421e-47
6.79372e-47
6.79316e-47
6.79252e-47
6.79181e-47
6.79102e-47
6.79014e-47
6.78919e-47
6.78814e-47
6.78701e-47
6.78578e-47
6.78447e-47
6.78314e-47
6.78206e-47
6.78265e-47
6.79163e-47
6.84124e-47
7.08414e-47
8.23692e-47
1.36327e-46
3.86337e-46
1.53393e-45
6.75305e-45
3.0269e-44
1.35237e-43
5.99376e-43
2.63222e-42
1.14507e-41
4.93371e-41
2.1053e-40
8.89659e-40
3.72285e-39
1.54257e-38
6.32863e-38
2.57068e-37
1.03382e-36
4.11604e-36
1.62236e-35
6.33056e-35
2.44546e-34
9.35206e-34
3.54076e-33
1.32724e-32
4.92602e-32
1.81043e-31
6.58974e-31
2.37593e-30
8.48749e-30
3.00496e-29
1.05481e-28
3.67278e-28
1.26929e-27
4.35712e-27
1.48709e-26
5.05291e-26
1.71232e-25
5.80152e-25
1.97187e-24
6.75332e-24
2.3431e-23
8.28398e-23
3.02383e-22
1.131e-21
4.35296e-21
1.7285e-20
7.07205e-20
2.97108e-19
1.27595e-18
5.57564e-18
2.46877e-17
1.10379e-16
4.96972e-16
2.24878e-15
1.02117e-14
4.64877e-14
2.12009e-13
9.68113e-13
4.42484e-12
2.02372e-11
9.25964e-11
4.27804e-10
1.99814e-09
9.39731e-09
4.45377e-08
2.16616e-07
1.14241e-06
7.07494e-06
4.84921e-05
0.000253325
0.000617673
0.000828505
0.00100254
0.00143673
0.00230161
0.00353513
0.00491546
0.00638759
0.00753133
0.00845106
0.00917371
0.00973658
0.0101758
0.0105211
0.0107951
0.0110144
0.0111915
0.0113351
0.0114521
0.0115474
0.0116249
0.0116876
0.0117378
0.0117774
0.0118079
0.0118306
0.0118464
0.0118564
0.0118612
0.0118615
0.0118578
0.0118505
0.0118401
0.0118274
0.0118128
0.0117963
0.0117781
0.0117582
0.0117369
0.0117142
0.0116904
0.0116655
0.0116397
0.011613
0.0115856
0.0115575
0.0115287
0.0114995
0.0114698
0.0114396
0.0114091
0.0113783
0.0113472
0.0113158
0.0112842
0.0112525
0.0112206
0.0111886
0.0111565
0.0111243
0.011092
0.0110597
0.0110274
0.0109951
0.0109627
0.0109304
0.0108981
0.0108659
0.0108336
0.0108015
0.0107694
0.0107373
0.0107054
0.0106735
0.0106417
0.01061
0.0105784
0.010547
0.0105156
0.0104844
0.0104532
0.0104222
0.0103914
0.0103606
0.01033
0.0102996
0.0102692
0.010239
0.010209
0.0101791
0.0101493
0.0101196
0.0100901
0.0100606
0.0100312
0.0100018
0.00997248
0.0099432
0.00991412
0.00988513
0.00985621
0.00982733
0.00979848
0.00976965
0.00974082
0.00971197
0.0096831
0.00965418
0.00962519
0.00959611
0.00956692
0.0095376
0.00950812
0.00947846
0.0094486
0.00941849
0.00938812
0.00935746
0.00932648
0.00929514
0.00926343
0.0092313
0.00919874
0.00916571
0.00913219
0.00909814
0.00906355
0.00902838
0.00899263
0.00895626
0.00891926
0.00888162
0.00884333
0.00880437
0.00876475
0.00872447
0.00868353
0.00864194
0.00859972
0.00855689
0.00851347
0.0084695
0.00842502
0.00838007
0.0083347
0.00828896
0.00824291
0.00819662
0.00815016
0.0081036
0.00805701
0.00801049
0.0079641
0.00791794
0.00787209
0.00782663
0.00778165
0.00773723
0.00769345
0.0076504
0.00760813
0.00756673
0.00752624
0.00748674
0.00744827
0.00741087
0.00737458
0.00733943
0.00730542
0.00727258
0.0072409
0.00721036
0.00718097
0.00715268
0.00712547
0.00709928
0.00707409
0.00704982
0.00702642
0.00700381
0.00698194
0.00696072
0.00694008
0.00691994
0.00690021
0.00688083
0.00686171
0.00684277
0.00682394
0.00680516
0.00678635
0.00676745
0.00674842
0.0067292
0.00670975
0.00669003
0.00667002
0.0066497
0.00662904
0.00660806
0.00658675
0.00656511
0.00654317
0.00652095
0.00649847
0.00647578
0.00645293
0.00642996
0.00640694
0.00638395
0.00636106
0.00633839
0.00631605
0.00629422
0.0062731
0.00625293
0.00623408
0.00621698
0.00620224
0.0061907
0.00618367
)
;

boundaryField
{
    boundary
    {
        type            empty;
    }
    inlet
    {
        type            fixedValue;
        value           uniform 0;
    }
    outlet
    {
        type            zeroGradient;
    }
}


// ************************************************************************* //
