/*--------------------------------*- C++ -*----------------------------------*\
  =========                 |
  \\      /  F ield         | OpenFOAM: The Open Source CFD Toolbox
   \\    /   O peration     | Website:  https://openfoam.org
    \\  /    A nd           | Version:  7
     \\/     M anipulation  |
\*---------------------------------------------------------------------------*/
FoamFile
{
    version     2.0;
    format      ascii;
    class       volScalarField;
    location    "0.00044";
    object      Qdot;
}
// * * * * * * * * * * * * * * * * * * * * * * * * * * * * * * * * * * * * * //

dimensions      [1 -1 -3 0 0 0 0];

internalField   nonuniform List<scalar> 
500
(
-2.45552e-27
-1.86793e-27
-1.74315e-27
-1.71814e-27
-1.71466e-27
-1.71587e-27
-1.71822e-27
-1.72101e-27
-1.72418e-27
-1.72781e-27
-1.73206e-27
-1.73707e-27
-1.74304e-27
-1.75017e-27
-1.75872e-27
-1.76893e-27
-1.78108e-27
-1.79544e-27
-1.81228e-27
-1.83184e-27
-1.85434e-27
-1.87994e-27
-1.90873e-27
-1.94074e-27
-1.97589e-27
-2.014e-27
-2.05479e-27
-2.09787e-27
-2.14277e-27
-2.18891e-27
-2.23566e-27
-2.28236e-27
-2.32833e-27
-2.37292e-27
-2.41552e-27
-2.45562e-27
-2.4928e-27
-2.52676e-27
-2.55732e-27
-2.58442e-27
-2.60809e-27
-2.62848e-27
-2.64579e-27
-2.66029e-27
-2.67226e-27
-2.68201e-27
-2.68986e-27
-2.69609e-27
-2.70097e-27
-2.70475e-27
-2.70765e-27
-2.70983e-27
-2.71147e-27
-2.71268e-27
-2.71356e-27
-2.7142e-27
-2.71466e-27
-2.71499e-27
-2.71522e-27
-2.71538e-27
-2.71549e-27
-2.71557e-27
-2.71563e-27
-2.71567e-27
-2.71571e-27
-2.71573e-27
-2.71575e-27
-2.71577e-27
-2.71579e-27
-2.71581e-27
-2.71583e-27
-2.71585e-27
-2.71587e-27
-2.71589e-27
-2.71591e-27
-2.71593e-27
-2.71595e-27
-2.71598e-27
-2.716e-27
-2.71603e-27
-2.71606e-27
-2.71609e-27
-2.71612e-27
-2.71615e-27
-2.71619e-27
-2.71622e-27
-2.71626e-27
-2.7163e-27
-2.71634e-27
-2.71639e-27
-2.71643e-27
-2.71648e-27
-2.71653e-27
-2.71658e-27
-2.71663e-27
-2.71669e-27
-2.71674e-27
-2.7168e-27
-2.71687e-27
-2.71693e-27
-2.717e-27
-2.71707e-27
-2.71714e-27
-2.71721e-27
-2.71729e-27
-2.71737e-27
-2.71746e-27
-2.71754e-27
-2.71763e-27
-2.71772e-27
-2.71781e-27
-2.71791e-27
-2.71801e-27
-2.71811e-27
-2.71822e-27
-2.71833e-27
-2.71844e-27
-2.71856e-27
-2.71867e-27
-2.7188e-27
-2.71892e-27
-2.71905e-27
-2.71918e-27
-2.71932e-27
-2.71947e-27
-2.71965e-27
-2.71981e-27
-2.71995e-27
-2.72008e-27
-2.72021e-27
-2.72034e-27
-2.72049e-27
-2.72064e-27
-2.72079e-27
-2.72095e-27
-2.72111e-27
-2.72127e-27
-2.72143e-27
-2.7216e-27
-2.72176e-27
-2.72193e-27
-2.72209e-27
-2.72226e-27
-2.72243e-27
-2.7226e-27
-2.72277e-27
-2.72294e-27
-2.72312e-27
-2.7233e-27
-2.72348e-27
-2.72367e-27
-2.72386e-27
-2.72405e-27
-2.72425e-27
-2.72445e-27
-2.72465e-27
-2.72485e-27
-2.72506e-27
-2.72526e-27
-2.72547e-27
-2.72567e-27
-2.72587e-27
-2.72607e-27
-2.72626e-27
-2.72645e-27
-2.72663e-27
-2.7268e-27
-2.72697e-27
-2.72713e-27
-2.72729e-27
-2.72743e-27
-2.72757e-27
-2.7277e-27
-2.72781e-27
-2.72792e-27
-2.72802e-27
-2.72811e-27
-2.72818e-27
-2.72825e-27
-2.7283e-27
-2.72834e-27
-2.72836e-27
-2.72837e-27
-2.72837e-27
-2.72835e-27
-2.72831e-27
-2.72825e-27
-2.72818e-27
-2.72808e-27
-2.72797e-27
-2.72783e-27
-2.72768e-27
-2.7275e-27
-2.72729e-27
-2.72707e-27
-2.72681e-27
-2.72653e-27
-2.72623e-27
-2.72589e-27
-2.72553e-27
-2.72513e-27
-2.72471e-27
-2.72425e-27
-2.72376e-27
-2.72323e-27
-2.72268e-27
-2.72208e-27
-2.72145e-27
-2.72078e-27
-2.72008e-27
-2.71933e-27
-2.71855e-27
-2.71772e-27
-2.71682e-27
-2.71579e-27
-2.71428e-27
-2.71084e-27
-2.6992e-27
-2.65262e-27
-2.45815e-27
-1.64341e-27
1.74784e-27
1.5736e-26
7.28754e-26
3.03973e-25
1.22933e-24
4.8975e-24
1.92925e-23
7.52151e-23
2.90281e-22
1.10906e-21
4.195e-21
1.57096e-20
5.82483e-20
2.13854e-19
7.77534e-19
2.79995e-18
9.98826e-18
3.53051e-17
1.23685e-16
4.2961e-16
1.4801e-15
5.06034e-15
1.71797e-14
5.79629e-14
1.94569e-13
6.5086e-13
2.17469e-12
7.28153e-12
2.45375e-11
8.36572e-11
2.91856e-10
1.03773e-09
3.78244e-09
1.4218e-08
5.52471e-08
2.218e-07
9.17406e-07
3.89257e-06
1.68613e-05
7.42292e-05
0.000330804
0.0014883
0.00674668
0.0307854
0.141397
0.654333
3.05741
14.4773
73.2027
406.31
2647.44
19544.7
161156
1.46769e+06
1.40282e+07
1.29637e+08
9.87964e+08
4.48823e+09
1.02215e+10
1.33368e+10
1.38817e+10
1.39268e+10
1.38072e+10
1.30174e+10
1.13486e+10
9.30555e+09
7.55578e+09
6.2243e+09
5.20199e+09
4.42447e+09
3.82618e+09
3.35723e+09
2.98222e+09
2.67652e+09
2.42291e+09
2.20933e+09
2.02705e+09
1.86973e+09
1.73263e+09
1.61215e+09
1.5055e+09
1.41047e+09
1.32532e+09
1.24862e+09
1.17923e+09
1.11619e+09
1.05869e+09
1.00607e+09
9.57777e+08
9.13344e+08
8.72435e+08
8.35678e+08
8.02079e+08
7.70528e+08
7.40939e+08
7.13138e+08
6.86965e+08
6.62293e+08
6.38992e+08
6.16963e+08
5.96113e+08
5.76353e+08
5.57606e+08
5.39799e+08
5.22871e+08
5.06761e+08
4.91415e+08
4.76784e+08
4.62821e+08
4.49486e+08
4.36739e+08
4.24545e+08
4.12871e+08
4.01686e+08
3.90963e+08
3.80675e+08
3.70798e+08
3.61309e+08
3.52187e+08
3.43413e+08
3.34969e+08
3.26837e+08
3.19002e+08
3.11448e+08
3.04162e+08
2.97131e+08
2.90343e+08
2.83786e+08
2.77449e+08
2.71323e+08
2.65397e+08
2.59663e+08
2.54112e+08
2.48737e+08
2.43529e+08
2.38483e+08
2.3359e+08
2.28845e+08
2.24242e+08
2.19774e+08
2.15438e+08
2.11227e+08
2.07136e+08
2.03162e+08
1.993e+08
1.95546e+08
1.91895e+08
1.88345e+08
1.84892e+08
1.81532e+08
1.78264e+08
1.75084e+08
1.71992e+08
1.68994e+08
1.66098e+08
1.6325e+08
1.60387e+08
1.57618e+08
1.54929e+08
1.52311e+08
1.49758e+08
1.47267e+08
1.44836e+08
1.42461e+08
1.4014e+08
1.37873e+08
1.35656e+08
1.33488e+08
1.31368e+08
1.29295e+08
1.27265e+08
1.25279e+08
1.23334e+08
1.21429e+08
1.19563e+08
1.17735e+08
1.15942e+08
1.14184e+08
1.12459e+08
1.10766e+08
1.09104e+08
1.07472e+08
1.05867e+08
1.0429e+08
1.02738e+08
1.01211e+08
9.97062e+07
9.82237e+07
9.67619e+07
9.53191e+07
9.38947e+07
9.24871e+07
9.10952e+07
8.97177e+07
8.83534e+07
8.70013e+07
8.566e+07
8.43286e+07
8.30059e+07
8.16908e+07
8.0383e+07
7.90801e+07
7.77822e+07
7.64882e+07
7.51974e+07
7.3909e+07
7.26223e+07
7.13368e+07
7.00518e+07
6.8767e+07
6.7482e+07
6.61966e+07
6.49105e+07
6.36236e+07
6.2336e+07
6.10479e+07
5.97581e+07
5.84692e+07
5.71802e+07
5.58914e+07
5.46034e+07
5.33166e+07
5.20317e+07
5.07492e+07
4.94698e+07
4.81941e+07
4.69229e+07
4.56568e+07
4.43966e+07
4.3143e+07
4.18964e+07
4.06584e+07
3.94292e+07
3.82097e+07
3.70006e+07
3.58027e+07
3.46169e+07
3.34439e+07
3.22846e+07
3.11397e+07
3.00101e+07
2.88967e+07
2.78002e+07
2.67216e+07
2.56616e+07
2.46212e+07
2.36011e+07
2.26021e+07
2.16251e+07
2.06707e+07
1.97397e+07
1.88327e+07
1.79503e+07
1.70929e+07
1.62611e+07
1.54551e+07
1.46752e+07
1.39215e+07
1.31942e+07
1.24931e+07
1.18181e+07
1.11691e+07
1.05456e+07
9.9473e+06
9.37358e+06
8.82382e+06
8.29727e+06
7.79304e+06
7.31044e+06
6.84761e+06
6.4035e+06
5.97617e+06
5.56402e+06
5.16393e+06
4.77298e+06
4.38758e+06
4.0078e+06
3.64254e+06
3.35484e+06
)
;

boundaryField
{
    boundary
    {
        type            empty;
    }
    inlet
    {
        type            calculated;
        value           uniform 0;
    }
    outlet
    {
        type            calculated;
        value           uniform 0;
    }
}


// ************************************************************************* //
