/*--------------------------------*- C++ -*----------------------------------*\
  =========                 |
  \\      /  F ield         | OpenFOAM: The Open Source CFD Toolbox
   \\    /   O peration     | Website:  https://openfoam.org
    \\  /    A nd           | Version:  7
     \\/     M anipulation  |
\*---------------------------------------------------------------------------*/
FoamFile
{
    version     2.0;
    format      ascii;
    class       volScalarField;
    location    "0.00044";
    object      T;
}
// * * * * * * * * * * * * * * * * * * * * * * * * * * * * * * * * * * * * * //

dimensions      [0 0 0 1 0 0 0];

internalField   nonuniform List<scalar> 
500
(
300.003
300.007
300.012
300.017
300.021
300.026
300.031
300.037
300.043
300.05
300.058
300.068
300.079
300.093
300.109
300.128
300.151
300.177
300.208
300.244
300.284
300.33
300.38
300.435
300.495
300.558
300.625
300.694
300.765
300.836
300.906
300.975
301.042
301.106
301.166
301.221
301.272
301.318
301.358
301.394
301.425
301.452
301.474
301.493
301.508
301.521
301.531
301.539
301.545
301.55
301.554
301.557
301.559
301.56
301.562
301.562
301.563
301.563
301.564
301.564
301.564
301.564
301.564
301.564
301.564
301.564
301.564
301.564
301.564
301.564
301.564
301.565
301.565
301.565
301.565
301.565
301.565
301.565
301.565
301.565
301.565
301.565
301.565
301.565
301.565
301.565
301.565
301.565
301.565
301.565
301.565
301.565
301.565
301.565
301.565
301.566
301.566
301.566
301.566
301.566
301.566
301.566
301.566
301.566
301.566
301.566
301.566
301.567
301.567
301.567
301.567
301.567
301.567
301.567
301.567
301.568
301.568
301.568
301.568
301.568
301.568
301.568
301.569
301.569
301.569
301.569
301.569
301.57
301.57
301.57
301.57
301.57
301.57
301.571
301.571
301.571
301.571
301.571
301.572
301.572
301.572
301.572
301.572
301.573
301.573
301.573
301.573
301.573
301.574
301.574
301.574
301.574
301.575
301.575
301.575
301.575
301.576
301.576
301.576
301.576
301.577
301.577
301.577
301.577
301.578
301.578
301.578
301.578
301.578
301.579
301.579
301.579
301.579
301.579
301.579
301.58
301.58
301.58
301.58
301.58
301.58
301.58
301.58
301.58
301.58
301.58
301.58
301.58
301.58
301.579
301.579
301.579
301.579
301.579
301.578
301.578
301.578
301.577
301.577
301.576
301.576
301.575
301.575
301.574
301.574
301.573
301.572
301.571
301.571
301.57
301.569
301.568
301.567
301.566
301.565
301.563
301.562
301.561
301.56
301.558
301.557
301.555
301.554
301.552
301.55
301.549
301.547
301.545
301.543
301.541
301.539
301.537
301.535
301.533
301.531
301.528
301.526
301.523
301.521
301.518
301.516
301.513
301.511
301.508
301.505
301.502
301.5
301.497
301.494
301.491
301.488
301.485
301.482
301.479
301.476
301.473
301.47
301.466
301.463
301.46
301.457
301.453
301.45
301.447
301.444
301.44
301.438
301.436
301.437
301.447
301.481
301.585
301.886
302.752
305.234
312.305
331.907
380.863
477.728
617.915
773.319
924.707
1066.97
1196.38
1306.26
1400.31
1479.69
1542.76
1592.79
1635.18
1671.6
1703.38
1731.5
1756.65
1779.35
1800.01
1818.93
1836.36
1852.49
1867.48
1881.46
1894.56
1906.85
1918.42
1929.35
1939.68
1949.47
1958.78
1967.62
1976.05
1984.08
1991.74
1998.85
2005.54
2012.01
2018.25
2024.29
2030.14
2035.8
2041.28
2046.6
2051.77
2056.78
2061.65
2066.39
2071
2075.48
2079.85
2084.11
2088.26
2092.3
2096.25
2100.1
2103.87
2107.55
2111.14
2114.65
2118.09
2121.45
2124.74
2127.96
2131.11
2134.21
2137.23
2140.2
2143.11
2145.97
2148.77
2151.52
2154.21
2156.86
2159.46
2162.02
2164.53
2167
2169.42
2171.8
2174.15
2176.45
2178.72
2180.95
2183.15
2185.31
2187.44
2189.53
2191.6
2193.63
2195.63
2197.6
2199.55
2201.46
2203.35
2205.21
2207.05
2208.85
2210.63
2212.39
2214.13
2215.84
2217.52
2219.18
2220.82
2222.43
2224.02
2225.58
2227.11
2228.63
2230.11
2231.58
2233.01
2234.42
2235.81
2237.17
2238.5
2239.8
2241.07
2242.32
2243.54
2244.73
2245.89
2247.01
2248.11
2249.18
2250.22
2251.23
2252.21
2253.15
2254.07
2254.96
2255.83
2256.66
2257.48
2258.27
2259.03
2259.78
2260.51
2261.23
2261.94
2262.63
2263.33
2264.02
2264.72
2265.43
2266.15
2266.88
2267.65
2268.44
2269.26
2270.13
2271.04
2272.01
2273.04
2274.13
2275.28
2276.52
2277.83
2279.23
2280.73
2282.31
2283.99
2285.77
2287.66
2289.64
2291.73
2293.93
2296.23
2298.62
2301.12
2303.71
2306.39
2309.15
2311.99
2314.9
2317.88
2320.91
2323.98
2327.09
2330.22
2333.37
2336.53
2339.67
2342.8
2345.91
2348.97
2351.99
2354.94
2357.83
2360.65
2363.38
2366.02
2368.55
2370.99
2373.31
2375.53
2377.62
2379.6
2381.45
2383.18
2384.8
2386.29
2387.66
2388.92
2390.06
2391.1
2392.03
2392.85
2393.59
2394.23
2394.78
2395.26
2395.66
2396
2396.27
2396.49
2396.65
2396.77
2396.85
2396.9
2396.92
2396.92
)
;

boundaryField
{
    boundary
    {
        type            empty;
    }
    inlet
    {
        type            fixedValue;
        value           uniform 300;
    }
    outlet
    {
        type            zeroGradient;
    }
}


// ************************************************************************* //
