/*--------------------------------*- C++ -*----------------------------------*\
  =========                 |
  \\      /  F ield         | OpenFOAM: The Open Source CFD Toolbox
   \\    /   O peration     | Website:  https://openfoam.org
    \\  /    A nd           | Version:  7
     \\/     M anipulation  |
\*---------------------------------------------------------------------------*/
FoamFile
{
    version     2.0;
    format      ascii;
    class       volVectorField;
    location    "0.00044";
    object      U;
}
// * * * * * * * * * * * * * * * * * * * * * * * * * * * * * * * * * * * * * //

dimensions      [0 1 -1 0 0 0 0];

internalField   nonuniform List<vector> 
500
(
(2.34892 0 0)
(2.34884 0 0)
(2.34875 0 0)
(2.34867 0 0)
(2.34859 0 0)
(2.34851 0 0)
(2.34844 0 0)
(2.34837 0 0)
(2.34829 0 0)
(2.34822 0 0)
(2.34816 0 0)
(2.34809 0 0)
(2.34803 0 0)
(2.34797 0 0)
(2.34792 0 0)
(2.34787 0 0)
(2.34782 0 0)
(2.34778 0 0)
(2.34774 0 0)
(2.3477 0 0)
(2.34766 0 0)
(2.34763 0 0)
(2.34759 0 0)
(2.34755 0 0)
(2.34751 0 0)
(2.34746 0 0)
(2.34741 0 0)
(2.34735 0 0)
(2.34728 0 0)
(2.3472 0 0)
(2.34711 0 0)
(2.34702 0 0)
(2.34692 0 0)
(2.34681 0 0)
(2.34669 0 0)
(2.34658 0 0)
(2.34645 0 0)
(2.34633 0 0)
(2.34621 0 0)
(2.34609 0 0)
(2.34597 0 0)
(2.34586 0 0)
(2.34575 0 0)
(2.34564 0 0)
(2.34554 0 0)
(2.34543 0 0)
(2.34534 0 0)
(2.34524 0 0)
(2.34515 0 0)
(2.34506 0 0)
(2.34498 0 0)
(2.34489 0 0)
(2.34481 0 0)
(2.34473 0 0)
(2.34464 0 0)
(2.34456 0 0)
(2.34448 0 0)
(2.34441 0 0)
(2.34433 0 0)
(2.34425 0 0)
(2.34417 0 0)
(2.34409 0 0)
(2.34401 0 0)
(2.34394 0 0)
(2.34386 0 0)
(2.34378 0 0)
(2.3437 0 0)
(2.34363 0 0)
(2.34355 0 0)
(2.34347 0 0)
(2.34339 0 0)
(2.34332 0 0)
(2.34324 0 0)
(2.34316 0 0)
(2.34308 0 0)
(2.34301 0 0)
(2.34293 0 0)
(2.34285 0 0)
(2.34277 0 0)
(2.3427 0 0)
(2.34262 0 0)
(2.34254 0 0)
(2.34247 0 0)
(2.34239 0 0)
(2.34231 0 0)
(2.34223 0 0)
(2.34216 0 0)
(2.34208 0 0)
(2.342 0 0)
(2.34193 0 0)
(2.34185 0 0)
(2.34177 0 0)
(2.3417 0 0)
(2.34162 0 0)
(2.34154 0 0)
(2.34147 0 0)
(2.34139 0 0)
(2.34131 0 0)
(2.34123 0 0)
(2.34116 0 0)
(2.34108 0 0)
(2.341 0 0)
(2.34093 0 0)
(2.34085 0 0)
(2.34078 0 0)
(2.3407 0 0)
(2.34062 0 0)
(2.34055 0 0)
(2.34047 0 0)
(2.34039 0 0)
(2.34032 0 0)
(2.34024 0 0)
(2.34016 0 0)
(2.34009 0 0)
(2.34001 0 0)
(2.33993 0 0)
(2.33986 0 0)
(2.33978 0 0)
(2.33971 0 0)
(2.33963 0 0)
(2.33955 0 0)
(2.33948 0 0)
(2.3394 0 0)
(2.33933 0 0)
(2.33925 0 0)
(2.33917 0 0)
(2.33909 0 0)
(2.33902 0 0)
(2.33894 0 0)
(2.33887 0 0)
(2.33879 0 0)
(2.33871 0 0)
(2.33864 0 0)
(2.33856 0 0)
(2.33849 0 0)
(2.33841 0 0)
(2.33833 0 0)
(2.33826 0 0)
(2.33818 0 0)
(2.33811 0 0)
(2.33803 0 0)
(2.33795 0 0)
(2.33788 0 0)
(2.3378 0 0)
(2.33773 0 0)
(2.33765 0 0)
(2.33757 0 0)
(2.3375 0 0)
(2.33742 0 0)
(2.33735 0 0)
(2.33727 0 0)
(2.3372 0 0)
(2.33712 0 0)
(2.33704 0 0)
(2.33697 0 0)
(2.33689 0 0)
(2.33681 0 0)
(2.33674 0 0)
(2.33666 0 0)
(2.33659 0 0)
(2.33651 0 0)
(2.33643 0 0)
(2.33636 0 0)
(2.33628 0 0)
(2.3362 0 0)
(2.33613 0 0)
(2.33605 0 0)
(2.33598 0 0)
(2.3359 0 0)
(2.33582 0 0)
(2.33575 0 0)
(2.33567 0 0)
(2.33559 0 0)
(2.33552 0 0)
(2.33544 0 0)
(2.33536 0 0)
(2.33528 0 0)
(2.33521 0 0)
(2.33513 0 0)
(2.33505 0 0)
(2.33498 0 0)
(2.3349 0 0)
(2.33482 0 0)
(2.33474 0 0)
(2.33467 0 0)
(2.33459 0 0)
(2.33451 0 0)
(2.33443 0 0)
(2.33436 0 0)
(2.33428 0 0)
(2.3342 0 0)
(2.33412 0 0)
(2.33404 0 0)
(2.33397 0 0)
(2.33389 0 0)
(2.33381 0 0)
(2.33373 0 0)
(2.33365 0 0)
(2.33357 0 0)
(2.3335 0 0)
(2.33342 0 0)
(2.33334 0 0)
(2.33326 0 0)
(2.33318 0 0)
(2.3331 0 0)
(2.33302 0 0)
(2.33294 0 0)
(2.33286 0 0)
(2.33278 0 0)
(2.3327 0 0)
(2.33262 0 0)
(2.33254 0 0)
(2.33246 0 0)
(2.33238 0 0)
(2.3323 0 0)
(2.33222 0 0)
(2.33214 0 0)
(2.33206 0 0)
(2.33198 0 0)
(2.3319 0 0)
(2.33182 0 0)
(2.33174 0 0)
(2.33165 0 0)
(2.33157 0 0)
(2.33149 0 0)
(2.33141 0 0)
(2.33133 0 0)
(2.33125 0 0)
(2.33116 0 0)
(2.33108 0 0)
(2.331 0 0)
(2.33092 0 0)
(2.33083 0 0)
(2.33075 0 0)
(2.33067 0 0)
(2.33058 0 0)
(2.3305 0 0)
(2.33042 0 0)
(2.33033 0 0)
(2.33025 0 0)
(2.33017 0 0)
(2.33008 0 0)
(2.33 0 0)
(2.32991 0 0)
(2.32983 0 0)
(2.32974 0 0)
(2.32966 0 0)
(2.32957 0 0)
(2.32949 0 0)
(2.3294 0 0)
(2.32931 0 0)
(2.32922 0 0)
(2.32913 0 0)
(2.32905 0 0)
(2.32896 0 0)
(2.32887 0 0)
(2.32879 0 0)
(2.3287 0 0)
(2.32861 0 0)
(2.32852 0 0)
(2.32843 0 0)
(2.32834 0 0)
(2.32826 0 0)
(2.32816 0 0)
(2.32807 0 0)
(2.32798 0 0)
(2.32789 0 0)
(2.3278 0 0)
(2.32771 0 0)
(2.32768 0 0)
(2.32779 0 0)
(2.32842 0 0)
(2.33069 0 0)
(2.33781 0 0)
(2.35792 0 0)
(2.40933 0 0)
(2.53182 0 0)
(2.80876 0 0)
(3.39018 0 0)
(4.37745 0 0)
(5.59283 0 0)
(6.81001 0 0)
(7.91279 0 0)
(8.87202 0 0)
(9.6849 0 0)
(10.3669 0 0)
(10.9339 0 0)
(11.389 0 0)
(11.7476 0 0)
(12.0395 0 0)
(12.2878 0 0)
(12.5038 0 0)
(12.6939 0 0)
(12.8628 0 0)
(13.0143 0 0)
(13.1514 0 0)
(13.2763 0 0)
(13.3909 0 0)
(13.4965 0 0)
(13.5943 0 0)
(13.6853 0 0)
(13.7701 0 0)
(13.8495 0 0)
(13.9241 0 0)
(13.9942 0 0)
(14.0604 0 0)
(14.123 0 0)
(14.1823 0 0)
(14.2386 0 0)
(14.2921 0 0)
(14.3429 0 0)
(14.3914 0 0)
(14.4363 0 0)
(14.4783 0 0)
(14.519 0 0)
(14.5582 0 0)
(14.5961 0 0)
(14.6327 0 0)
(14.6681 0 0)
(14.7023 0 0)
(14.7354 0 0)
(14.7676 0 0)
(14.7987 0 0)
(14.8289 0 0)
(14.8583 0 0)
(14.8868 0 0)
(14.9145 0 0)
(14.9415 0 0)
(14.9677 0 0)
(14.9932 0 0)
(15.0181 0 0)
(15.0423 0 0)
(15.066 0 0)
(15.089 0 0)
(15.1115 0 0)
(15.1335 0 0)
(15.155 0 0)
(15.1759 0 0)
(15.1964 0 0)
(15.2165 0 0)
(15.2361 0 0)
(15.2552 0 0)
(15.274 0 0)
(15.2924 0 0)
(15.3104 0 0)
(15.328 0 0)
(15.3453 0 0)
(15.3622 0 0)
(15.3788 0 0)
(15.3951 0 0)
(15.4111 0 0)
(15.4268 0 0)
(15.4422 0 0)
(15.4573 0 0)
(15.4721 0 0)
(15.4867 0 0)
(15.501 0 0)
(15.5151 0 0)
(15.5289 0 0)
(15.5425 0 0)
(15.5559 0 0)
(15.5691 0 0)
(15.582 0 0)
(15.5948 0 0)
(15.6073 0 0)
(15.6196 0 0)
(15.6318 0 0)
(15.6437 0 0)
(15.6555 0 0)
(15.6671 0 0)
(15.6786 0 0)
(15.6899 0 0)
(15.701 0 0)
(15.712 0 0)
(15.7228 0 0)
(15.7335 0 0)
(15.7439 0 0)
(15.7542 0 0)
(15.7644 0 0)
(15.7744 0 0)
(15.7843 0 0)
(15.794 0 0)
(15.8037 0 0)
(15.8132 0 0)
(15.8225 0 0)
(15.8317 0 0)
(15.8408 0 0)
(15.8498 0 0)
(15.8587 0 0)
(15.8674 0 0)
(15.8761 0 0)
(15.8846 0 0)
(15.893 0 0)
(15.9013 0 0)
(15.9095 0 0)
(15.9176 0 0)
(15.9255 0 0)
(15.9334 0 0)
(15.9412 0 0)
(15.9489 0 0)
(15.9564 0 0)
(15.9639 0 0)
(15.9713 0 0)
(15.9787 0 0)
(15.9859 0 0)
(15.993 0 0)
(16.0001 0 0)
(16.0071 0 0)
(16.014 0 0)
(16.0208 0 0)
(16.0276 0 0)
(16.0343 0 0)
(16.041 0 0)
(16.0475 0 0)
(16.0541 0 0)
(16.0605 0 0)
(16.067 0 0)
(16.0733 0 0)
(16.0797 0 0)
(16.0859 0 0)
(16.0922 0 0)
(16.0984 0 0)
(16.1045 0 0)
(16.1106 0 0)
(16.1167 0 0)
(16.1228 0 0)
(16.1288 0 0)
(16.1348 0 0)
(16.1407 0 0)
(16.1467 0 0)
(16.1525 0 0)
(16.1584 0 0)
(16.1642 0 0)
(16.1699 0 0)
(16.1756 0 0)
(16.1813 0 0)
(16.1869 0 0)
(16.1924 0 0)
(16.1979 0 0)
(16.2032 0 0)
(16.2085 0 0)
(16.2137 0 0)
(16.2188 0 0)
(16.2238 0 0)
(16.2287 0 0)
(16.2334 0 0)
(16.238 0 0)
(16.2424 0 0)
(16.2467 0 0)
(16.2508 0 0)
(16.2547 0 0)
(16.2585 0 0)
(16.2621 0 0)
(16.2654 0 0)
(16.2686 0 0)
(16.2716 0 0)
(16.2744 0 0)
(16.2769 0 0)
(16.2793 0 0)
(16.2815 0 0)
(16.2834 0 0)
(16.2852 0 0)
(16.2867 0 0)
(16.2881 0 0)
(16.2893 0 0)
(16.2904 0 0)
(16.2912 0 0)
(16.2919 0 0)
(16.2925 0 0)
(16.2929 0 0)
(16.2932 0 0)
(16.2934 0 0)
(16.2935 0 0)
(16.2935 0 0)
(16.2935 0 0)
(16.2934 0 0)
(16.2932 0 0)
(16.293 0 0)
(16.2928 0 0)
(16.2926 0 0)
(16.2923 0 0)
(16.2921 0 0)
(16.2918 0 0)
(16.2916 0 0)
(16.2915 0 0)
(16.2913 0 0)
(16.2912 0 0)
(16.2911 0 0)
(16.2911 0 0)
(16.2912 0 0)
(16.2913 0 0)
(16.2915 0 0)
(16.2919 0 0)
(16.2923 0 0)
(16.2929 0 0)
(16.2938 0 0)
(16.2949 0 0)
(16.2965 0 0)
(16.2988 0 0)
(16.303 0 0)
)
;

boundaryField
{
    boundary
    {
        type            empty;
    }
    inlet
    {
        type            fixedValue;
        value           uniform (2.34893 0 0);
    }
    outlet
    {
        type            zeroGradient;
    }
}


// ************************************************************************* //
