/*--------------------------------*- C++ -*----------------------------------*\
  =========                 |
  \\      /  F ield         | OpenFOAM: The Open Source CFD Toolbox
   \\    /   O peration     | Website:  https://openfoam.org
    \\  /    A nd           | Version:  7
     \\/     M anipulation  |
\*---------------------------------------------------------------------------*/
FoamFile
{
    version     2.0;
    format      ascii;
    class       surfaceScalarField;
    location    "0.00032";
    object      phi;
}
// * * * * * * * * * * * * * * * * * * * * * * * * * * * * * * * * * * * * * //

dimensions      [1 0 -1 0 0 0 0];

internalField   nonuniform List<scalar> 
124
(
6.93123e-06
6.93086e-06
6.93049e-06
6.9301e-06
6.92968e-06
6.92923e-06
6.92874e-06
6.92818e-06
6.92755e-06
6.92682e-06
6.92598e-06
6.92501e-06
6.9239e-06
6.92264e-06
6.92121e-06
6.91962e-06
6.91787e-06
6.91598e-06
6.91397e-06
6.91187e-06
6.90971e-06
6.90754e-06
6.90538e-06
6.90328e-06
6.90127e-06
6.89938e-06
6.89762e-06
6.89603e-06
6.89459e-06
6.89331e-06
6.89219e-06
6.89121e-06
6.89037e-06
6.88964e-06
6.88901e-06
6.88847e-06
6.888e-06
6.88759e-06
6.88722e-06
6.88688e-06
6.88657e-06
6.88628e-06
6.886e-06
6.88574e-06
6.88548e-06
6.88523e-06
6.88498e-06
6.88473e-06
6.88448e-06
6.88423e-06
6.88399e-06
6.88374e-06
6.8835e-06
6.88325e-06
6.88301e-06
6.88276e-06
6.88252e-06
6.88227e-06
6.88203e-06
6.88178e-06
6.88154e-06
6.88129e-06
6.88105e-06
6.8808e-06
6.88056e-06
6.88031e-06
6.88006e-06
6.87982e-06
6.87957e-06
6.87932e-06
6.87908e-06
6.87883e-06
6.87858e-06
6.87833e-06
6.87809e-06
6.87784e-06
6.87759e-06
6.87734e-06
6.8771e-06
6.87685e-06
6.8766e-06
6.87635e-06
6.8761e-06
6.87585e-06
6.8756e-06
6.87536e-06
6.87511e-06
6.87486e-06
6.87461e-06
6.87436e-06
6.87411e-06
6.87386e-06
6.87361e-06
6.87336e-06
6.8731e-06
6.87285e-06
6.8726e-06
6.87235e-06
6.8721e-06
6.87185e-06
6.8716e-06
6.87134e-06
6.87109e-06
6.87084e-06
6.87059e-06
6.87033e-06
6.87008e-06
6.86983e-06
6.86958e-06
6.86932e-06
6.86907e-06
6.86881e-06
6.86856e-06
6.86831e-06
6.86805e-06
6.8678e-06
6.86754e-06
6.86729e-06
6.86703e-06
6.86678e-06
6.86652e-06
6.86627e-06
6.86601e-06
6.86576e-06
)
;

boundaryField
{
    boundary
    {
        type            empty;
        value           nonuniform 0();
    }
    inlet
    {
        type            calculated;
        value           uniform -6.93158e-06;
    }
    outlet
    {
        type            calculated;
        value           nonuniform 0();
    }
    procBoundary2to3
    {
        type            processor;
        value           uniform 6.8655e-06;
    }
}


// ************************************************************************* //
