/*--------------------------------*- C++ -*----------------------------------*\
  =========                 |
  \\      /  F ield         | OpenFOAM: The Open Source CFD Toolbox
   \\    /   O peration     | Website:  https://openfoam.org
    \\  /    A nd           | Version:  7
     \\/     M anipulation  |
\*---------------------------------------------------------------------------*/
FoamFile
{
    version     2.0;
    format      ascii;
    class       volScalarField;
    location    "0.00041";
    object      OH;
}
// * * * * * * * * * * * * * * * * * * * * * * * * * * * * * * * * * * * * * //

dimensions      [0 0 0 0 0 0 0];

internalField   nonuniform List<scalar> 
125
(
9.39882e-48
1.83317e-47
2.4456e-47
2.86221e-47
3.146e-47
3.34062e-47
3.47578e-47
3.57161e-47
3.64178e-47
3.6957e-47
3.7399e-47
3.77902e-47
3.81648e-47
3.8549e-47
3.89633e-47
3.94248e-47
3.99479e-47
4.05447e-47
4.12251e-47
4.19971e-47
4.28657e-47
4.38335e-47
4.48996e-47
4.60596e-47
4.73055e-47
4.86255e-47
5.00046e-47
5.14246e-47
5.28649e-47
5.43037e-47
5.57188e-47
5.70887e-47
5.8394e-47
5.96179e-47
6.07471e-47
6.17723e-47
6.26883e-47
6.34939e-47
6.41914e-47
6.4786e-47
6.52853e-47
6.56984e-47
6.60351e-47
6.63058e-47
6.65203e-47
6.6688e-47
6.68173e-47
6.69158e-47
6.69898e-47
6.70447e-47
6.7085e-47
6.71143e-47
6.71352e-47
6.71501e-47
6.71606e-47
6.71679e-47
6.71729e-47
6.71765e-47
6.71789e-47
6.71807e-47
6.71819e-47
6.71829e-47
6.71836e-47
6.71843e-47
6.71848e-47
6.71854e-47
6.71859e-47
6.71864e-47
6.7187e-47
6.71875e-47
6.71881e-47
6.71888e-47
6.71894e-47
6.71901e-47
6.71908e-47
6.71916e-47
6.71924e-47
6.71932e-47
6.71941e-47
6.71951e-47
6.7196e-47
6.71971e-47
6.71981e-47
6.71993e-47
6.72004e-47
6.72017e-47
6.7203e-47
6.72043e-47
6.72057e-47
6.72072e-47
6.72087e-47
6.72103e-47
6.72119e-47
6.72137e-47
6.72155e-47
6.72173e-47
6.72193e-47
6.72213e-47
6.72234e-47
6.72255e-47
6.72278e-47
6.72301e-47
6.72325e-47
6.7235e-47
6.72376e-47
6.72402e-47
6.7243e-47
6.72458e-47
6.72487e-47
6.72517e-47
6.72548e-47
6.7258e-47
6.72613e-47
6.72647e-47
6.72682e-47
6.72718e-47
6.72754e-47
6.72792e-47
6.7283e-47
6.7287e-47
6.7291e-47
6.72952e-47
6.72994e-47
6.73035e-47
6.73053e-47
)
;

boundaryField
{
    boundary
    {
        type            empty;
    }
    inlet
    {
        type            fixedValue;
        value           uniform 0;
    }
    outlet
    {
        type            zeroGradient;
    }
    procBoundary2to3
    {
        type            processor;
        value           uniform 6.73056e-47;
    }
}


// ************************************************************************* //
