/*--------------------------------*- C++ -*----------------------------------*\
  =========                 |
  \\      /  F ield         | OpenFOAM: The Open Source CFD Toolbox
   \\    /   O peration     | Website:  https://openfoam.org
    \\  /    A nd           | Version:  7
     \\/     M anipulation  |
\*---------------------------------------------------------------------------*/
FoamFile
{
    version     2.0;
    format      ascii;
    class       volScalarField;
    location    "0.00051";
    object      O;
}
// * * * * * * * * * * * * * * * * * * * * * * * * * * * * * * * * * * * * * //

dimensions      [0 0 0 0 0 0 0];

internalField   nonuniform List<scalar> 
126
(
1.37895e-45
1.37927e-45
1.37969e-45
1.3802e-45
1.3808e-45
1.38146e-45
1.38215e-45
1.38282e-45
1.38344e-45
1.38399e-45
1.38444e-45
1.3848e-45
1.38507e-45
1.38527e-45
1.38542e-45
1.38553e-45
1.38561e-45
1.38567e-45
1.38573e-45
1.38578e-45
1.38583e-45
1.38588e-45
1.38593e-45
1.38597e-45
1.38602e-45
1.38607e-45
1.38613e-45
1.38619e-45
1.38626e-45
1.38634e-45
1.38643e-45
1.38653e-45
1.38665e-45
1.38678e-45
1.38692e-45
1.38707e-45
1.38724e-45
1.38741e-45
1.38759e-45
1.38777e-45
1.38795e-45
1.38813e-45
1.38831e-45
1.38849e-45
1.38866e-45
1.38882e-45
1.38897e-45
1.38912e-45
1.38925e-45
1.38938e-45
1.38949e-45
1.38959e-45
1.38969e-45
1.38977e-45
1.38985e-45
1.38991e-45
1.38997e-45
1.39001e-45
1.39005e-45
1.39008e-45
1.3901e-45
1.3901e-45
1.3901e-45
1.39009e-45
1.39006e-45
1.39003e-45
1.38998e-45
1.38992e-45
1.38985e-45
1.38976e-45
1.38966e-45
1.38955e-45
1.38944e-45
1.38935e-45
1.38948e-45
1.39063e-45
1.39643e-45
1.42328e-45
1.54403e-45
2.08021e-45
4.4391e-45
1.47283e-44
5.92324e-44
2.50112e-43
1.0619e-42
4.48504e-42
1.87967e-41
7.81183e-41
3.21887e-40
1.31492e-39
5.32501e-39
2.13772e-38
8.50703e-38
3.35574e-37
1.31212e-36
5.08545e-36
1.95366e-35
7.4393e-35
2.80791e-34
1.05053e-33
3.89597e-33
1.43227e-32
5.2198e-32
1.88593e-31
6.75572e-31
2.39952e-30
8.45123e-30
2.9519e-29
1.02263e-28
3.51412e-28
1.198e-27
4.05231e-27
1.36029e-26
4.53243e-26
1.49937e-25
4.9259e-25
1.60771e-24
5.21482e-24
1.68172e-23
5.39426e-23
1.72171e-22
5.47035e-22
1.73088e-21
5.45593e-21
1.71386e-20
5.36691e-20
)
;

boundaryField
{
    boundary
    {
        type            empty;
    }
    inlet
    {
        type            fixedValue;
        value           nonuniform 0();
    }
    outlet
    {
        type            zeroGradient;
    }
    procBoundary3to1
    {
        type            processor;
        value           uniform 1.68602e-19;
    }
    procBoundary3to2
    {
        type            processor;
        value           uniform 1.38156e-45;
    }
}


// ************************************************************************* //
