/*--------------------------------*- C++ -*----------------------------------*\
  =========                 |
  \\      /  F ield         | OpenFOAM: The Open Source CFD Toolbox
   \\    /   O peration     | Website:  https://openfoam.org
    \\  /    A nd           | Version:  7
     \\/     M anipulation  |
\*---------------------------------------------------------------------------*/
FoamFile
{
    version     2.0;
    format      ascii;
    class       volScalarField;
    location    "0.0008";
    object      H2O;
}
// * * * * * * * * * * * * * * * * * * * * * * * * * * * * * * * * * * * * * //

dimensions      [0 0 0 0 0 0 0];

internalField   nonuniform List<scalar> 
126
(
2.53803e-45
2.53811e-45
2.5382e-45
2.53829e-45
2.53838e-45
2.53849e-45
2.53859e-45
2.5387e-45
2.53881e-45
2.53892e-45
2.53904e-45
2.53915e-45
2.53927e-45
2.53939e-45
2.53952e-45
2.53966e-45
2.53981e-45
2.53997e-45
2.54016e-45
2.54037e-45
2.5406e-45
2.54087e-45
2.54117e-45
2.5415e-45
2.54187e-45
2.54227e-45
2.54271e-45
2.54317e-45
2.54365e-45
2.54414e-45
2.54464e-45
2.54514e-45
2.54564e-45
2.54612e-45
2.54657e-45
2.547e-45
2.5474e-45
2.54777e-45
2.5481e-45
2.54839e-45
2.54866e-45
2.54889e-45
2.54909e-45
2.54928e-45
2.54944e-45
2.54959e-45
2.54974e-45
2.54988e-45
2.55003e-45
2.55019e-45
2.55035e-45
2.55053e-45
2.55072e-45
2.55093e-45
2.55115e-45
2.55139e-45
2.55164e-45
2.55191e-45
2.55219e-45
2.55247e-45
2.55276e-45
2.55305e-45
2.55335e-45
2.55364e-45
2.55392e-45
2.5542e-45
2.55447e-45
2.55473e-45
2.55499e-45
2.55523e-45
2.55551e-45
2.55594e-45
2.55692e-45
2.55998e-45
2.57052e-45
2.60775e-45
2.73973e-45
3.20608e-45
4.84662e-45
1.05911e-44
3.06174e-44
1.00149e-43
3.40701e-43
1.17043e-42
4.02593e-42
1.38397e-41
4.75584e-41
1.63525e-40
5.63342e-40
1.94744e-39
6.76699e-39
2.36777e-38
8.35691e-38
2.97983e-37
1.07476e-36
3.92421e-36
1.45086e-35
5.43011e-35
2.05574e-34
7.86337e-34
3.0348e-33
1.18003e-32
4.61609e-32
1.81421e-31
7.15529e-31
2.8292e-30
1.12059e-29
4.44326e-29
1.76288e-28
6.99608e-28
2.77644e-27
1.10167e-26
4.37019e-26
1.73303e-25
6.87004e-25
2.72241e-24
1.07843e-23
4.27047e-23
1.69045e-22
6.68919e-22
2.64593e-21
1.04617e-20
4.13462e-20
1.63324e-19
6.44792e-19
2.544e-18
)
;

boundaryField
{
    boundary
    {
        type            empty;
    }
    inlet
    {
        type            fixedValue;
        value           nonuniform 0();
    }
    outlet
    {
        type            zeroGradient;
    }
    procBoundary3to1
    {
        type            processor;
        value           uniform 1.00882e-17;
    }
    procBoundary3to2
    {
        type            processor;
        value           uniform 2.54139e-45;
    }
}


// ************************************************************************* //
