/*--------------------------------*- C++ -*----------------------------------*\
  =========                 |
  \\      /  F ield         | OpenFOAM: The Open Source CFD Toolbox
   \\    /   O peration     | Website:  https://openfoam.org
    \\  /    A nd           | Version:  7
     \\/     M anipulation  |
\*---------------------------------------------------------------------------*/
FoamFile
{
    version     2.0;
    format      ascii;
    class       volScalarField;
    location    "0.0008";
    object      Qdot;
}
// * * * * * * * * * * * * * * * * * * * * * * * * * * * * * * * * * * * * * //

dimensions      [1 -1 -3 0 0 0 0];

internalField   nonuniform List<scalar> 
126
(
-2.67107e-27
-2.67117e-27
-2.67129e-27
-2.67142e-27
-2.67156e-27
-2.67172e-27
-2.67187e-27
-2.67202e-27
-2.67217e-27
-2.67231e-27
-2.67245e-27
-2.67257e-27
-2.67267e-27
-2.67277e-27
-2.67285e-27
-2.67292e-27
-2.67299e-27
-2.67304e-27
-2.6731e-27
-2.67315e-27
-2.67321e-27
-2.67328e-27
-2.67335e-27
-2.67343e-27
-2.67352e-27
-2.67362e-27
-2.67373e-27
-2.67385e-27
-2.67398e-27
-2.67411e-27
-2.67425e-27
-2.67439e-27
-2.67454e-27
-2.67469e-27
-2.67485e-27
-2.675e-27
-2.67516e-27
-2.67532e-27
-2.67548e-27
-2.67564e-27
-2.6758e-27
-2.67596e-27
-2.67613e-27
-2.6763e-27
-2.67646e-27
-2.67663e-27
-2.6768e-27
-2.67698e-27
-2.67715e-27
-2.67733e-27
-2.67751e-27
-2.67768e-27
-2.67786e-27
-2.67805e-27
-2.67823e-27
-2.67841e-27
-2.6786e-27
-2.67878e-27
-2.67896e-27
-2.67914e-27
-2.67932e-27
-2.6795e-27
-2.67968e-27
-2.67985e-27
-2.68002e-27
-2.68018e-27
-2.68034e-27
-2.68049e-27
-2.68064e-27
-2.68078e-27
-2.68091e-27
-2.68104e-27
-2.68116e-27
-2.68127e-27
-2.68137e-27
-2.68146e-27
-2.68153e-27
-2.6816e-27
-2.68166e-27
-2.6817e-27
-2.68172e-27
-2.68171e-27
-2.6816e-27
-2.68124e-27
-2.68003e-27
-2.67602e-27
-2.6628e-27
-2.61917e-27
-2.47568e-27
-2.00563e-27
-4.72358e-28
4.50761e-27
2.06143e-26
7.24962e-26
2.38963e-25
7.7109e-25
2.46603e-24
7.84661e-24
2.48728e-23
7.85887e-23
2.47582e-22
7.77857e-22
2.43775e-21
7.62206e-21
2.37809e-20
7.40527e-20
2.3019e-19
7.14399e-19
2.21403e-18
6.85311e-18
2.11899e-17
6.54616e-17
2.02088e-16
6.23568e-16
1.92362e-15
5.93444e-15
1.8316e-14
5.65845e-14
1.75103e-13
5.43326e-13
1.69284e-12
5.30684e-12
1.6785e-11
5.37628e-11
1.75212e-10
5.84225e-10
)
;

boundaryField
{
    boundary
    {
        type            empty;
    }
    inlet
    {
        type            calculated;
        value           nonuniform 0();
    }
    outlet
    {
        type            calculated;
        value           nonuniform 0();
    }
    procBoundary3to1
    {
        type            processor;
        value           uniform 0;
    }
    procBoundary3to2
    {
        type            processor;
        value           uniform 0;
    }
}


// ************************************************************************* //
