/*--------------------------------*- C++ -*----------------------------------*\
  =========                 |
  \\      /  F ield         | OpenFOAM: The Open Source CFD Toolbox
   \\    /   O peration     | Website:  https://openfoam.org
    \\  /    A nd           | Version:  7
     \\/     M anipulation  |
\*---------------------------------------------------------------------------*/
FoamFile
{
    version     2.0;
    format      ascii;
    class       volVectorField;
    location    "0.00048";
    object      U;
}
// * * * * * * * * * * * * * * * * * * * * * * * * * * * * * * * * * * * * * //

dimensions      [0 1 -1 0 0 0 0];

internalField   nonuniform List<vector> 
126
(
(2.33606 0 0)
(2.33597 0 0)
(2.33587 0 0)
(2.33577 0 0)
(2.33567 0 0)
(2.33558 0 0)
(2.33548 0 0)
(2.33538 0 0)
(2.33528 0 0)
(2.33519 0 0)
(2.33509 0 0)
(2.335 0 0)
(2.3349 0 0)
(2.3348 0 0)
(2.33471 0 0)
(2.33461 0 0)
(2.33451 0 0)
(2.33442 0 0)
(2.33432 0 0)
(2.33423 0 0)
(2.33413 0 0)
(2.33404 0 0)
(2.33394 0 0)
(2.33385 0 0)
(2.33375 0 0)
(2.33366 0 0)
(2.33356 0 0)
(2.33347 0 0)
(2.33337 0 0)
(2.33328 0 0)
(2.33319 0 0)
(2.33309 0 0)
(2.333 0 0)
(2.33291 0 0)
(2.33281 0 0)
(2.33272 0 0)
(2.33263 0 0)
(2.33253 0 0)
(2.33244 0 0)
(2.33235 0 0)
(2.33226 0 0)
(2.33216 0 0)
(2.33207 0 0)
(2.33198 0 0)
(2.33189 0 0)
(2.33179 0 0)
(2.3317 0 0)
(2.33161 0 0)
(2.33152 0 0)
(2.33143 0 0)
(2.33134 0 0)
(2.33125 0 0)
(2.33116 0 0)
(2.33107 0 0)
(2.33098 0 0)
(2.33089 0 0)
(2.3308 0 0)
(2.33071 0 0)
(2.33062 0 0)
(2.33053 0 0)
(2.33044 0 0)
(2.33035 0 0)
(2.33026 0 0)
(2.33017 0 0)
(2.33008 0 0)
(2.32999 0 0)
(2.3299 0 0)
(2.32981 0 0)
(2.32973 0 0)
(2.32964 0 0)
(2.32955 0 0)
(2.32946 0 0)
(2.32938 0 0)
(2.32929 0 0)
(2.3292 0 0)
(2.32911 0 0)
(2.32903 0 0)
(2.32894 0 0)
(2.32885 0 0)
(2.32877 0 0)
(2.32868 0 0)
(2.3286 0 0)
(2.32851 0 0)
(2.32842 0 0)
(2.32834 0 0)
(2.32825 0 0)
(2.32817 0 0)
(2.32808 0 0)
(2.328 0 0)
(2.32791 0 0)
(2.32783 0 0)
(2.32774 0 0)
(2.32766 0 0)
(2.32758 0 0)
(2.32749 0 0)
(2.32741 0 0)
(2.32732 0 0)
(2.32724 0 0)
(2.32716 0 0)
(2.32708 0 0)
(2.32699 0 0)
(2.32691 0 0)
(2.32683 0 0)
(2.32675 0 0)
(2.32666 0 0)
(2.32658 0 0)
(2.3265 0 0)
(2.32642 0 0)
(2.32634 0 0)
(2.32626 0 0)
(2.32618 0 0)
(2.32609 0 0)
(2.32601 0 0)
(2.32593 0 0)
(2.32585 0 0)
(2.32577 0 0)
(2.32569 0 0)
(2.32561 0 0)
(2.32553 0 0)
(2.32546 0 0)
(2.32538 0 0)
(2.3253 0 0)
(2.32522 0 0)
(2.32514 0 0)
(2.32506 0 0)
(2.32498 0 0)
)
;

boundaryField
{
    boundary
    {
        type            empty;
    }
    inlet
    {
        type            fixedValue;
        value           nonuniform 0();
    }
    outlet
    {
        type            zeroGradient;
    }
    procBoundary3to1
    {
        type            processor;
        value           uniform (2.3249 0 0);
    }
    procBoundary3to2
    {
        type            processor;
        value           uniform (2.33616 0 0);
    }
}


// ************************************************************************* //
