/*--------------------------------*- C++ -*----------------------------------*\
  =========                 |
  \\      /  F ield         | OpenFOAM: The Open Source CFD Toolbox
   \\    /   O peration     | Website:  https://openfoam.org
    \\  /    A nd           | Version:  7
     \\/     M anipulation  |
\*---------------------------------------------------------------------------*/
FoamFile
{
    version     2.0;
    format      ascii;
    class       volScalarField;
    location    "0.00028";
    object      HO2;
}
// * * * * * * * * * * * * * * * * * * * * * * * * * * * * * * * * * * * * * //

dimensions      [0 0 0 0 0 0 0];

internalField   nonuniform List<scalar> 
126
(
2.12389e-36
2.12308e-36
2.12191e-36
2.12042e-36
2.11871e-36
2.11696e-36
2.11536e-36
2.11405e-36
2.11312e-36
2.11258e-36
2.11241e-36
2.11257e-36
2.11299e-36
2.11363e-36
2.11443e-36
2.11537e-36
2.1164e-36
2.11748e-36
2.11858e-36
2.11967e-36
2.12071e-36
2.12169e-36
2.12258e-36
2.12337e-36
2.12405e-36
2.12464e-36
2.12513e-36
2.12554e-36
2.12588e-36
2.12617e-36
2.1264e-36
2.12659e-36
2.12675e-36
2.12689e-36
2.12701e-36
2.12712e-36
2.12721e-36
2.12729e-36
2.12737e-36
2.12743e-36
2.12749e-36
2.12753e-36
2.12757e-36
2.1276e-36
2.12761e-36
2.12762e-36
2.12761e-36
2.1276e-36
2.12757e-36
2.12753e-36
2.12747e-36
2.1274e-36
2.12732e-36
2.12722e-36
2.1271e-36
2.12697e-36
2.12682e-36
2.12665e-36
2.12646e-36
2.12625e-36
2.12602e-36
2.12577e-36
2.1255e-36
2.12521e-36
2.12489e-36
2.12455e-36
2.12418e-36
2.12379e-36
2.12337e-36
2.12292e-36
2.12245e-36
2.12195e-36
2.12142e-36
2.12085e-36
2.12026e-36
2.11964e-36
2.11898e-36
2.1183e-36
2.11758e-36
2.11682e-36
2.11604e-36
2.11521e-36
2.11436e-36
2.11347e-36
2.11254e-36
2.11158e-36
2.11058e-36
2.10954e-36
2.10847e-36
2.10736e-36
2.10622e-36
2.10504e-36
2.10382e-36
2.10257e-36
2.10128e-36
2.09996e-36
2.0986e-36
2.09721e-36
2.09583e-36
2.09459e-36
2.09435e-36
2.09959e-36
2.13434e-36
2.32585e-36
3.34245e-36
8.66776e-36
3.63358e-35
1.79167e-34
9.12762e-34
4.66686e-33
2.38398e-32
1.21744e-31
6.22555e-31
3.1935e-30
1.64587e-29
8.53153e-29
4.44968e-28
2.33408e-27
1.22988e-26
6.49803e-26
3.43495e-25
1.81247e-24
9.52503e-24
4.97533e-23
2.57848e-22
1.32383e-21
)
;

boundaryField
{
    boundary
    {
        type            empty;
    }
    inlet
    {
        type            fixedValue;
        value           nonuniform 0();
    }
    outlet
    {
        type            zeroGradient;
    }
    procBoundary3to1
    {
        type            processor;
        value           uniform 6.69473e-21;
    }
    procBoundary3to2
    {
        type            processor;
        value           uniform 2.12287e-36;
    }
}


// ************************************************************************* //
