/*--------------------------------*- C++ -*----------------------------------*\
  =========                 |
  \\      /  F ield         | OpenFOAM: The Open Source CFD Toolbox
   \\    /   O peration     | Website:  https://openfoam.org
    \\  /    A nd           | Version:  7
     \\/     M anipulation  |
\*---------------------------------------------------------------------------*/
FoamFile
{
    version     2.0;
    format      ascii;
    class       volScalarField;
    location    "0.00027";
    object      H;
}
// * * * * * * * * * * * * * * * * * * * * * * * * * * * * * * * * * * * * * //

dimensions      [0 0 0 0 0 0 0];

internalField   nonuniform List<scalar> 
500
(
1.48827e-41
2.02005e-41
2.14004e-41
2.17274e-41
2.18845e-41
2.20276e-41
2.21957e-41
2.24035e-41
2.26605e-41
2.29746e-41
2.33523e-41
2.37979e-41
2.43132e-41
2.48968e-41
2.55438e-41
2.62457e-41
2.69902e-41
2.77621e-41
2.8544e-41
2.93173e-41
3.00637e-41
3.07669e-41
3.1413e-41
3.19923e-41
3.24993e-41
3.29324e-41
3.32937e-41
3.35884e-41
3.38233e-41
3.40066e-41
3.41466e-41
3.42514e-41
3.43283e-41
3.43837e-41
3.44228e-41
3.44499e-41
3.44685e-41
3.44809e-41
3.44891e-41
3.44945e-41
3.44979e-41
3.45001e-41
3.45015e-41
3.45024e-41
3.4503e-41
3.45034e-41
3.45036e-41
3.45039e-41
3.4504e-41
3.45042e-41
3.45044e-41
3.45045e-41
3.45047e-41
3.45049e-41
3.45051e-41
3.45053e-41
3.45055e-41
3.45057e-41
3.4506e-41
3.45062e-41
3.45065e-41
3.45067e-41
3.4507e-41
3.45073e-41
3.45077e-41
3.4508e-41
3.45083e-41
3.45087e-41
3.45091e-41
3.45095e-41
3.451e-41
3.45104e-41
3.45109e-41
3.45114e-41
3.45119e-41
3.45124e-41
3.4513e-41
3.45136e-41
3.45142e-41
3.45148e-41
3.45155e-41
3.45162e-41
3.45169e-41
3.45177e-41
3.45185e-41
3.45193e-41
3.45201e-41
3.4521e-41
3.45219e-41
3.45228e-41
3.45238e-41
3.45248e-41
3.45259e-41
3.4527e-41
3.45281e-41
3.45292e-41
3.45304e-41
3.45317e-41
3.45329e-41
3.45342e-41
3.45356e-41
3.4537e-41
3.45384e-41
3.45399e-41
3.45414e-41
3.45429e-41
3.45445e-41
3.45462e-41
3.45479e-41
3.45496e-41
3.45513e-41
3.45531e-41
3.4555e-41
3.45569e-41
3.45588e-41
3.45608e-41
3.45628e-41
3.45648e-41
3.45669e-41
3.4569e-41
3.45712e-41
3.45734e-41
3.45756e-41
3.45777e-41
3.45798e-41
3.45818e-41
3.45842e-41
3.45866e-41
3.45889e-41
3.45911e-41
3.45933e-41
3.45955e-41
3.45977e-41
3.45998e-41
3.4602e-41
3.46042e-41
3.46064e-41
3.46088e-41
3.46112e-41
3.46137e-41
3.46163e-41
3.46191e-41
3.46219e-41
3.46248e-41
3.46277e-41
3.46307e-41
3.46337e-41
3.46367e-41
3.46396e-41
3.46424e-41
3.46452e-41
3.46479e-41
3.46505e-41
3.4653e-41
3.46553e-41
3.46576e-41
3.46598e-41
3.46619e-41
3.46639e-41
3.46658e-41
3.46676e-41
3.46692e-41
3.46707e-41
3.46721e-41
3.46734e-41
3.46745e-41
3.46755e-41
3.46763e-41
3.46769e-41
3.46774e-41
3.46776e-41
3.46777e-41
3.46776e-41
3.46772e-41
3.46766e-41
3.46758e-41
3.46747e-41
3.46733e-41
3.46717e-41
3.46697e-41
3.46675e-41
3.4665e-41
3.46621e-41
3.46589e-41
3.46554e-41
3.46514e-41
3.46472e-41
3.46425e-41
3.46374e-41
3.46319e-41
3.4626e-41
3.46197e-41
3.46129e-41
3.46056e-41
3.45979e-41
3.45896e-41
3.45809e-41
3.45717e-41
3.45619e-41
3.45517e-41
3.45409e-41
3.45295e-41
3.45176e-41
3.45051e-41
3.4492e-41
3.44784e-41
3.44641e-41
3.44493e-41
3.44339e-41
3.44178e-41
3.44012e-41
3.43839e-41
3.4366e-41
3.43475e-41
3.43284e-41
3.43087e-41
3.42883e-41
3.42673e-41
3.42458e-41
3.42236e-41
3.4201e-41
3.41781e-41
3.41567e-41
3.41461e-41
3.41966e-41
3.45751e-41
3.66872e-41
4.78464e-41
1.0566e-40
4.01215e-40
1.8938e-39
9.34062e-39
4.6044e-38
2.24733e-37
1.08398e-36
5.16464e-36
2.43043e-35
1.12966e-34
5.18624e-34
2.3521e-33
1.054e-32
4.66806e-32
2.04419e-31
8.85605e-31
3.79847e-30
1.61449e-29
6.8082e-29
2.85245e-28
1.1894e-27
4.94528e-27
2.05447e-26
8.59505e-26
3.59982e-25
1.51738e-24
6.44995e-24
2.76814e-23
1.20012e-22
5.2556e-22
2.32347e-21
1.03609e-20
4.65605e-20
2.10716e-19
9.60108e-19
4.40594e-18
2.03883e-17
9.53588e-17
4.52488e-16
2.19008e-15
1.08886e-14
5.6059e-14
3.01194e-13
1.80314e-12
1.3162e-11
1.22461e-10
1.16363e-09
1.08814e-08
1.01142e-07
8.91345e-07
6.83026e-06
3.95725e-05
0.000147499
0.000353957
0.000645406
0.000996057
0.00135238
0.00164366
0.00182895
0.00191499
0.00192218
0.0018837
0.00182098
0.0017477
0.00167183
0.00159767
0.00152734
0.00146168
0.0014009
0.00134482
0.00129312
0.00124542
0.00120133
0.00116049
0.00112257
0.00108727
0.00105433
0.00102351
0.000994613
0.000967461
0.000941896
0.000917781
0.000894994
0.000873426
0.00085358
0.00083514
0.000817487
0.000800572
0.000784349
0.000768778
0.000753818
0.000739435
0.000725594
0.000712267
0.000699424
0.000687039
0.00067509
0.000663553
0.000652408
0.000641635
0.000631216
0.000621136
0.000611377
0.000601925
0.000592766
0.000583887
0.000575277
0.000566923
0.000558814
0.000550941
0.000543293
0.000535862
0.000528637
0.000521611
0.000514776
0.000508124
0.000501647
0.000495338
0.00048919
0.000483197
0.000477351
0.000471647
0.000466078
0.000460638
0.000455321
0.000450121
0.000445033
0.00044005
0.000435167
0.000430379
0.000425679
0.000421063
0.000416525
0.000412059
0.000407661
0.000403326
0.000399047
0.00039482
0.00039064
0.000386503
0.000382403
0.000378336
0.000374297
0.000370282
0.000366284
0.000362299
0.00035832
0.000354337
0.000350336
0.000346321
0.000342292
0.000338247
0.000334185
0.000330103
0.000326
0.000321874
0.000317723
0.000313546
0.000309342
0.00030511
0.000300849
0.00029656
0.000292243
0.000287898
0.000283526
0.000279129
0.000274708
0.000270265
0.000265801
0.00026132
0.000256824
0.000252316
0.000247799
0.000243276
0.000238752
0.000234229
0.000229711
0.000225203
0.000220709
0.000216233
0.000211779
0.000207351
0.000202955
0.000198593
0.000194272
0.000189995
0.000185766
0.00018159
0.000177471
0.000173412
0.000169419
0.000165494
0.000161642
0.000157865
0.000154168
0.000150553
0.000147023
0.000143581
0.000140228
0.000136968
0.000133803
0.000130733
0.00012776
0.000124885
0.000122109
0.000119433
0.000116857
0.00011438
0.000112003
0.000109725
0.000107545
0.000105462
0.000103476
0.000101584
9.97846e-05
9.80767e-05
9.64581e-05
9.49264e-05
9.34795e-05
9.21149e-05
9.08302e-05
8.96227e-05
8.84896e-05
8.74284e-05
8.6436e-05
8.55098e-05
8.46468e-05
8.38441e-05
8.3099e-05
8.24085e-05
8.17697e-05
8.118e-05
8.06366e-05
8.01368e-05
7.96779e-05
7.92575e-05
7.88731e-05
7.85222e-05
7.82027e-05
7.79122e-05
7.76487e-05
7.74102e-05
7.71946e-05
7.70003e-05
7.68255e-05
7.66686e-05
7.6528e-05
7.64024e-05
7.62903e-05
7.61906e-05
7.61021e-05
7.60237e-05
7.59544e-05
7.58933e-05
7.58396e-05
7.57925e-05
7.57513e-05
7.57153e-05
7.56839e-05
7.56567e-05
7.56332e-05
7.56129e-05
7.55954e-05
7.55805e-05
7.55677e-05
7.55569e-05
7.55478e-05
7.55403e-05
7.55342e-05
7.55294e-05
7.5526e-05
7.55241e-05
)
;

boundaryField
{
    boundary
    {
        type            empty;
    }
    inlet
    {
        type            fixedValue;
        value           uniform 0;
    }
    outlet
    {
        type            zeroGradient;
    }
}


// ************************************************************************* //
