/*--------------------------------*- C++ -*----------------------------------*\
  =========                 |
  \\      /  F ield         | OpenFOAM: The Open Source CFD Toolbox
   \\    /   O peration     | Website:  https://openfoam.org
    \\  /    A nd           | Version:  7
     \\/     M anipulation  |
\*---------------------------------------------------------------------------*/
FoamFile
{
    version     2.0;
    format      ascii;
    class       volScalarField;
    location    "0.00027";
    object      H2;
}
// * * * * * * * * * * * * * * * * * * * * * * * * * * * * * * * * * * * * * //

dimensions      [0 0 0 0 0 0 0];

internalField   nonuniform List<scalar> 
500
(
0.0285116
0.0285116
0.0285116
0.0285116
0.0285116
0.0285116
0.0285116
0.0285116
0.0285116
0.0285116
0.0285116
0.0285116
0.0285116
0.0285116
0.0285116
0.0285116
0.0285116
0.0285116
0.0285116
0.0285116
0.0285116
0.0285116
0.0285116
0.0285116
0.0285116
0.0285116
0.0285116
0.0285116
0.0285116
0.0285116
0.0285116
0.0285116
0.0285116
0.0285116
0.0285116
0.0285116
0.0285116
0.0285116
0.0285116
0.0285116
0.0285116
0.0285116
0.0285116
0.0285116
0.0285116
0.0285116
0.0285116
0.0285116
0.0285116
0.0285116
0.0285116
0.0285116
0.0285116
0.0285116
0.0285116
0.0285116
0.0285116
0.0285116
0.0285116
0.0285116
0.0285116
0.0285116
0.0285116
0.0285116
0.0285116
0.0285116
0.0285116
0.0285116
0.0285116
0.0285116
0.0285116
0.0285116
0.0285116
0.0285116
0.0285116
0.0285116
0.0285116
0.0285116
0.0285116
0.0285116
0.0285116
0.0285116
0.0285116
0.0285116
0.0285116
0.0285116
0.0285116
0.0285116
0.0285116
0.0285116
0.0285116
0.0285116
0.0285116
0.0285116
0.0285116
0.0285116
0.0285116
0.0285116
0.0285116
0.0285116
0.0285116
0.0285116
0.0285116
0.0285116
0.0285116
0.0285116
0.0285116
0.0285116
0.0285116
0.0285116
0.0285116
0.0285116
0.0285116
0.0285116
0.0285116
0.0285116
0.0285116
0.0285116
0.0285116
0.0285116
0.0285116
0.0285116
0.0285116
0.0285116
0.0285116
0.0285116
0.0285116
0.0285116
0.0285116
0.0285116
0.0285116
0.0285116
0.0285116
0.0285116
0.0285116
0.0285116
0.0285116
0.0285116
0.0285116
0.0285116
0.0285116
0.0285116
0.0285116
0.0285116
0.0285116
0.0285116
0.0285116
0.0285116
0.0285116
0.0285116
0.0285116
0.0285116
0.0285116
0.0285116
0.0285116
0.0285116
0.0285116
0.0285116
0.0285116
0.0285116
0.0285116
0.0285116
0.0285116
0.0285116
0.0285116
0.0285116
0.0285116
0.0285116
0.0285116
0.0285116
0.0285116
0.0285116
0.0285116
0.0285116
0.0285116
0.0285116
0.0285116
0.0285116
0.0285116
0.0285116
0.0285116
0.0285116
0.0285116
0.0285116
0.0285116
0.0285116
0.0285116
0.0285116
0.0285116
0.0285116
0.0285116
0.0285116
0.0285116
0.0285116
0.0285116
0.0285116
0.0285116
0.0285116
0.0285116
0.0285116
0.0285116
0.0285116
0.0285116
0.0285116
0.0285116
0.0285116
0.0285116
0.0285116
0.0285116
0.0285116
0.0285116
0.0285116
0.0285116
0.0285116
0.0285116
0.0285116
0.0285116
0.0285116
0.0285116
0.0285116
0.0285116
0.0285116
0.0285116
0.0285116
0.0285116
0.0285116
0.0285116
0.0285116
0.0285116
0.0285116
0.0285116
0.0285116
0.0285116
0.0285116
0.0285116
0.0285116
0.0285116
0.0285116
0.0285116
0.0285116
0.0285116
0.0285116
0.0285116
0.0285116
0.0285116
0.0285116
0.0285116
0.0285116
0.0285116
0.0285116
0.0285116
0.0285116
0.0285116
0.0285116
0.0285116
0.0285116
0.0285116
0.0285116
0.0285116
0.0285116
0.0285116
0.0285116
0.0285116
0.0285116
0.0285115
0.0285115
0.0285113
0.028511
0.0285103
0.0285089
0.0285059
0.0284995
0.0284861
0.0284581
0.0283995
0.0282778
0.0280286
0.0275362
0.0266322
0.0251554
0.0230783
0.0205648
0.0177325
0.0146853
0.0116964
0.00913756
0.00722336
0.00582335
0.00499027
0.0044724
0.00415375
0.00395653
0.00383169
0.00374938
0.0036918
0.00364848
0.00361332
0.00358281
0.00355495
0.00352861
0.00350316
0.00347829
0.00345382
0.00342969
0.00340586
0.00338233
0.00335911
0.00333621
0.00331366
0.00329146
0.00326962
0.00324815
0.00322771
0.0032081
0.00318879
0.00316978
0.00315107
0.00313266
0.00311455
0.00309676
0.00307928
0.00306212
0.00304528
0.00302876
0.00301257
0.00299671
0.00298118
0.00296598
0.00295112
0.00293659
0.00292241
0.00290857
0.00289508
0.00288194
0.00286915
0.00285671
0.00284463
0.00283291
0.00282155
0.00281056
0.00279993
0.00278967
0.00277979
0.00277028
0.00276116
0.00275241
0.00274404
0.00273607
0.00272847
0.00272127
0.00271446
0.00270804
0.002702
0.00269636
0.0026911
0.00268623
0.00268174
0.00267762
0.00267387
0.00267048
0.00266745
0.00266476
0.0026624
0.00266036
0.00265862
0.00265717
0.00265598
0.00265505
0.00265435
0.00265387
0.00265359
0.00265348
0.00265355
0.0026538
0.00265422
0.00265484
0.0026543
0.00265374
0.00265303
0.0026521
0.00265091
0.00264942
0.00264756
0.0026453
0.00264258
0.00263936
0.00263559
0.00263122
0.00262622
0.00262054
0.00261414
0.00260699
0.00259905
0.0025903
0.0025807
0.00257023
0.00255887
0.00254661
0.00253344
0.00251935
0.00250432
0.00248838
0.00247152
0.00245374
0.00243508
0.00241553
0.00239514
0.00237391
0.0023519
0.00232912
0.00230562
0.00228144
0.00225663
0.00223123
0.00220529
0.00217888
0.00215203
0.00212482
0.00209731
0.00206954
0.00204159
0.00201352
0.00198538
0.00195725
0.00192918
0.00190124
0.00187348
0.00184596
0.00181875
0.00179189
0.00176543
0.00173944
0.00171395
0.001689
0.00166464
0.00164091
0.00161784
0.00159545
0.00157378
0.00155284
0.00153265
0.00151323
0.00149458
0.00147673
0.00145965
0.00144337
0.00142787
0.00141314
0.00139919
0.00138599
0.00137353
0.00136179
0.00135076
0.00134042
0.00133074
0.0013217
0.00131327
0.00130544
0.00129817
0.00129144
0.00128522
0.00127948
0.0012742
0.00126936
0.00126492
0.00126086
0.00125716
0.00125379
0.00125073
0.00124796
0.00124545
0.00124319
0.00124116
0.00123933
0.00123769
0.00123622
0.00123492
0.00123375
0.00123272
0.00123181
0.001231
0.00123028
0.00122966
0.00122911
0.00122863
0.00122821
0.00122784
0.00122753
0.00122725
0.00122701
0.00122681
0.00122664
0.00122649
0.00122636
0.00122626
0.00122617
0.0012261
0.00122604
0.001226
0.00122598
)
;

boundaryField
{
    boundary
    {
        type            empty;
    }
    inlet
    {
        type            fixedValue;
        value           uniform 0.0285116;
    }
    outlet
    {
        type            zeroGradient;
    }
}


// ************************************************************************* //
