/*--------------------------------*- C++ -*----------------------------------*\
  =========                 |
  \\      /  F ield         | OpenFOAM: The Open Source CFD Toolbox
   \\    /   O peration     | Website:  https://openfoam.org
    \\  /    A nd           | Version:  7
     \\/     M anipulation  |
\*---------------------------------------------------------------------------*/
FoamFile
{
    version     2.0;
    format      ascii;
    class       volScalarField;
    location    "0.00027";
    object      H2O;
}
// * * * * * * * * * * * * * * * * * * * * * * * * * * * * * * * * * * * * * //

dimensions      [0 0 0 0 0 0 0];

internalField   nonuniform List<scalar> 
500
(
7.93957e-48
2.30183e-47
4.15785e-47
6.26311e-47
8.55587e-47
1.10008e-46
1.35809e-46
1.62914e-46
1.91344e-46
2.21146e-46
2.52349e-46
2.8493e-46
3.18782e-46
3.53694e-46
3.89338e-46
4.25279e-46
4.60988e-46
4.95882e-46
5.2936e-46
5.60859e-46
5.89891e-46
6.16086e-46
6.39212e-46
6.59182e-46
6.76049e-46
6.89982e-46
7.01239e-46
7.10139e-46
7.17025e-46
7.22241e-46
7.2611e-46
7.28922e-46
7.30925e-46
7.32324e-46
7.33283e-46
7.33928e-46
7.34353e-46
7.34629e-46
7.34804e-46
7.34914e-46
7.34981e-46
7.35021e-46
7.35045e-46
7.35059e-46
7.35066e-46
7.3507e-46
7.35072e-46
7.35073e-46
7.35073e-46
7.35073e-46
7.35073e-46
7.35073e-46
7.35074e-46
7.35074e-46
7.35074e-46
7.35075e-46
7.35076e-46
7.35077e-46
7.35078e-46
7.3508e-46
7.35082e-46
7.35084e-46
7.35087e-46
7.35089e-46
7.35093e-46
7.35096e-46
7.351e-46
7.35105e-46
7.35109e-46
7.35115e-46
7.3512e-46
7.35127e-46
7.35133e-46
7.3514e-46
7.35148e-46
7.35156e-46
7.35165e-46
7.35175e-46
7.35185e-46
7.35195e-46
7.35207e-46
7.35219e-46
7.35232e-46
7.35245e-46
7.35259e-46
7.35274e-46
7.3529e-46
7.35306e-46
7.35323e-46
7.35341e-46
7.3536e-46
7.3538e-46
7.354e-46
7.35422e-46
7.35444e-46
7.35467e-46
7.35491e-46
7.35516e-46
7.35542e-46
7.35569e-46
7.35597e-46
7.35626e-46
7.35656e-46
7.35687e-46
7.35719e-46
7.35752e-46
7.35786e-46
7.35821e-46
7.35857e-46
7.35894e-46
7.35932e-46
7.35971e-46
7.36011e-46
7.36052e-46
7.36094e-46
7.36137e-46
7.36181e-46
7.36226e-46
7.36272e-46
7.36319e-46
7.36367e-46
7.36417e-46
7.36479e-46
7.36585e-46
7.36869e-46
7.37505e-46
7.37455e-46
7.37356e-46
7.37198e-46
7.36983e-46
7.36718e-46
7.36417e-46
7.36094e-46
7.35764e-46
7.35447e-46
7.35162e-46
7.34931e-46
7.34772e-46
7.347e-46
7.34722e-46
7.34835e-46
7.35029e-46
7.35288e-46
7.35592e-46
7.3592e-46
7.36253e-46
7.36576e-46
7.36876e-46
7.37148e-46
7.37387e-46
7.37593e-46
7.37767e-46
7.37914e-46
7.38036e-46
7.38138e-46
7.38223e-46
7.38295e-46
7.38357e-46
7.38411e-46
7.38458e-46
7.38499e-46
7.38535e-46
7.38568e-46
7.38595e-46
7.38619e-46
7.38639e-46
7.38655e-46
7.38666e-46
7.38673e-46
7.38675e-46
7.38672e-46
7.38664e-46
7.38651e-46
7.38631e-46
7.38606e-46
7.38574e-46
7.38535e-46
7.3849e-46
7.38437e-46
7.38377e-46
7.38309e-46
7.38232e-46
7.38147e-46
7.38053e-46
7.3795e-46
7.37838e-46
7.37715e-46
7.37582e-46
7.37439e-46
7.37285e-46
7.3712e-46
7.36943e-46
7.36754e-46
7.36553e-46
7.3634e-46
7.36114e-46
7.35874e-46
7.35621e-46
7.35355e-46
7.35074e-46
7.34779e-46
7.3447e-46
7.34146e-46
7.33807e-46
7.33452e-46
7.33082e-46
7.32697e-46
7.32295e-46
7.31878e-46
7.31444e-46
7.30995e-46
7.30531e-46
7.3006e-46
7.29637e-46
7.29598e-46
7.32073e-46
7.50343e-46
8.66626e-46
1.58622e-45
5.99364e-45
3.28054e-44
1.95015e-43
1.1721e-42
7.03941e-42
4.2215e-41
2.531e-40
1.51961e-39
9.15226e-39
5.53812e-38
3.37121e-37
2.06604e-36
1.275e-35
7.91953e-35
4.94588e-34
3.10069e-33
1.94761e-32
1.22308e-31
7.66245e-31
4.77888e-30
2.96124e-29
1.81985e-28
1.10746e-27
6.66435e-27
3.96124e-26
2.32344e-25
1.34376e-24
7.65818e-24
4.29844e-23
2.37512e-22
1.29145e-21
6.90782e-21
3.60865e-20
1.86453e-19
9.47877e-19
4.73614e-18
2.32541e-17
1.12194e-16
5.31965e-16
2.47933e-15
1.13626e-14
5.12295e-14
2.27375e-13
9.9422e-13
4.28691e-12
1.82468e-11
7.67564e-11
3.1949e-10
1.31754e-09
5.38979e-09
2.18982e-08
8.84625e-08
3.55662e-07
1.42417e-06
5.68148e-06
2.25642e-05
8.89246e-05
0.00034429
0.00127439
0.0042378
0.0115042
0.024131
0.0406942
0.0607617
0.0846756
0.110666
0.134736
0.153599
0.170027
0.179729
0.186246
0.190665
0.193748
0.195989
0.197701
0.199074
0.200226
0.201229
0.202128
0.202949
0.20371
0.204424
0.205099
0.205738
0.206348
0.20693
0.207488
0.208022
0.208536
0.209031
0.209507
0.209965
0.210408
0.210821
0.211215
0.211599
0.211974
0.212339
0.212696
0.213044
0.213386
0.21372
0.214047
0.214369
0.214684
0.214995
0.2153
0.215601
0.215898
0.21619
0.21648
0.216766
0.217049
0.217329
0.217607
0.217883
0.218157
0.21843
0.218702
0.218972
0.219242
0.219512
0.219781
0.22005
0.220319
0.220589
0.220859
0.22113
0.221402
0.221675
0.221948
0.222223
0.2225
0.222777
0.223056
0.223336
0.223618
0.223901
0.224185
0.22447
0.224756
0.225043
0.22533
0.225618
0.225907
0.226195
0.226483
0.22677
0.227057
0.227343
0.227627
0.22791
0.228192
0.228472
0.228751
0.229029
0.229308
0.229572
0.229834
0.230092
0.230346
0.230595
0.23084
0.231081
0.231318
0.23155
0.231778
0.232002
0.232222
0.232438
0.232651
0.23286
0.233066
0.233268
0.233468
0.233665
0.233859
0.234051
0.23424
0.234428
0.234614
0.234798
0.23498
0.23516
0.235339
0.235516
0.235691
0.235865
0.236037
0.236206
0.236374
0.23654
0.236703
0.236863
0.237021
0.237176
0.237327
0.237476
0.23762
0.237761
0.237898
0.238031
0.23816
0.238284
0.238403
0.238518
0.238628
0.238733
0.238833
0.238928
0.239018
0.239103
0.239184
0.239259
0.23933
0.239397
0.239458
0.239516
0.239569
0.239619
0.239664
0.239706
0.239745
0.23978
0.239813
0.239842
0.239869
0.239893
0.239916
0.239936
0.239954
0.23997
0.239985
0.239998
0.24001
0.240021
0.240031
0.240039
0.240047
0.240054
0.240061
0.240066
0.240071
0.240076
0.24008
0.240083
0.240087
0.24009
0.240092
0.240095
0.240097
0.240099
0.2401
0.240102
0.240103
0.240104
0.240105
0.240106
0.240107
0.240108
0.240108
0.240109
0.240109
0.24011
0.24011
0.24011
0.24011
0.240111
0.240111
0.240111
0.240111
0.240111
0.240111
0.240111
0.240111
0.240111
0.240111
0.240111
0.240111
0.240111
0.240111
)
;

boundaryField
{
    boundary
    {
        type            empty;
    }
    inlet
    {
        type            fixedValue;
        value           uniform 0;
    }
    outlet
    {
        type            zeroGradient;
    }
}


// ************************************************************************* //
