/*--------------------------------*- C++ -*----------------------------------*\
  =========                 |
  \\      /  F ield         | OpenFOAM: The Open Source CFD Toolbox
   \\    /   O peration     | Website:  https://openfoam.org
    \\  /    A nd           | Version:  7
     \\/     M anipulation  |
\*---------------------------------------------------------------------------*/
FoamFile
{
    version     2.0;
    format      ascii;
    class       volScalarField;
    location    "0.00027";
    object      N2;
}
// * * * * * * * * * * * * * * * * * * * * * * * * * * * * * * * * * * * * * //

dimensions      [0 0 0 0 0 0 0];

internalField   nonuniform List<scalar> 
500
(
0.745219
0.745219
0.745219
0.745219
0.745219
0.745219
0.745219
0.745219
0.745219
0.745219
0.745219
0.745219
0.745219
0.745219
0.745219
0.745219
0.745219
0.745219
0.74522
0.74522
0.74522
0.74522
0.74522
0.74522
0.74522
0.74522
0.74522
0.74522
0.74522
0.74522
0.74522
0.74522
0.74522
0.74522
0.74522
0.74522
0.74522
0.74522
0.74522
0.74522
0.74522
0.74522
0.74522
0.74522
0.74522
0.74522
0.74522
0.74522
0.74522
0.74522
0.74522
0.74522
0.74522
0.74522
0.74522
0.74522
0.74522
0.74522
0.74522
0.74522
0.74522
0.74522
0.74522
0.74522
0.74522
0.74522
0.74522
0.74522
0.74522
0.74522
0.74522
0.74522
0.74522
0.74522
0.74522
0.74522
0.74522
0.74522
0.74522
0.74522
0.74522
0.74522
0.74522
0.74522
0.74522
0.74522
0.74522
0.74522
0.74522
0.74522
0.74522
0.74522
0.74522
0.74522
0.74522
0.74522
0.74522
0.74522
0.74522
0.74522
0.74522
0.74522
0.74522
0.74522
0.74522
0.74522
0.74522
0.74522
0.74522
0.74522
0.74522
0.74522
0.74522
0.74522
0.74522
0.74522
0.74522
0.74522
0.74522
0.74522
0.74522
0.74522
0.74522
0.74522
0.74522
0.74522
0.74522
0.74522
0.74522
0.74522
0.74522
0.74522
0.74522
0.74522
0.74522
0.74522
0.74522
0.74522
0.74522
0.74522
0.74522
0.74522
0.74522
0.74522
0.74522
0.74522
0.74522
0.74522
0.74522
0.74522
0.74522
0.74522
0.74522
0.74522
0.74522
0.74522
0.74522
0.74522
0.74522
0.74522
0.74522
0.74522
0.74522
0.74522
0.74522
0.74522
0.74522
0.74522
0.74522
0.74522
0.74522
0.74522
0.74522
0.74522
0.74522
0.74522
0.74522
0.74522
0.74522
0.74522
0.74522
0.74522
0.74522
0.74522
0.74522
0.74522
0.74522
0.74522
0.74522
0.74522
0.74522
0.74522
0.74522
0.74522
0.74522
0.74522
0.74522
0.74522
0.74522
0.74522
0.74522
0.74522
0.74522
0.74522
0.74522
0.74522
0.74522
0.74522
0.74522
0.74522
0.74522
0.74522
0.74522
0.74522
0.74522
0.74522
0.74522
0.74522
0.74522
0.74522
0.74522
0.74522
0.74522
0.74522
0.74522
0.74522
0.74522
0.74522
0.74522
0.74522
0.74522
0.74522
0.74522
0.74522
0.74522
0.74522
0.74522
0.74522
0.74522
0.74522
0.74522
0.74522
0.74522
0.74522
0.74522
0.74522
0.74522
0.74522
0.74522
0.74522
0.74522
0.74522
0.74522
0.74522
0.74522
0.74522
0.74522
0.74522
0.74522
0.74522
0.74522
0.74522
0.74522
0.74522
0.74522
0.74522
0.74522
0.74522
0.74522
0.745222
0.745224
0.745228
0.745238
0.745257
0.745295
0.745365
0.745477
0.7456
0.745602
0.745373
0.744983
0.744458
0.743913
0.743618
0.743703
0.743996
0.744175
0.744762
0.744973
0.745121
0.745215
0.745273
0.745308
0.745328
0.745339
0.745345
0.745347
0.745347
0.745346
0.745344
0.745341
0.745339
0.745336
0.745332
0.745329
0.745326
0.745322
0.745318
0.745314
0.74531
0.745306
0.745301
0.745297
0.745293
0.745288
0.745283
0.745278
0.745273
0.745268
0.745263
0.745258
0.745253
0.745248
0.745243
0.745237
0.745232
0.745227
0.745221
0.745216
0.745211
0.745205
0.7452
0.745195
0.74519
0.745185
0.745179
0.745174
0.745169
0.745165
0.74516
0.745155
0.745151
0.745147
0.745143
0.74514
0.745136
0.745134
0.745132
0.74513
0.745129
0.745129
0.745129
0.74513
0.745133
0.745136
0.74514
0.745146
0.745153
0.745161
0.74517
0.74518
0.745192
0.745206
0.745221
0.745237
0.745254
0.745273
0.745293
0.745314
0.745337
0.74536
0.745383
0.745408
0.745432
0.745456
0.745479
0.745506
0.745532
0.745558
0.745583
0.745608
0.745631
0.745653
0.745673
0.745692
0.745708
0.745723
0.745735
0.745744
0.745751
0.745755
0.745757
0.745755
0.745751
0.745743
0.745733
0.74572
0.745704
0.745686
0.745665
0.745641
0.745616
0.745588
0.745559
0.745528
0.745496
0.745463
0.745429
0.745394
0.745359
0.745325
0.74529
0.745256
0.745222
0.74519
0.745159
0.745129
0.7451
0.745073
0.745048
0.745025
0.745004
0.744985
0.744968
0.744953
0.74494
0.74493
0.744921
0.744914
0.74491
0.744907
0.744906
0.744907
0.744909
0.744913
0.744917
0.744924
0.744931
0.744939
0.744948
0.744958
0.744968
0.744979
0.744989
0.745001
0.745012
0.745023
0.745035
0.745046
0.745057
0.745067
0.745078
0.745088
0.745097
0.745107
0.745116
0.745124
0.745132
0.745139
0.745146
0.745153
0.745159
0.745165
0.74517
0.745175
0.745179
0.745184
0.745187
0.745191
0.745194
0.745197
0.745199
0.745202
0.745204
0.745206
0.745207
0.745209
0.74521
0.745211
0.745212
0.745213
0.745214
0.745215
0.745215
0.745216
0.745217
0.745217
0.745217
0.745218
0.745218
0.745218
0.745218
0.745219
0.745219
0.745219
0.745219
0.745219
0.745219
0.745219
0.745219
)
;

boundaryField
{
    boundary
    {
        type            empty;
    }
    inlet
    {
        type            fixedValue;
        value           uniform 0.74522;
    }
    outlet
    {
        type            zeroGradient;
    }
}


// ************************************************************************* //
