/*--------------------------------*- C++ -*----------------------------------*\
  =========                 |
  \\      /  F ield         | OpenFOAM: The Open Source CFD Toolbox
   \\    /   O peration     | Website:  https://openfoam.org
    \\  /    A nd           | Version:  7
     \\/     M anipulation  |
\*---------------------------------------------------------------------------*/
FoamFile
{
    version     2.0;
    format      ascii;
    class       volScalarField;
    location    "0.00027";
    object      O2;
}
// * * * * * * * * * * * * * * * * * * * * * * * * * * * * * * * * * * * * * //

dimensions      [0 0 0 0 0 0 0];

internalField   nonuniform List<scalar> 
500
(
0.226269
0.226269
0.226269
0.226269
0.226269
0.226269
0.226269
0.226269
0.226269
0.226269
0.226269
0.226269
0.226269
0.226269
0.226269
0.226269
0.226269
0.226269
0.226269
0.226269
0.226269
0.226269
0.226269
0.226269
0.226269
0.226269
0.226269
0.226269
0.226269
0.226269
0.226269
0.226269
0.226269
0.226269
0.226269
0.226269
0.226269
0.226269
0.226269
0.226269
0.226269
0.226269
0.226269
0.226269
0.226269
0.226269
0.226269
0.226269
0.226269
0.226269
0.226269
0.226269
0.226269
0.226269
0.226269
0.226269
0.226269
0.226269
0.226269
0.226269
0.226269
0.226269
0.226269
0.226269
0.226269
0.226269
0.226269
0.226269
0.226269
0.226269
0.226269
0.226269
0.226269
0.226269
0.226269
0.226269
0.226269
0.226269
0.226269
0.226269
0.226269
0.226269
0.226269
0.226269
0.226269
0.226269
0.226269
0.226269
0.226269
0.226269
0.226269
0.226269
0.226269
0.226269
0.226269
0.226269
0.226269
0.226269
0.226269
0.226269
0.226269
0.226269
0.226269
0.226269
0.226269
0.226269
0.226269
0.226269
0.226269
0.226269
0.226269
0.226269
0.226269
0.226269
0.226269
0.226269
0.226269
0.226269
0.226269
0.226269
0.226269
0.226269
0.226269
0.226269
0.226269
0.226269
0.226269
0.226269
0.226269
0.226269
0.226269
0.226269
0.226269
0.226269
0.226269
0.226269
0.226269
0.226269
0.226269
0.226269
0.226269
0.226269
0.226269
0.226269
0.226269
0.226269
0.226269
0.226269
0.226269
0.226269
0.226269
0.226269
0.226269
0.226269
0.226269
0.226269
0.226269
0.226269
0.226269
0.226269
0.226269
0.226269
0.226269
0.226269
0.226269
0.226269
0.226269
0.226269
0.226269
0.226269
0.226269
0.226269
0.226269
0.226269
0.226269
0.226269
0.226269
0.226269
0.226269
0.226269
0.226269
0.226269
0.226269
0.226269
0.226269
0.226269
0.226269
0.226269
0.226269
0.226269
0.226269
0.226269
0.226269
0.226269
0.226269
0.226269
0.226269
0.226269
0.226269
0.226269
0.226269
0.226269
0.226269
0.226269
0.226269
0.226269
0.226269
0.226269
0.226269
0.226269
0.226269
0.226269
0.226269
0.226269
0.226269
0.226269
0.226269
0.226269
0.226269
0.226269
0.226269
0.226269
0.226269
0.226269
0.226269
0.226269
0.226269
0.226269
0.226269
0.226269
0.226269
0.226269
0.226269
0.226269
0.226269
0.226269
0.226269
0.226269
0.226269
0.226269
0.226269
0.226269
0.226269
0.226269
0.226269
0.226269
0.226269
0.226269
0.226269
0.226269
0.226269
0.226269
0.226269
0.226269
0.226269
0.226269
0.226269
0.226269
0.226269
0.226269
0.226269
0.226269
0.226269
0.226269
0.226269
0.226269
0.226269
0.226269
0.226269
0.22627
0.22627
0.226272
0.226274
0.226277
0.226276
0.226241
0.22605
0.225284
0.222882
0.216951
0.206359
0.192338
0.174575
0.152043
0.12634
0.101803
0.0822823
0.064638
0.0542385
0.0472039
0.0424369
0.0391434
0.0367937
0.0350484
0.0336949
0.0326001
0.0316814
0.0308863
0.0301816
0.0295455
0.0289635
0.0284256
0.0279247
0.0274556
0.0270142
0.0265976
0.0262031
0.0258287
0.0254725
0.0251332
0.0248095
0.0245006
0.0242147
0.0239437
0.0236816
0.0234279
0.023182
0.0229433
0.0227113
0.0224856
0.0222656
0.022051
0.0218413
0.0216362
0.0214352
0.0212381
0.0210445
0.020854
0.0206665
0.0204815
0.0202989
0.0201183
0.0199394
0.0197622
0.0195862
0.0194113
0.0192372
0.0190638
0.0188907
0.0187178
0.018545
0.0183719
0.0181984
0.0180243
0.0178495
0.0176737
0.0174968
0.0173186
0.017139
0.0169579
0.0167751
0.0165905
0.0164041
0.0162157
0.0160253
0.0158329
0.0156385
0.015442
0.0152435
0.0150431
0.0148409
0.0146369
0.0144313
0.0142242
0.0140159
0.0138066
0.0135964
0.0133856
0.0131745
0.0129632
0.0127522
0.0125414
0.0123312
0.0121213
0.0119114
0.0117001
0.0115002
0.0113018
0.0111065
0.0109147
0.0107266
0.0105425
0.0103626
0.0101871
0.0100162
0.00985005
0.00968885
0.00953269
0.00938164
0.00923579
0.00909515
0.00895976
0.00882961
0.00870467
0.0085849
0.00847023
0.0083606
0.00825592
0.0081561
0.00806102
0.00797058
0.00788466
0.00780315
0.00772592
0.00765285
0.00758382
0.00751871
0.0074574
0.00739977
0.00734573
0.00729515
0.00724794
0.00720399
0.00716321
0.00712551
0.0070908
0.007059
0.00703001
0.00700377
0.0069802
0.0069592
0.00694072
0.00692466
0.00691095
0.00689951
0.00689025
0.00688308
0.00687791
0.00687465
0.0068732
0.00687346
0.00687532
0.00687868
0.00688341
0.00688942
0.00689657
0.00690475
0.00691385
0.00692375
0.00693433
0.00694547
0.00695707
0.00696901
0.0069812
0.00699354
0.00700593
0.00701829
0.00703055
0.00704262
0.00705445
0.00706598
0.00707716
0.00708795
0.00709832
0.00710823
0.00711768
0.00712664
0.00713511
0.00714308
0.00715056
0.00715755
0.00716406
0.0071701
0.00717569
0.00718084
0.00718558
0.00718992
0.00719389
0.00719751
0.0072008
0.00720378
0.00720647
0.0072089
0.00721108
0.00721304
0.0072148
0.00721636
0.00721776
0.007219
0.0072201
0.00722107
0.00722193
0.00722269
0.00722336
0.00722395
0.00722447
0.00722492
0.00722532
0.00722567
0.00722598
0.00722625
0.00722648
0.00722669
0.00722687
0.00722703
0.00722717
0.00722729
0.00722739
0.00722747
0.00722752
)
;

boundaryField
{
    boundary
    {
        type            empty;
    }
    inlet
    {
        type            fixedValue;
        value           uniform 0.226269;
    }
    outlet
    {
        type            zeroGradient;
    }
}


// ************************************************************************* //
