/*--------------------------------*- C++ -*----------------------------------*\
  =========                 |
  \\      /  F ield         | OpenFOAM: The Open Source CFD Toolbox
   \\    /   O peration     | Website:  https://openfoam.org
    \\  /    A nd           | Version:  7
     \\/     M anipulation  |
\*---------------------------------------------------------------------------*/
FoamFile
{
    version     2.0;
    format      ascii;
    class       volScalarField;
    location    "0.00027";
    object      Qdot;
}
// * * * * * * * * * * * * * * * * * * * * * * * * * * * * * * * * * * * * * //

dimensions      [1 -1 -3 0 0 0 0];

internalField   nonuniform List<scalar> 
500
(
-2.45394e-27
-1.86773e-27
-1.74534e-27
-1.72411e-27
-1.72605e-27
-1.73468e-27
-1.74688e-27
-1.76247e-27
-1.7819e-27
-1.80572e-27
-1.83441e-27
-1.8683e-27
-1.90751e-27
-1.95191e-27
-2.00113e-27
-2.05447e-27
-2.111e-27
-2.16952e-27
-2.22867e-27
-2.28703e-27
-2.34318e-27
-2.39588e-27
-2.44411e-27
-2.48715e-27
-2.52461e-27
-2.55642e-27
-2.58281e-27
-2.60418e-27
-2.62111e-27
-2.63423e-27
-2.64417e-27
-2.65156e-27
-2.65695e-27
-2.66079e-27
-2.66349e-27
-2.66534e-27
-2.6666e-27
-2.66744e-27
-2.66798e-27
-2.66834e-27
-2.66857e-27
-2.66871e-27
-2.6688e-27
-2.66886e-27
-2.66889e-27
-2.66892e-27
-2.66894e-27
-2.66895e-27
-2.66897e-27
-2.66898e-27
-2.66899e-27
-2.669e-27
-2.66902e-27
-2.66903e-27
-2.66904e-27
-2.66906e-27
-2.66908e-27
-2.66909e-27
-2.66911e-27
-2.66913e-27
-2.66915e-27
-2.66917e-27
-2.66919e-27
-2.66921e-27
-2.66924e-27
-2.66926e-27
-2.66929e-27
-2.66932e-27
-2.66935e-27
-2.66938e-27
-2.66941e-27
-2.66944e-27
-2.66948e-27
-2.66951e-27
-2.66955e-27
-2.66959e-27
-2.66963e-27
-2.66968e-27
-2.66972e-27
-2.66977e-27
-2.66982e-27
-2.66987e-27
-2.66993e-27
-2.66998e-27
-2.67004e-27
-2.6701e-27
-2.67017e-27
-2.67023e-27
-2.6703e-27
-2.67037e-27
-2.67044e-27
-2.67052e-27
-2.6706e-27
-2.67068e-27
-2.67076e-27
-2.67085e-27
-2.67093e-27
-2.67103e-27
-2.67112e-27
-2.67122e-27
-2.67132e-27
-2.67142e-27
-2.67153e-27
-2.67164e-27
-2.67175e-27
-2.67187e-27
-2.67199e-27
-2.67211e-27
-2.67223e-27
-2.67236e-27
-2.67249e-27
-2.67263e-27
-2.67277e-27
-2.67291e-27
-2.67305e-27
-2.6732e-27
-2.67335e-27
-2.6735e-27
-2.67365e-27
-2.67381e-27
-2.67397e-27
-2.67414e-27
-2.6743e-27
-2.67447e-27
-2.67464e-27
-2.67481e-27
-2.67495e-27
-2.67512e-27
-2.67529e-27
-2.67546e-27
-2.67562e-27
-2.67578e-27
-2.67594e-27
-2.6761e-27
-2.67626e-27
-2.67643e-27
-2.6766e-27
-2.67677e-27
-2.67695e-27
-2.67714e-27
-2.67733e-27
-2.67754e-27
-2.67775e-27
-2.67797e-27
-2.67819e-27
-2.67841e-27
-2.67863e-27
-2.67885e-27
-2.67907e-27
-2.67928e-27
-2.67949e-27
-2.67969e-27
-2.67988e-27
-2.68007e-27
-2.68024e-27
-2.68041e-27
-2.68058e-27
-2.68073e-27
-2.68088e-27
-2.68102e-27
-2.68115e-27
-2.68127e-27
-2.68139e-27
-2.68149e-27
-2.68159e-27
-2.68167e-27
-2.68174e-27
-2.6818e-27
-2.68185e-27
-2.68188e-27
-2.6819e-27
-2.68191e-27
-2.6819e-27
-2.68187e-27
-2.68182e-27
-2.68176e-27
-2.68168e-27
-2.68158e-27
-2.68146e-27
-2.68131e-27
-2.68115e-27
-2.68096e-27
-2.68074e-27
-2.68051e-27
-2.68024e-27
-2.67995e-27
-2.67963e-27
-2.67928e-27
-2.67891e-27
-2.6785e-27
-2.67806e-27
-2.67758e-27
-2.67708e-27
-2.67654e-27
-2.67596e-27
-2.67535e-27
-2.6747e-27
-2.67402e-27
-2.67329e-27
-2.67253e-27
-2.67172e-27
-2.67087e-27
-2.66999e-27
-2.66906e-27
-2.66809e-27
-2.66707e-27
-2.66601e-27
-2.66491e-27
-2.66376e-27
-2.66256e-27
-2.66132e-27
-2.66004e-27
-2.65871e-27
-2.65733e-27
-2.65591e-27
-2.65444e-27
-2.65293e-27
-2.65137e-27
-2.64976e-27
-2.64811e-27
-2.64639e-27
-2.6445e-27
-2.64187e-27
-2.63533e-27
-2.60743e-27
-2.46342e-27
-1.69504e-27
2.39247e-27
2.39139e-26
1.359e-25
7.11551e-25
3.63415e-24
1.82874e-23
9.08311e-23
4.45416e-22
2.15646e-21
1.03072e-20
4.86364e-20
2.26571e-19
1.04208e-18
4.73278e-18
2.12295e-17
9.40828e-17
4.1212e-16
1.78542e-15
7.65607e-15
3.2528e-14
1.37103e-13
5.74185e-13
2.39369e-12
9.9544e-12
4.14667e-11
1.72967e-10
7.24963e-10
3.06031e-09
1.30333e-08
5.60575e-08
2.43585e-07
1.06897e-06
4.7339e-06
2.11314e-05
9.49692e-05
0.000429265
0.00194991
0.00889762
0.0407884
0.187971
0.872079
4.08317
19.3688
99.3496
560.425
3815.1
28782.6
241180
2.2321e+06
2.13259e+07
1.93319e+08
1.37351e+09
5.50854e+09
1.10811e+10
1.3538e+10
1.38792e+10
1.3914e+10
1.37012e+10
1.27454e+10
1.09923e+10
8.96706e+09
7.28073e+09
6.01134e+09
5.03929e+09
4.29907e+09
3.72775e+09
3.27833e+09
2.91766e+09
2.62265e+09
2.37722e+09
2.16998e+09
1.99274e+09
1.83949e+09
1.70573e+09
1.58803e+09
1.48372e+09
1.3907e+09
1.30728e+09
1.2321e+09
1.16406e+09
1.10221e+09
1.0458e+09
9.94177e+08
9.46816e+08
9.0333e+08
8.64352e+08
8.2881e+08
7.95506e+08
7.64337e+08
7.35106e+08
7.07637e+08
6.81781e+08
6.57412e+08
6.344e+08
6.12648e+08
5.9206e+08
5.72548e+08
5.54035e+08
5.36451e+08
5.19731e+08
5.03816e+08
4.88651e+08
4.74189e+08
4.60383e+08
4.47192e+08
4.34577e+08
4.22504e+08
4.10939e+08
3.99853e+08
3.89216e+08
3.79004e+08
3.69193e+08
3.59758e+08
3.50679e+08
3.41937e+08
3.33512e+08
3.25387e+08
3.17546e+08
3.09973e+08
3.02653e+08
2.95572e+08
2.88718e+08
2.82076e+08
2.75636e+08
2.69387e+08
2.63316e+08
2.57414e+08
2.51671e+08
2.46077e+08
2.40623e+08
2.353e+08
2.301e+08
2.25015e+08
2.20036e+08
2.15158e+08
2.10372e+08
2.05673e+08
2.01053e+08
1.96509e+08
1.92033e+08
1.87621e+08
1.83269e+08
1.78973e+08
1.74729e+08
1.70536e+08
1.66391e+08
1.62301e+08
1.58278e+08
1.54409e+08
1.50225e+08
1.46173e+08
1.42188e+08
1.38255e+08
1.34367e+08
1.30519e+08
1.2671e+08
1.2294e+08
1.19208e+08
1.15517e+08
1.11868e+08
1.08262e+08
1.04702e+08
1.01189e+08
9.7725e+07
9.43122e+07
9.09521e+07
8.76464e+07
8.43978e+07
8.12062e+07
7.80738e+07
7.50023e+07
7.19928e+07
6.90464e+07
6.61641e+07
6.33471e+07
6.05962e+07
5.79122e+07
5.52959e+07
5.2748e+07
5.02691e+07
4.78598e+07
4.55206e+07
4.3252e+07
4.10543e+07
3.89278e+07
3.68727e+07
3.4889e+07
3.29769e+07
3.1136e+07
2.9366e+07
2.76664e+07
2.6036e+07
2.44793e+07
2.29854e+07
2.15614e+07
2.02032e+07
1.89096e+07
1.76791e+07
1.65101e+07
1.54009e+07
1.43497e+07
1.33545e+07
1.24135e+07
1.15247e+07
1.0686e+07
9.89534e+06
9.15079e+06
8.45029e+06
7.79186e+06
7.17354e+06
6.59345e+06
6.04973e+06
5.54028e+06
5.06392e+06
4.61862e+06
4.20277e+06
3.81479e+06
3.45333e+06
3.11671e+06
2.80369e+06
2.51274e+06
2.24284e+06
1.99279e+06
1.76147e+06
1.54742e+06
1.3498e+06
1.16761e+06
999910
845602
704128
574400
455704
347322
248127
158073
76180.6
1843.19
-65543.5
-126468
-181589
-230407
-275566
-314216
-351176
-383150
-411730
-437345
-459236
-480168
-497805
-513611
-527651
-539826
-550718
-560316
-568778
-576197
-582747
-588578
-593836
-598171
-602031
-605431
-609030
-611825
-614119
-616357
-618468
-620463
-622387
-624290
-626174
-627784
)
;

boundaryField
{
    boundary
    {
        type            empty;
    }
    inlet
    {
        type            calculated;
        value           uniform 0;
    }
    outlet
    {
        type            calculated;
        value           uniform 0;
    }
}


// ************************************************************************* //
