/*--------------------------------*- C++ -*----------------------------------*\
  =========                 |
  \\      /  F ield         | OpenFOAM: The Open Source CFD Toolbox
   \\    /   O peration     | Website:  https://openfoam.org
    \\  /    A nd           | Version:  7
     \\/     M anipulation  |
\*---------------------------------------------------------------------------*/
FoamFile
{
    version     2.0;
    format      ascii;
    class       volScalarField;
    location    "0.00027";
    object      rho;
}
// * * * * * * * * * * * * * * * * * * * * * * * * * * * * * * * * * * * * * //

dimensions      [1 -3 0 0 0 0 0];

internalField   nonuniform List<scalar> 
500
(
0.86466
0.864639
0.864613
0.864578
0.864534
0.86448
0.864411
0.864326
0.864221
0.864094
0.863944
0.86377
0.863573
0.863354
0.863117
0.862866
0.862608
0.862347
0.86209
0.861843
0.86161
0.861396
0.861204
0.861036
0.860891
0.860769
0.860668
0.860587
0.860523
0.860474
0.860436
0.860408
0.860388
0.860373
0.860363
0.860356
0.860351
0.860348
0.860345
0.860344
0.860343
0.860343
0.860342
0.860342
0.860342
0.860342
0.860342
0.860342
0.860342
0.860342
0.860342
0.860342
0.860342
0.860342
0.860342
0.860342
0.860341
0.860341
0.860341
0.860341
0.860341
0.860341
0.860341
0.860341
0.860341
0.860341
0.860341
0.860341
0.860341
0.860341
0.860341
0.860341
0.86034
0.86034
0.86034
0.86034
0.86034
0.86034
0.86034
0.86034
0.860339
0.860339
0.860339
0.860339
0.860339
0.860339
0.860338
0.860338
0.860338
0.860338
0.860338
0.860337
0.860337
0.860337
0.860337
0.860336
0.860336
0.860336
0.860335
0.860335
0.860335
0.860334
0.860334
0.860334
0.860333
0.860333
0.860333
0.860332
0.860332
0.860331
0.860331
0.86033
0.86033
0.86033
0.860329
0.860329
0.860328
0.860328
0.860327
0.860326
0.860326
0.860325
0.860325
0.860324
0.860324
0.860323
0.860323
0.860322
0.860322
0.860321
0.86032
0.86032
0.860319
0.860319
0.860318
0.860318
0.860317
0.860317
0.860316
0.860315
0.860315
0.860314
0.860313
0.860313
0.860312
0.860311
0.86031
0.86031
0.860309
0.860308
0.860307
0.860307
0.860306
0.860305
0.860305
0.860304
0.860304
0.860303
0.860303
0.860302
0.860302
0.860301
0.860301
0.860301
0.8603
0.8603
0.8603
0.8603
0.8603
0.8603
0.8603
0.8603
0.8603
0.8603
0.8603
0.8603
0.860301
0.860301
0.860301
0.860302
0.860303
0.860303
0.860304
0.860305
0.860306
0.860307
0.860308
0.86031
0.860311
0.860312
0.860314
0.860316
0.860318
0.86032
0.860322
0.860324
0.860326
0.860329
0.860331
0.860334
0.860337
0.86034
0.860343
0.860347
0.86035
0.860354
0.860358
0.860362
0.860366
0.86037
0.860375
0.86038
0.860384
0.860389
0.860395
0.8604
0.860405
0.860411
0.860417
0.860423
0.860429
0.860435
0.860442
0.860449
0.860455
0.860462
0.860469
0.860477
0.860484
0.860492
0.860499
0.860507
0.860515
0.860523
0.860531
0.860539
0.860548
0.860556
0.860565
0.860574
0.860582
0.860591
0.8606
0.860609
0.860618
0.860627
0.860636
0.860646
0.860655
0.860664
0.860674
0.860683
0.860693
0.860702
0.860712
0.860722
0.860732
0.860742
0.860752
0.860762
0.860772
0.860782
0.860792
0.860803
0.860813
0.860824
0.860835
0.860847
0.860858
0.860866
0.860858
0.860795
0.860551
0.859747
0.857249
0.84978
0.828497
0.774194
0.667634
0.531388
0.416848
0.340123
0.289906
0.255213
0.230513
0.213227
0.200453
0.190648
0.183622
0.178447
0.174304
0.170914
0.168075
0.165654
0.163556
0.161715
0.160081
0.15862
0.157301
0.156104
0.155011
0.154008
0.153083
0.152226
0.15143
0.150688
0.149994
0.149344
0.148732
0.148157
0.147614
0.147102
0.14663
0.146191
0.145769
0.145365
0.144977
0.144604
0.144245
0.1439
0.143568
0.143247
0.142938
0.142639
0.14235
0.142071
0.141801
0.141539
0.141286
0.14104
0.140802
0.140571
0.140347
0.14013
0.139919
0.139714
0.139515
0.139322
0.139135
0.138953
0.138777
0.138605
0.138439
0.138278
0.138121
0.137969
0.137822
0.137679
0.13754
0.137406
0.137275
0.137148
0.137025
0.136906
0.13679
0.136677
0.136566
0.136459
0.136353
0.13625
0.136148
0.136047
0.135947
0.135848
0.135748
0.135648
0.135547
0.135444
0.135339
0.135231
0.135119
0.135004
0.134884
0.134758
0.134626
0.134487
0.134345
0.134196
0.13404
0.133875
0.133703
0.133523
0.133334
0.133137
0.132932
0.132718
0.132497
0.132268
0.132031
0.131788
0.131538
0.131283
0.131024
0.13076
0.130493
0.130224
0.129954
0.129683
0.129413
0.129145
0.12888
0.128618
0.128361
0.128109
0.127864
0.127627
0.127397
0.127176
0.126964
0.126762
0.126571
0.12639
0.12622
0.126061
0.125914
0.125778
0.125654
0.125541
0.125439
0.125347
0.125267
0.125196
0.125135
0.125084
0.125041
0.125007
0.124981
0.124962
0.12495
0.124943
0.124943
0.124947
0.124956
0.124969
0.124985
0.125004
0.125026
0.12505
0.125075
0.125102
0.125129
0.125157
0.125185
0.125213
0.125241
0.125269
0.125296
0.125322
0.125347
0.125372
0.125395
0.125417
0.125438
0.125458
0.125477
0.125495
0.125511
0.125527
0.125541
0.125554
0.125566
0.125577
0.125587
0.125597
0.125605
0.125613
0.12562
0.125626
0.125631
0.125636
0.125641
0.125645
0.125648
0.125651
0.125654
0.125656
0.125658
0.12566
0.125661
0.125663
0.125664
0.125665
0.125665
0.125666
0.125666
0.125666
0.125667
0.125667
0.125667
0.125667
0.125667
0.125666
0.125666
0.125666
0.125666
0.125666
0.125665
0.125665
0.125665
0.125664
)
;

boundaryField
{
    boundary
    {
        type            empty;
    }
    inlet
    {
        type            calculated;
        value           uniform 0.864672;
    }
    outlet
    {
        type            calculated;
        value           uniform 0.125664;
    }
}


// ************************************************************************* //
