/*--------------------------------*- C++ -*----------------------------------*\
  =========                 |
  \\      /  F ield         | OpenFOAM: The Open Source CFD Toolbox
   \\    /   O peration     | Website:  https://openfoam.org
    \\  /    A nd           | Version:  7
     \\/     M anipulation  |
\*---------------------------------------------------------------------------*/
FoamFile
{
    version     2.0;
    format      ascii;
    class       volScalarField;
    location    "0.00027";
    object      T;
}
// * * * * * * * * * * * * * * * * * * * * * * * * * * * * * * * * * * * * * //

dimensions      [0 0 0 1 0 0 0];

internalField   nonuniform List<scalar> 
500
(
300.004
300.011
300.021
300.033
300.048
300.067
300.091
300.12
300.157
300.2
300.253
300.313
300.382
300.458
300.54
300.628
300.718
300.809
300.898
300.985
301.066
301.141
301.208
301.267
301.318
301.36
301.396
301.424
301.446
301.464
301.477
301.487
301.494
301.499
301.503
301.505
301.507
301.508
301.509
301.509
301.51
301.51
301.51
301.51
301.51
301.51
301.51
301.51
301.51
301.51
301.51
301.51
301.51
301.51
301.51
301.51
301.51
301.51
301.51
301.51
301.51
301.51
301.51
301.51
301.51
301.51
301.511
301.511
301.511
301.511
301.511
301.511
301.511
301.511
301.511
301.511
301.511
301.511
301.511
301.511
301.511
301.511
301.511
301.511
301.511
301.512
301.512
301.512
301.512
301.512
301.512
301.512
301.512
301.512
301.512
301.512
301.513
301.513
301.513
301.513
301.513
301.513
301.513
301.513
301.514
301.514
301.514
301.514
301.514
301.514
301.515
301.515
301.515
301.515
301.515
301.515
301.516
301.516
301.516
301.516
301.516
301.517
301.517
301.517
301.517
301.517
301.518
301.518
301.518
301.518
301.518
301.519
301.519
301.519
301.519
301.519
301.52
301.52
301.52
301.52
301.521
301.521
301.521
301.521
301.522
301.522
301.522
301.522
301.523
301.523
301.523
301.524
301.524
301.524
301.524
301.524
301.525
301.525
301.525
301.525
301.525
301.526
301.526
301.526
301.526
301.526
301.526
301.526
301.526
301.526
301.526
301.526
301.526
301.526
301.526
301.526
301.526
301.526
301.526
301.526
301.525
301.525
301.525
301.525
301.524
301.524
301.523
301.523
301.523
301.522
301.522
301.521
301.52
301.52
301.519
301.518
301.517
301.516
301.516
301.515
301.514
301.513
301.511
301.51
301.509
301.508
301.506
301.505
301.504
301.502
301.5
301.499
301.497
301.495
301.494
301.492
301.49
301.488
301.486
301.484
301.482
301.479
301.477
301.475
301.472
301.47
301.468
301.465
301.462
301.46
301.457
301.454
301.452
301.449
301.446
301.443
301.44
301.437
301.434
301.431
301.428
301.425
301.422
301.419
301.416
301.412
301.409
301.406
301.403
301.4
301.396
301.393
301.39
301.386
301.383
301.379
301.376
301.373
301.369
301.366
301.362
301.359
301.355
301.351
301.348
301.344
301.341
301.338
301.336
301.337
301.349
301.389
301.513
301.876
302.925
305.938
314.515
338.031
394.824
501.082
646.319
801.796
951.629
1091.88
1218.36
1324.65
1415.12
1491.67
1552.54
1600.97
1642.16
1677.66
1708.72
1736.26
1760.93
1783.23
1803.54
1822.17
1839.33
1855.22
1870.01
1883.8
1896.73
1908.87
1920.3
1931.1
1941.32
1951.01
1960.21
1968.97
1977.31
1985.25
1992.61
1999.53
2006.22
2012.68
2018.91
2024.94
2030.77
2036.42
2041.89
2047.2
2052.34
2057.33
2062.17
2066.88
2071.45
2075.89
2080.2
2084.4
2088.48
2092.45
2096.31
2100.06
2103.71
2107.26
2110.71
2114.06
2117.32
2120.49
2123.56
2126.55
2129.45
2132.26
2134.99
2137.64
2140.2
2142.69
2145.09
2147.42
2149.67
2151.85
2153.96
2156.01
2157.99
2159.91
2161.77
2163.58
2165.34
2167.07
2168.75
2170.41
2172.05
2173.67
2175.29
2176.91
2178.54
2180.2
2181.88
2183.61
2185.39
2187.24
2189.16
2191.17
2193.29
2195.51
2197.82
2200.27
2202.85
2205.57
2208.44
2211.47
2214.65
2218
2221.51
2225.19
2229.03
2233.03
2237.19
2241.5
2245.96
2250.55
2255.26
2260.08
2265
2270.01
2275.08
2280.21
2285.37
2290.55
2295.73
2300.88
2306.01
2311.08
2316.07
2320.98
2325.79
2330.48
2335.03
2339.44
2343.7
2347.79
2351.7
2355.44
2358.99
2362.34
2365.51
2368.48
2371.25
2373.84
2376.23
2378.44
2380.47
2382.33
2384.01
2385.54
2386.91
2388.14
2389.24
2390.21
2391.06
2391.8
2392.45
2393
2393.47
2393.86
2394.19
2394.46
2394.68
2394.86
2394.99
2395.09
2395.16
2395.21
2395.23
2395.24
2395.24
2395.22
2395.2
2395.17
2395.14
2395.1
2395.07
2395.03
2394.99
2394.96
2394.93
2394.9
2394.87
2394.84
2394.82
2394.8
2394.78
2394.77
2394.76
2394.75
2394.74
2394.73
2394.73
2394.73
2394.73
2394.73
2394.73
2394.73
2394.73
2394.74
2394.74
2394.75
2394.76
2394.76
2394.77
2394.78
2394.79
2394.79
2394.8
2394.81
2394.82
2394.83
2394.83
2394.84
2394.85
2394.86
2394.87
2394.87
2394.88
2394.89
2394.9
2394.91
2394.91
2394.92
)
;

boundaryField
{
    boundary
    {
        type            empty;
    }
    inlet
    {
        type            fixedValue;
        value           uniform 300;
    }
    outlet
    {
        type            zeroGradient;
    }
}


// ************************************************************************* //
