/*--------------------------------*- C++ -*----------------------------------*\
  =========                 |
  \\      /  F ield         | OpenFOAM: The Open Source CFD Toolbox
   \\    /   O peration     | Website:  https://openfoam.org
    \\  /    A nd           | Version:  7
     \\/     M anipulation  |
\*---------------------------------------------------------------------------*/
FoamFile
{
    version     2.0;
    format      ascii;
    class       volVectorField;
    location    "0.00027";
    object      U;
}
// * * * * * * * * * * * * * * * * * * * * * * * * * * * * * * * * * * * * * //

dimensions      [0 1 -1 0 0 0 0];

internalField   nonuniform List<vector> 
500
(
(2.34891 0 0)
(2.34884 0 0)
(2.34876 0 0)
(2.34869 0 0)
(2.34862 0 0)
(2.34857 0 0)
(2.34853 0 0)
(2.34849 0 0)
(2.34846 0 0)
(2.34843 0 0)
(2.34841 0 0)
(2.34839 0 0)
(2.34837 0 0)
(2.34834 0 0)
(2.3483 0 0)
(2.34824 0 0)
(2.34816 0 0)
(2.34807 0 0)
(2.34796 0 0)
(2.34783 0 0)
(2.34769 0 0)
(2.34753 0 0)
(2.34737 0 0)
(2.34721 0 0)
(2.34705 0 0)
(2.34689 0 0)
(2.34674 0 0)
(2.34659 0 0)
(2.34645 0 0)
(2.34632 0 0)
(2.3462 0 0)
(2.34608 0 0)
(2.34597 0 0)
(2.34587 0 0)
(2.34576 0 0)
(2.34566 0 0)
(2.34557 0 0)
(2.34547 0 0)
(2.34538 0 0)
(2.34529 0 0)
(2.34519 0 0)
(2.3451 0 0)
(2.34501 0 0)
(2.34492 0 0)
(2.34483 0 0)
(2.34474 0 0)
(2.34465 0 0)
(2.34456 0 0)
(2.34447 0 0)
(2.34438 0 0)
(2.34429 0 0)
(2.3442 0 0)
(2.34411 0 0)
(2.34402 0 0)
(2.34393 0 0)
(2.34384 0 0)
(2.34375 0 0)
(2.34366 0 0)
(2.34357 0 0)
(2.34348 0 0)
(2.34339 0 0)
(2.3433 0 0)
(2.34321 0 0)
(2.34312 0 0)
(2.34303 0 0)
(2.34294 0 0)
(2.34285 0 0)
(2.34277 0 0)
(2.34268 0 0)
(2.34259 0 0)
(2.3425 0 0)
(2.34241 0 0)
(2.34232 0 0)
(2.34223 0 0)
(2.34214 0 0)
(2.34206 0 0)
(2.34197 0 0)
(2.34188 0 0)
(2.34179 0 0)
(2.3417 0 0)
(2.34161 0 0)
(2.34153 0 0)
(2.34144 0 0)
(2.34135 0 0)
(2.34126 0 0)
(2.34117 0 0)
(2.34109 0 0)
(2.341 0 0)
(2.34091 0 0)
(2.34082 0 0)
(2.34074 0 0)
(2.34065 0 0)
(2.34056 0 0)
(2.34047 0 0)
(2.34039 0 0)
(2.3403 0 0)
(2.34021 0 0)
(2.34013 0 0)
(2.34004 0 0)
(2.33995 0 0)
(2.33987 0 0)
(2.33978 0 0)
(2.33969 0 0)
(2.33961 0 0)
(2.33952 0 0)
(2.33943 0 0)
(2.33935 0 0)
(2.33926 0 0)
(2.33917 0 0)
(2.33909 0 0)
(2.339 0 0)
(2.33892 0 0)
(2.33883 0 0)
(2.33874 0 0)
(2.33866 0 0)
(2.33857 0 0)
(2.33849 0 0)
(2.3384 0 0)
(2.33831 0 0)
(2.33823 0 0)
(2.33814 0 0)
(2.33806 0 0)
(2.33797 0 0)
(2.33789 0 0)
(2.3378 0 0)
(2.33771 0 0)
(2.33763 0 0)
(2.33755 0 0)
(2.33746 0 0)
(2.33737 0 0)
(2.33729 0 0)
(2.3372 0 0)
(2.33712 0 0)
(2.33703 0 0)
(2.33695 0 0)
(2.33686 0 0)
(2.33678 0 0)
(2.33669 0 0)
(2.33661 0 0)
(2.33653 0 0)
(2.33644 0 0)
(2.33636 0 0)
(2.33627 0 0)
(2.33619 0 0)
(2.3361 0 0)
(2.33602 0 0)
(2.33593 0 0)
(2.33585 0 0)
(2.33576 0 0)
(2.33568 0 0)
(2.3356 0 0)
(2.33551 0 0)
(2.33543 0 0)
(2.33534 0 0)
(2.33526 0 0)
(2.33517 0 0)
(2.33509 0 0)
(2.335 0 0)
(2.33492 0 0)
(2.33484 0 0)
(2.33475 0 0)
(2.33467 0 0)
(2.33458 0 0)
(2.3345 0 0)
(2.33441 0 0)
(2.33433 0 0)
(2.33425 0 0)
(2.33416 0 0)
(2.33408 0 0)
(2.33399 0 0)
(2.33391 0 0)
(2.33382 0 0)
(2.33374 0 0)
(2.33366 0 0)
(2.33357 0 0)
(2.33349 0 0)
(2.3334 0 0)
(2.33332 0 0)
(2.33323 0 0)
(2.33315 0 0)
(2.33307 0 0)
(2.33298 0 0)
(2.3329 0 0)
(2.33281 0 0)
(2.33273 0 0)
(2.33264 0 0)
(2.33256 0 0)
(2.33247 0 0)
(2.33239 0 0)
(2.33231 0 0)
(2.33222 0 0)
(2.33214 0 0)
(2.33205 0 0)
(2.33197 0 0)
(2.33188 0 0)
(2.3318 0 0)
(2.33171 0 0)
(2.33163 0 0)
(2.33154 0 0)
(2.33146 0 0)
(2.33137 0 0)
(2.33129 0 0)
(2.3312 0 0)
(2.33112 0 0)
(2.33103 0 0)
(2.33095 0 0)
(2.33086 0 0)
(2.33078 0 0)
(2.33069 0 0)
(2.3306 0 0)
(2.33052 0 0)
(2.33043 0 0)
(2.33035 0 0)
(2.33026 0 0)
(2.33018 0 0)
(2.33009 0 0)
(2.33 0 0)
(2.32992 0 0)
(2.32983 0 0)
(2.32974 0 0)
(2.32966 0 0)
(2.32957 0 0)
(2.32948 0 0)
(2.3294 0 0)
(2.32931 0 0)
(2.32922 0 0)
(2.32914 0 0)
(2.32905 0 0)
(2.32896 0 0)
(2.32887 0 0)
(2.32879 0 0)
(2.3287 0 0)
(2.32861 0 0)
(2.32852 0 0)
(2.32843 0 0)
(2.32834 0 0)
(2.32826 0 0)
(2.32817 0 0)
(2.32808 0 0)
(2.32799 0 0)
(2.3279 0 0)
(2.32781 0 0)
(2.32772 0 0)
(2.32763 0 0)
(2.32754 0 0)
(2.32745 0 0)
(2.32736 0 0)
(2.32727 0 0)
(2.32718 0 0)
(2.32709 0 0)
(2.327 0 0)
(2.32691 0 0)
(2.32681 0 0)
(2.32673 0 0)
(2.32664 0 0)
(2.32654 0 0)
(2.32645 0 0)
(2.32636 0 0)
(2.32627 0 0)
(2.32617 0 0)
(2.32608 0 0)
(2.32599 0 0)
(2.32589 0 0)
(2.3258 0 0)
(2.32571 0 0)
(2.32561 0 0)
(2.32552 0 0)
(2.32542 0 0)
(2.32533 0 0)
(2.32524 0 0)
(2.32522 0 0)
(2.32538 0 0)
(2.32617 0 0)
(2.32899 0 0)
(2.33768 0 0)
(2.36181 0 0)
(2.42253 0 0)
(2.56589 0 0)
(2.88468 0 0)
(3.54306 0 0)
(4.59039 0 0)
(5.8206 0 0)
(7.02108 0 0)
(8.0985 0 0)
(9.03177 0 0)
(9.81808 0 0)
(10.4739 0 0)
(11.0187 0 0)
(11.4576 0 0)
(11.8043 0 0)
(12.0872 0 0)
(12.3285 0 0)
(12.5391 0 0)
(12.7248 0 0)
(12.8902 0 0)
(13.0387 0 0)
(13.1732 0 0)
(13.2959 0 0)
(13.4086 0 0)
(13.5125 0 0)
(13.6088 0 0)
(13.6984 0 0)
(13.782 0 0)
(13.8603 0 0)
(13.9339 0 0)
(14.0031 0 0)
(14.0685 0 0)
(14.1303 0 0)
(14.1889 0 0)
(14.2445 0 0)
(14.2973 0 0)
(14.3475 0 0)
(14.3941 0 0)
(14.4375 0 0)
(14.4796 0 0)
(14.5202 0 0)
(14.5593 0 0)
(14.5971 0 0)
(14.6335 0 0)
(14.6688 0 0)
(14.703 0 0)
(14.7361 0 0)
(14.7681 0 0)
(14.7992 0 0)
(14.8294 0 0)
(14.8587 0 0)
(14.8872 0 0)
(14.9149 0 0)
(14.9418 0 0)
(14.968 0 0)
(14.9935 0 0)
(15.0184 0 0)
(15.0426 0 0)
(15.0662 0 0)
(15.0893 0 0)
(15.1117 0 0)
(15.1336 0 0)
(15.155 0 0)
(15.176 0 0)
(15.1964 0 0)
(15.2163 0 0)
(15.2358 0 0)
(15.2549 0 0)
(15.2736 0 0)
(15.2919 0 0)
(15.3097 0 0)
(15.3272 0 0)
(15.3444 0 0)
(15.3612 0 0)
(15.3777 0 0)
(15.3938 0 0)
(15.4097 0 0)
(15.4252 0 0)
(15.4405 0 0)
(15.4555 0 0)
(15.4702 0 0)
(15.4847 0 0)
(15.4989 0 0)
(15.513 0 0)
(15.5268 0 0)
(15.5404 0 0)
(15.5538 0 0)
(15.5671 0 0)
(15.5802 0 0)
(15.5931 0 0)
(15.6058 0 0)
(15.6184 0 0)
(15.6309 0 0)
(15.6432 0 0)
(15.6554 0 0)
(15.6675 0 0)
(15.6795 0 0)
(15.6914 0 0)
(15.7033 0 0)
(15.7151 0 0)
(15.7267 0 0)
(15.738 0 0)
(15.749 0 0)
(15.7598 0 0)
(15.7705 0 0)
(15.781 0 0)
(15.7912 0 0)
(15.8013 0 0)
(15.8111 0 0)
(15.8207 0 0)
(15.8299 0 0)
(15.8389 0 0)
(15.8476 0 0)
(15.856 0 0)
(15.864 0 0)
(15.8717 0 0)
(15.879 0 0)
(15.886 0 0)
(15.8925 0 0)
(15.8986 0 0)
(15.9044 0 0)
(15.9097 0 0)
(15.9146 0 0)
(15.9191 0 0)
(15.9231 0 0)
(15.9268 0 0)
(15.9301 0 0)
(15.9329 0 0)
(15.9355 0 0)
(15.9376 0 0)
(15.9394 0 0)
(15.9409 0 0)
(15.9421 0 0)
(15.943 0 0)
(15.9436 0 0)
(15.944 0 0)
(15.9442 0 0)
(15.9442 0 0)
(15.9441 0 0)
(15.9438 0 0)
(15.9435 0 0)
(15.943 0 0)
(15.9425 0 0)
(15.9419 0 0)
(15.9413 0 0)
(15.9407 0 0)
(15.9402 0 0)
(15.9396 0 0)
(15.9391 0 0)
(15.9387 0 0)
(15.9383 0 0)
(15.938 0 0)
(15.9377 0 0)
(15.9376 0 0)
(15.9375 0 0)
(15.9375 0 0)
(15.9376 0 0)
(15.9377 0 0)
(15.938 0 0)
(15.9383 0 0)
(15.9386 0 0)
(15.9391 0 0)
(15.9395 0 0)
(15.9401 0 0)
(15.9406 0 0)
(15.9412 0 0)
(15.9419 0 0)
(15.9425 0 0)
(15.9432 0 0)
(15.9439 0 0)
(15.9445 0 0)
(15.9452 0 0)
(15.9459 0 0)
(15.9465 0 0)
(15.9472 0 0)
(15.9478 0 0)
(15.9484 0 0)
(15.9489 0 0)
(15.9494 0 0)
(15.9499 0 0)
(15.9504 0 0)
(15.9508 0 0)
(15.9512 0 0)
(15.9516 0 0)
(15.9519 0 0)
(15.9522 0 0)
(15.9525 0 0)
(15.9527 0 0)
(15.9529 0 0)
(15.9531 0 0)
(15.9532 0 0)
(15.9533 0 0)
(15.9534 0 0)
(15.9534 0 0)
(15.9534 0 0)
(15.9534 0 0)
(15.9534 0 0)
(15.9534 0 0)
(15.9533 0 0)
(15.9532 0 0)
(15.9531 0 0)
(15.953 0 0)
(15.9528 0 0)
(15.9527 0 0)
(15.9525 0 0)
(15.9523 0 0)
(15.9522 0 0)
(15.952 0 0)
(15.9518 0 0)
(15.9515 0 0)
(15.9513 0 0)
(15.9511 0 0)
(15.9509 0 0)
(15.9506 0 0)
(15.9504 0 0)
(15.9501 0 0)
(15.9499 0 0)
(15.9496 0 0)
(15.9493 0 0)
(15.9491 0 0)
(15.9488 0 0)
(15.9485 0 0)
(15.9482 0 0)
(15.9479 0 0)
(15.9475 0 0)
)
;

boundaryField
{
    boundary
    {
        type            empty;
    }
    inlet
    {
        type            fixedValue;
        value           uniform (2.34893 0 0);
    }
    outlet
    {
        type            zeroGradient;
    }
}


// ************************************************************************* //
