/*--------------------------------*- C++ -*----------------------------------*\
  =========                 |
  \\      /  F ield         | OpenFOAM: The Open Source CFD Toolbox
   \\    /   O peration     | Website:  https://openfoam.org
    \\  /    A nd           | Version:  7
     \\/     M anipulation  |
\*---------------------------------------------------------------------------*/
FoamFile
{
    version     2.0;
    format      ascii;
    class       volScalarField;
    location    "0.00061";
    object      H;
}
// * * * * * * * * * * * * * * * * * * * * * * * * * * * * * * * * * * * * * //

dimensions      [0 0 0 0 0 0 0];

internalField   nonuniform List<scalar> 
500
(
1.4818e-41
2.00266e-41
2.11124e-41
2.13174e-41
2.13408e-41
2.13335e-41
2.13272e-41
2.13281e-41
2.13364e-41
2.13511e-41
2.1371e-41
2.13951e-41
2.14227e-41
2.14532e-41
2.14864e-41
2.15225e-41
2.15619e-41
2.16051e-41
2.16531e-41
2.17069e-41
2.17679e-41
2.18376e-41
2.19176e-41
2.20099e-41
2.21163e-41
2.22391e-41
2.23804e-41
2.25423e-41
2.27271e-41
2.29366e-41
2.31727e-41
2.34368e-41
2.37301e-41
2.40532e-41
2.44064e-41
2.47891e-41
2.52002e-41
2.56379e-41
2.60997e-41
2.65825e-41
2.70824e-41
2.75951e-41
2.81156e-41
2.86388e-41
2.91594e-41
2.96721e-41
3.01718e-41
3.06536e-41
3.11133e-41
3.15473e-41
3.19526e-41
3.23272e-41
3.26697e-41
3.29795e-41
3.3257e-41
3.35028e-41
3.37184e-41
3.39056e-41
3.40665e-41
3.42034e-41
3.43189e-41
3.44153e-41
3.4495e-41
3.45603e-41
3.46134e-41
3.46561e-41
3.46902e-41
3.47172e-41
3.47383e-41
3.47548e-41
3.47675e-41
3.47772e-41
3.47846e-41
3.47903e-41
3.47945e-41
3.47977e-41
3.48e-41
3.48018e-41
3.48032e-41
3.48042e-41
3.4805e-41
3.48056e-41
3.48062e-41
3.48066e-41
3.4807e-41
3.48074e-41
3.48077e-41
3.48081e-41
3.48084e-41
3.48088e-41
3.48092e-41
3.48095e-41
3.48099e-41
3.48103e-41
3.48108e-41
3.48112e-41
3.48117e-41
3.48122e-41
3.48127e-41
3.48133e-41
3.48138e-41
3.48144e-41
3.4815e-41
3.48157e-41
3.48163e-41
3.4817e-41
3.48178e-41
3.48185e-41
3.48193e-41
3.48201e-41
3.48209e-41
3.48218e-41
3.48227e-41
3.48237e-41
3.48246e-41
3.48257e-41
3.48267e-41
3.48278e-41
3.48289e-41
3.48301e-41
3.48313e-41
3.48327e-41
3.48345e-41
3.48375e-41
3.48436e-41
3.485e-41
3.48498e-41
3.48497e-41
3.48495e-41
3.48491e-41
3.48488e-41
3.48487e-41
3.4849e-41
3.48496e-41
3.48507e-41
3.48521e-41
3.48537e-41
3.48556e-41
3.48577e-41
3.48599e-41
3.48621e-41
3.48643e-41
3.48665e-41
3.48688e-41
3.4871e-41
3.48731e-41
3.48753e-41
3.48775e-41
3.48797e-41
3.48819e-41
3.48841e-41
3.48863e-41
3.48885e-41
3.48907e-41
3.4893e-41
3.48953e-41
3.48976e-41
3.49e-41
3.49023e-41
3.49047e-41
3.49072e-41
3.49096e-41
3.49121e-41
3.49147e-41
3.49172e-41
3.49198e-41
3.49224e-41
3.4925e-41
3.49276e-41
3.49303e-41
3.49329e-41
3.49355e-41
3.49381e-41
3.49407e-41
3.49432e-41
3.49457e-41
3.49481e-41
3.49505e-41
3.49527e-41
3.49549e-41
3.49571e-41
3.49591e-41
3.4961e-41
3.49628e-41
3.49645e-41
3.4966e-41
3.49675e-41
3.49688e-41
3.49699e-41
3.49709e-41
3.49717e-41
3.49724e-41
3.49729e-41
3.49732e-41
3.49733e-41
3.49732e-41
3.49728e-41
3.49723e-41
3.49715e-41
3.49705e-41
3.49692e-41
3.49677e-41
3.49658e-41
3.49637e-41
3.49613e-41
3.49586e-41
3.49555e-41
3.49521e-41
3.49484e-41
3.49444e-41
3.49402e-41
3.49364e-41
3.49352e-41
3.49443e-41
3.49927e-41
3.51842e-41
3.5893e-41
3.84527e-41
4.75868e-41
7.98998e-41
1.93347e-40
5.88784e-40
1.95744e-39
6.66177e-39
2.27213e-38
7.71782e-38
2.60625e-37
8.74632e-37
2.91689e-36
9.66847e-36
3.18579e-35
1.04374e-34
3.40083e-34
1.10232e-33
3.55539e-33
1.14143e-32
3.64875e-32
1.16177e-31
3.686e-31
1.16584e-30
3.67786e-30
1.15797e-29
3.64147e-29
1.1449e-28
3.60368e-28
1.13756e-27
3.60982e-27
1.15521e-26
3.74354e-26
1.23472e-25
4.16942e-25
1.45689e-24
5.25421e-24
1.96534e-23
7.63632e-23
3.07529e-22
1.27779e-21
5.44702e-21
2.36899e-20
1.04619e-19
4.67466e-19
2.10866e-18
9.59389e-18
4.40511e-17
2.04562e-16
9.64572e-16
4.64616e-15
2.30436e-14
1.1875e-13
6.49641e-13
4.12638e-12
3.49984e-11
3.39094e-10
3.15436e-09
2.96102e-08
2.70414e-07
2.26657e-06
1.56078e-05
7.53737e-05
0.000226997
0.000473051
0.000794966
0.00115687
0.00149298
0.00174018
0.00187841
0.00192632
0.00191037
0.00185919
0.00179058
0.00171544
0.00163993
0.00156724
0.00149885
0.00143528
0.00137653
0.00132236
0.0012724
0.00122627
0.00118359
0.00114402
0.00110723
0.00107293
0.00104089
0.00101088
0.000982705
0.000956202
0.00093122
0.000907628
0.00088531
0.000864162
0.000844093
0.00082558
0.000808338
0.000791794
0.000775906
0.000760637
0.000745948
0.000731806
0.00071818
0.000705042
0.000692363
0.000680121
0.000668291
0.000656852
0.000645785
0.000635071
0.000624693
0.000614635
0.000604881
0.000595418
0.000586233
0.000577312
0.000568644
0.000560218
0.000552025
0.000544053
0.000536295
0.000528741
0.000521383
0.000514214
0.000507226
0.000500411
0.000493765
0.000487279
0.000480949
0.000474769
0.000468733
0.000462837
0.000457075
0.000451442
0.000445936
0.00044055
0.000435282
0.000430127
0.000425082
0.000420143
0.000415307
0.00041057
0.000405931
0.000401385
0.00039693
0.000392564
0.000388283
0.000384085
0.000379968
0.00037593
0.000371969
0.000368082
0.000364267
0.000360523
0.000356847
0.000353239
0.000349696
0.000346218
0.000342802
0.000339443
0.000336139
0.000332892
0.0003297
0.000326563
0.000323478
0.000320445
0.000317462
0.000314528
0.000311643
0.000308803
0.00030601
0.000303262
0.000300557
0.000297895
0.000295275
0.000292695
0.000290156
0.000287656
0.000285195
0.000282771
0.000280384
0.000278033
0.000275718
0.000273437
0.000271191
0.000268978
0.000266798
0.000264651
0.000262535
0.00026045
0.000258396
0.000256372
0.000254378
0.000252413
0.000250477
0.000248569
0.000246689
0.000244836
0.000243011
0.000241212
0.00023944
0.000237693
0.000235972
0.000234277
0.000232606
0.00023096
0.000229339
0.000227742
0.000226168
0.000224618
0.000223092
0.000221588
0.000220108
0.00021865
0.000217214
0.000215801
0.000214409
0.00021304
0.000211692
0.000210365
0.000209059
0.000207774
0.000206508
0.000205262
0.000204032
0.000202809
0.000201571
0.000200278
0.000199113
0.000197969
0.000196845
0.000195739
0.000194651
0.000193579
0.000192523
0.000191482
0.000190455
0.000189443
0.000188445
0.000187459
0.000186485
0.000185524
0.000184573
0.000183633
0.000182703
0.000181781
0.000180868
0.000179963
0.000179065
0.000178173
0.000177286
0.000176404
0.000175526
0.000174651
0.000173778
0.000172907
0.000172036
0.000171165
0.000170294
0.000169421
0.000168546
0.000167668
0.000166787
0.000165902
0.000165013
0.00016412
0.000163221
0.000162319
0.000161411
0.0001605
0.000159585
0.000158668
0.000157751
0.000156835
0.000155925
0.000155024
0.00015414
0.000153281
0.000152462
0.000151703
0.000151035
0.000150509
0.000150198
)
;

boundaryField
{
    boundary
    {
        type            empty;
    }
    inlet
    {
        type            fixedValue;
        value           uniform 0;
    }
    outlet
    {
        type            zeroGradient;
    }
}


// ************************************************************************* //
