/*--------------------------------*- C++ -*----------------------------------*\
  =========                 |
  \\      /  F ield         | OpenFOAM: The Open Source CFD Toolbox
   \\    /   O peration     | Website:  https://openfoam.org
    \\  /    A nd           | Version:  7
     \\/     M anipulation  |
\*---------------------------------------------------------------------------*/
FoamFile
{
    version     2.0;
    format      ascii;
    class       volScalarField;
    location    "0.00061";
    object      H2;
}
// * * * * * * * * * * * * * * * * * * * * * * * * * * * * * * * * * * * * * //

dimensions      [0 0 0 0 0 0 0];

internalField   nonuniform List<scalar> 
500
(
0.0285116
0.0285116
0.0285116
0.0285116
0.0285116
0.0285116
0.0285116
0.0285116
0.0285116
0.0285116
0.0285116
0.0285116
0.0285116
0.0285116
0.0285116
0.0285116
0.0285116
0.0285116
0.0285116
0.0285116
0.0285116
0.0285116
0.0285116
0.0285116
0.0285116
0.0285116
0.0285116
0.0285116
0.0285116
0.0285116
0.0285116
0.0285116
0.0285116
0.0285116
0.0285116
0.0285116
0.0285116
0.0285116
0.0285116
0.0285116
0.0285116
0.0285116
0.0285116
0.0285116
0.0285116
0.0285116
0.0285116
0.0285116
0.0285116
0.0285116
0.0285116
0.0285116
0.0285116
0.0285116
0.0285116
0.0285116
0.0285116
0.0285116
0.0285116
0.0285116
0.0285116
0.0285116
0.0285116
0.0285116
0.0285116
0.0285116
0.0285116
0.0285116
0.0285116
0.0285116
0.0285116
0.0285116
0.0285116
0.0285116
0.0285116
0.0285116
0.0285116
0.0285116
0.0285116
0.0285116
0.0285116
0.0285116
0.0285116
0.0285116
0.0285116
0.0285116
0.0285116
0.0285116
0.0285116
0.0285116
0.0285116
0.0285116
0.0285116
0.0285116
0.0285116
0.0285116
0.0285116
0.0285116
0.0285116
0.0285116
0.0285116
0.0285116
0.0285116
0.0285116
0.0285116
0.0285116
0.0285116
0.0285116
0.0285116
0.0285116
0.0285116
0.0285116
0.0285116
0.0285116
0.0285116
0.0285116
0.0285116
0.0285116
0.0285116
0.0285116
0.0285116
0.0285116
0.0285116
0.0285116
0.0285116
0.0285116
0.0285116
0.0285116
0.0285116
0.0285116
0.0285116
0.0285116
0.0285116
0.0285116
0.0285116
0.0285116
0.0285116
0.0285116
0.0285116
0.0285116
0.0285116
0.0285116
0.0285116
0.0285116
0.0285116
0.0285116
0.0285116
0.0285116
0.0285116
0.0285116
0.0285116
0.0285116
0.0285116
0.0285116
0.0285116
0.0285116
0.0285116
0.0285116
0.0285116
0.0285116
0.0285116
0.0285116
0.0285116
0.0285116
0.0285116
0.0285116
0.0285116
0.0285116
0.0285116
0.0285116
0.0285116
0.0285116
0.0285116
0.0285116
0.0285116
0.0285116
0.0285116
0.0285116
0.0285116
0.0285116
0.0285116
0.0285116
0.0285116
0.0285116
0.0285116
0.0285116
0.0285116
0.0285116
0.0285116
0.0285116
0.0285116
0.0285116
0.0285116
0.0285116
0.0285116
0.0285116
0.0285116
0.0285116
0.0285116
0.0285116
0.0285116
0.0285116
0.0285116
0.0285116
0.0285116
0.0285116
0.0285116
0.0285116
0.0285116
0.0285116
0.0285116
0.0285116
0.0285116
0.0285116
0.0285116
0.0285116
0.0285116
0.0285116
0.0285116
0.0285116
0.0285116
0.0285116
0.0285116
0.0285116
0.0285116
0.0285116
0.0285116
0.0285116
0.0285116
0.0285116
0.0285116
0.0285116
0.0285116
0.0285116
0.0285116
0.0285116
0.0285116
0.0285116
0.0285116
0.0285116
0.0285116
0.0285116
0.0285116
0.0285116
0.0285116
0.0285116
0.0285116
0.0285116
0.0285116
0.0285116
0.0285116
0.0285116
0.0285116
0.0285116
0.0285116
0.0285116
0.0285116
0.0285116
0.0285116
0.0285116
0.0285116
0.0285116
0.0285115
0.0285115
0.0285114
0.0285111
0.0285106
0.0285096
0.0285075
0.0285031
0.0284938
0.0284746
0.0284347
0.0283521
0.0281824
0.0278413
0.0271884
0.026049
0.0243012
0.0220149
0.0193566
0.0164114
0.0133449
0.0105015
0.00821052
0.00657631
0.00541282
0.00473423
0.00431476
0.00405622
0.00389477
0.00379084
0.00372058
0.00366983
0.0036303
0.0035972
0.00356775
0.0035404
0.00351427
0.00348888
0.00346399
0.00343948
0.00341529
0.00339142
0.00336786
0.00334462
0.00332172
0.00329917
0.00327697
0.00325513
0.00323366
0.00321255
0.00319244
0.00317313
0.00315409
0.00313532
0.0031168
0.00309855
0.00308054
0.00306278
0.00304527
0.003028
0.00301097
0.00299418
0.00297762
0.00296128
0.00294516
0.00292927
0.00291359
0.00289812
0.00288285
0.00286779
0.00285293
0.00283826
0.00282378
0.00280949
0.00279539
0.00278146
0.0027677
0.00275412
0.00274071
0.00272746
0.00271437
0.00270144
0.00268867
0.00267604
0.00266357
0.00265124
0.00263905
0.002627
0.00261509
0.00260331
0.00259166
0.00258014
0.00256874
0.00255747
0.00254632
0.00253528
0.00252436
0.00251356
0.00250287
0.00249229
0.00248181
0.00247144
0.00246118
0.00245102
0.00244096
0.002431
0.00242114
0.00241138
0.00240171
0.00239214
0.00238266
0.00237327
0.00236397
0.00235476
0.00234564
0.00233661
0.00232767
0.00231881
0.00231004
0.00230135
0.00229275
0.00228423
0.00227579
0.00226744
0.00225916
0.00225097
0.00224286
0.00223483
0.00222687
0.002219
0.0022112
0.00220348
0.00219583
0.00218827
0.00218077
0.00217336
0.00216601
0.00215875
0.00215155
0.00214443
0.00213738
0.00213041
0.0021235
0.00211667
0.00210991
0.00210323
0.00209661
0.00209007
0.0020836
0.00207721
0.00207089
0.00206464
0.00205846
0.00205236
0.00204634
0.00204039
0.00203452
0.00202872
0.00202301
0.00201737
0.00201182
0.00200635
0.00200097
0.00199567
0.00199046
0.00198534
0.00198032
0.00197539
0.00197055
0.00196581
0.00196118
0.00195665
0.00195223
0.00194791
0.00194371
0.00193963
0.00193567
0.00193184
0.00192814
0.00192458
0.00192117
0.00191794
0.0019145
0.00191156
0.00190873
0.00190604
0.0019035
0.00190111
0.00189889
0.00189683
0.00189494
0.00189322
0.00189168
0.00189031
0.00188913
0.00188814
0.00188732
0.0018867
0.00188626
0.00188601
0.00188595
0.00188607
0.00188638
0.00188688
0.00188755
0.00188839
0.00188941
0.0018906
0.00189194
0.00189343
0.00189507
0.00189684
0.00189873
0.00190073
0.00190283
0.00190501
0.00190727
0.00190958
0.00191192
0.00191429
0.00191666
0.00191902
0.00192135
0.00192363
0.00192585
0.00192799
0.00193004
0.00193199
0.00193384
0.00193557
0.00193721
0.00193875
0.00194021
0.0019416
0.00194292
0.00194415
0.0019452
0.00194588
)
;

boundaryField
{
    boundary
    {
        type            empty;
    }
    inlet
    {
        type            fixedValue;
        value           uniform 0.0285116;
    }
    outlet
    {
        type            zeroGradient;
    }
}


// ************************************************************************* //
