/*--------------------------------*- C++ -*----------------------------------*\
  =========                 |
  \\      /  F ield         | OpenFOAM: The Open Source CFD Toolbox
   \\    /   O peration     | Website:  https://openfoam.org
    \\  /    A nd           | Version:  7
     \\/     M anipulation  |
\*---------------------------------------------------------------------------*/
FoamFile
{
    version     2.0;
    format      ascii;
    class       volScalarField;
    location    "0.00061";
    object      N2;
}
// * * * * * * * * * * * * * * * * * * * * * * * * * * * * * * * * * * * * * //

dimensions      [0 0 0 0 0 0 0];

internalField   nonuniform List<scalar> 
500
(
0.745219
0.745219
0.745219
0.745219
0.745219
0.745219
0.745219
0.745219
0.745219
0.745219
0.745219
0.745219
0.745219
0.745219
0.745219
0.745219
0.745219
0.745219
0.745219
0.745219
0.745219
0.745219
0.745219
0.745219
0.745219
0.745219
0.745219
0.745219
0.745219
0.745219
0.745219
0.745219
0.745219
0.745219
0.745219
0.745219
0.745219
0.745219
0.745219
0.745219
0.745219
0.74522
0.74522
0.74522
0.74522
0.74522
0.74522
0.74522
0.74522
0.74522
0.74522
0.74522
0.74522
0.74522
0.74522
0.74522
0.74522
0.74522
0.74522
0.74522
0.74522
0.74522
0.74522
0.74522
0.74522
0.74522
0.74522
0.74522
0.74522
0.74522
0.74522
0.74522
0.74522
0.74522
0.74522
0.74522
0.74522
0.74522
0.74522
0.74522
0.74522
0.74522
0.74522
0.74522
0.74522
0.74522
0.74522
0.74522
0.74522
0.74522
0.74522
0.74522
0.74522
0.74522
0.74522
0.74522
0.74522
0.74522
0.74522
0.74522
0.74522
0.74522
0.74522
0.74522
0.74522
0.74522
0.74522
0.74522
0.74522
0.74522
0.74522
0.74522
0.74522
0.74522
0.74522
0.74522
0.74522
0.74522
0.74522
0.74522
0.74522
0.74522
0.74522
0.74522
0.74522
0.74522
0.74522
0.74522
0.74522
0.74522
0.74522
0.74522
0.74522
0.74522
0.74522
0.74522
0.74522
0.74522
0.74522
0.74522
0.74522
0.74522
0.74522
0.74522
0.74522
0.74522
0.74522
0.74522
0.74522
0.74522
0.74522
0.74522
0.74522
0.74522
0.74522
0.74522
0.74522
0.74522
0.74522
0.74522
0.74522
0.74522
0.74522
0.74522
0.74522
0.74522
0.74522
0.74522
0.74522
0.74522
0.74522
0.74522
0.74522
0.74522
0.74522
0.74522
0.74522
0.74522
0.74522
0.74522
0.74522
0.74522
0.74522
0.74522
0.74522
0.74522
0.74522
0.74522
0.74522
0.74522
0.74522
0.74522
0.74522
0.74522
0.74522
0.74522
0.74522
0.74522
0.74522
0.74522
0.74522
0.74522
0.74522
0.74522
0.74522
0.74522
0.74522
0.74522
0.74522
0.74522
0.74522
0.74522
0.74522
0.74522
0.74522
0.74522
0.74522
0.74522
0.74522
0.74522
0.74522
0.74522
0.74522
0.74522
0.74522
0.74522
0.74522
0.74522
0.74522
0.74522
0.74522
0.74522
0.74522
0.74522
0.74522
0.74522
0.74522
0.74522
0.74522
0.74522
0.74522
0.74522
0.74522
0.74522
0.74522
0.74522
0.74522
0.74522
0.74522
0.74522
0.74522
0.74522
0.74522
0.74522
0.74522
0.74522
0.74522
0.74522
0.74522
0.74522
0.74522
0.74522
0.74522
0.74522
0.74522
0.74522
0.74522
0.745221
0.745223
0.745226
0.745232
0.745246
0.745273
0.745323
0.745412
0.745536
0.745623
0.745522
0.745214
0.744767
0.744208
0.743743
0.743621
0.743843
0.744179
0.744348
0.744874
0.745049
0.74517
0.745245
0.745291
0.745318
0.745333
0.74534
0.745344
0.745344
0.745343
0.74534
0.745338
0.745334
0.745331
0.745328
0.745325
0.745322
0.745319
0.745316
0.745313
0.745311
0.745308
0.745306
0.745304
0.745301
0.745299
0.745297
0.745295
0.745294
0.745292
0.74529
0.745288
0.745287
0.745285
0.745284
0.745282
0.745281
0.74528
0.745279
0.745277
0.745276
0.745275
0.745274
0.745273
0.745272
0.745271
0.74527
0.745269
0.745269
0.745268
0.745267
0.745266
0.745266
0.745265
0.745264
0.745264
0.745263
0.745263
0.745262
0.745262
0.745261
0.745261
0.74526
0.74526
0.745259
0.745259
0.745259
0.745258
0.745258
0.745257
0.745257
0.745256
0.745256
0.745255
0.745255
0.745254
0.745254
0.745253
0.745253
0.745252
0.745251
0.745251
0.74525
0.745249
0.745249
0.745248
0.745247
0.745246
0.745245
0.745245
0.745244
0.745243
0.745242
0.745242
0.745241
0.74524
0.74524
0.745239
0.745238
0.745238
0.745237
0.745237
0.745236
0.745236
0.745235
0.745235
0.745234
0.745234
0.745234
0.745233
0.745233
0.745232
0.745232
0.745232
0.745231
0.745231
0.74523
0.74523
0.74523
0.745229
0.745229
0.745228
0.745228
0.745227
0.745226
0.745226
0.745225
0.745224
0.745223
0.745222
0.745222
0.745221
0.745219
0.745218
0.745217
0.745216
0.745214
0.745213
0.745211
0.74521
0.745208
0.745206
0.745205
0.745203
0.745201
0.745198
0.745196
0.745194
0.745192
0.745189
0.745187
0.745184
0.745182
0.745179
0.745177
0.745174
0.745171
0.745169
0.745166
0.745164
0.745161
0.745159
0.745157
0.745155
0.745154
0.745152
0.745151
0.745151
0.74515
0.74515
0.74515
0.745151
0.745152
0.745154
0.745156
0.745159
0.745163
0.745167
0.745171
0.745177
0.745183
0.745189
0.745197
0.745205
0.745213
0.745223
0.745233
0.745243
0.745254
0.745266
0.745278
0.745291
0.745304
0.745317
0.74533
0.745344
0.745358
0.745371
0.745385
0.745398
0.745411
0.745423
0.745435
0.745446
0.745456
0.745465
0.745473
0.745481
0.745486
0.745491
0.745495
0.745499
0.745501
)
;

boundaryField
{
    boundary
    {
        type            empty;
    }
    inlet
    {
        type            fixedValue;
        value           uniform 0.74522;
    }
    outlet
    {
        type            zeroGradient;
    }
}


// ************************************************************************* //
