/*--------------------------------*- C++ -*----------------------------------*\
  =========                 |
  \\      /  F ield         | OpenFOAM: The Open Source CFD Toolbox
   \\    /   O peration     | Website:  https://openfoam.org
    \\  /    A nd           | Version:  7
     \\/     M anipulation  |
\*---------------------------------------------------------------------------*/
FoamFile
{
    version     2.0;
    format      ascii;
    class       volScalarField;
    location    "0.00061";
    object      O;
}
// * * * * * * * * * * * * * * * * * * * * * * * * * * * * * * * * * * * * * //

dimensions      [0 0 0 0 0 0 0];

internalField   nonuniform List<scalar> 
500
(
1.57208e-47
3.74683e-47
5.93251e-47
8.1206e-47
1.03111e-46
1.25053e-46
1.47043e-46
1.69091e-46
1.91197e-46
2.13365e-46
2.35593e-46
2.57884e-46
2.80244e-46
3.0268e-46
3.25209e-46
3.47851e-46
3.70637e-46
3.93603e-46
4.16795e-46
4.40268e-46
4.64088e-46
4.88329e-46
5.13076e-46
5.3842e-46
5.6446e-46
5.91301e-46
6.19046e-46
6.47799e-46
6.77655e-46
7.08698e-46
7.40996e-46
7.74592e-46
8.09503e-46
8.45714e-46
8.83172e-46
9.21784e-46
9.61419e-46
1.0019e-45
1.04302e-45
1.08453e-45
1.12615e-45
1.16759e-45
1.20853e-45
1.24866e-45
1.28767e-45
1.32527e-45
1.3612e-45
1.39522e-45
1.42714e-45
1.45681e-45
1.48414e-45
1.50907e-45
1.5316e-45
1.55176e-45
1.56964e-45
1.58533e-45
1.59898e-45
1.61074e-45
1.62077e-45
1.62925e-45
1.63636e-45
1.64225e-45
1.64709e-45
1.65103e-45
1.65422e-45
1.65676e-45
1.65878e-45
1.66037e-45
1.6616e-45
1.66256e-45
1.66329e-45
1.66384e-45
1.66426e-45
1.66458e-45
1.66481e-45
1.66499e-45
1.66511e-45
1.66521e-45
1.66528e-45
1.66533e-45
1.66537e-45
1.6654e-45
1.66542e-45
1.66544e-45
1.66546e-45
1.66548e-45
1.66549e-45
1.66551e-45
1.66552e-45
1.66554e-45
1.66555e-45
1.66557e-45
1.66559e-45
1.66561e-45
1.66563e-45
1.66565e-45
1.66567e-45
1.66569e-45
1.66572e-45
1.66575e-45
1.66577e-45
1.6658e-45
1.66583e-45
1.66586e-45
1.6659e-45
1.66593e-45
1.66597e-45
1.66601e-45
1.66605e-45
1.66609e-45
1.66613e-45
1.66617e-45
1.66622e-45
1.66627e-45
1.66632e-45
1.66637e-45
1.66643e-45
1.66648e-45
1.66654e-45
1.66659e-45
1.66663e-45
1.66662e-45
1.66646e-45
1.66587e-45
1.66403e-45
1.66133e-45
1.66143e-45
1.66154e-45
1.66167e-45
1.66183e-45
1.66202e-45
1.66227e-45
1.66256e-45
1.6629e-45
1.6633e-45
1.66374e-45
1.66422e-45
1.66473e-45
1.66525e-45
1.66577e-45
1.66628e-45
1.66675e-45
1.66718e-45
1.66757e-45
1.66792e-45
1.66821e-45
1.66846e-45
1.66867e-45
1.66885e-45
1.669e-45
1.66912e-45
1.66923e-45
1.66933e-45
1.66942e-45
1.6695e-45
1.66959e-45
1.66967e-45
1.66976e-45
1.66985e-45
1.66994e-45
1.67004e-45
1.67015e-45
1.67027e-45
1.6704e-45
1.67054e-45
1.67069e-45
1.67085e-45
1.67101e-45
1.67119e-45
1.67137e-45
1.67156e-45
1.67175e-45
1.67194e-45
1.67214e-45
1.67233e-45
1.67252e-45
1.6727e-45
1.67288e-45
1.67305e-45
1.67321e-45
1.67336e-45
1.6735e-45
1.67364e-45
1.67376e-45
1.67387e-45
1.67398e-45
1.67407e-45
1.67415e-45
1.67421e-45
1.67427e-45
1.67432e-45
1.67435e-45
1.67438e-45
1.67439e-45
1.6744e-45
1.67445e-45
1.6747e-45
1.67583e-45
1.68064e-45
1.70063e-45
1.78265e-45
2.11621e-45
3.46197e-45
8.85057e-45
3.02663e-44
1.14745e-43
4.45504e-43
1.73085e-42
6.68842e-42
2.56665e-41
9.77723e-41
3.69679e-40
1.38735e-39
5.16767e-39
1.91056e-38
7.01115e-38
2.55383e-37
9.23381e-37
3.31415e-36
1.18083e-35
4.17679e-35
1.46679e-34
5.11439e-34
1.77073e-33
6.08809e-33
2.07887e-32
7.0508e-32
2.3756e-31
7.95235e-31
2.64532e-30
8.74582e-30
2.87443e-29
9.39357e-29
3.0531e-28
9.87176e-28
3.17621e-27
1.0172e-26
3.2435e-26
1.03004e-25
3.25879e-25
1.02742e-24
3.22883e-24
1.01175e-23
3.1619e-23
9.85781e-23
3.06673e-22
9.52216e-22
2.95159e-21
9.13537e-21
2.82377e-20
8.71856e-20
2.70041e-19
8.34413e-19
2.57213e-18
7.92054e-18
2.43768e-17
7.49975e-17
2.30677e-16
7.09371e-16
2.18103e-15
6.70454e-15
2.06056e-14
6.33123e-14
1.94468e-13
5.9706e-13
1.83208e-12
5.61769e-12
1.72102e-11
5.26688e-11
1.60993e-10
4.9152e-10
1.49958e-09
4.58275e-09
1.41702e-08
4.60357e-08
1.75331e-07
9.20283e-07
6.31273e-06
3.7936e-05
0.000169863
0.000604161
0.00153783
0.00284995
0.00417708
0.00522669
0.00591869
0.00629898
0.00643456
0.00643432
0.00635274
0.00622521
0.00607401
0.0059127
0.0057493
0.00558836
0.00543239
0.00528263
0.00513962
0.00500344
0.00487396
0.0047509
0.00463396
0.00452275
0.00441694
0.00431618
0.00422014
0.00412851
0.00404101
0.00395738
0.00387738
0.0038008
0.00372748
0.0036594
0.00359509
0.00353296
0.00347288
0.00341474
0.00335844
0.0033039
0.00325103
0.00319975
0.00314998
0.00310167
0.00305474
0.00300914
0.0029648
0.00292168
0.00287972
0.00283888
0.00279911
0.00276037
0.00272262
0.00268582
0.00264993
0.00261492
0.00258076
0.00254741
0.00251485
0.00248305
0.00245198
0.00242161
0.00239193
0.00236291
0.00233453
0.00230676
0.00227959
0.002253
0.00222697
0.00220149
0.00217653
0.00215208
0.00212812
0.00210465
0.00208165
0.0020591
0.00203699
0.00201531
0.00199404
0.00197318
0.00195272
0.00193264
0.00191293
0.00189359
0.00187459
0.00185595
0.00183764
0.00181966
0.00180199
0.00178464
0.00176758
0.00175083
0.00173436
0.00171818
0.00170227
0.00168664
0.00167129
0.00165618
0.00164126
0.00162658
0.00161212
0.0015979
0.00158389
0.0015701
0.00155651
0.00154313
0.00152994
0.00151695
0.00150415
0.00149153
0.00147909
0.00146683
0.00145474
0.00144282
0.00143107
0.00141947
0.00140803
0.00139675
0.00138562
0.00137464
0.00136381
0.00135312
0.00134257
0.00133216
0.00132188
0.00131174
0.00130172
0.00129184
0.00128208
0.00127245
0.00126294
0.00125354
0.00124427
0.00123511
0.00122606
0.00121712
0.00120829
0.00119957
0.00119095
0.00118243
0.001174
0.00116568
0.00115745
0.00114931
0.00114126
0.00113329
0.00112541
0.00111761
0.00110989
0.00110224
0.00109467
0.00108716
0.00107972
0.00107234
0.00106502
0.00105776
0.00105055
0.00104339
0.00103628
0.0010292
0.00102216
0.00101516
0.0010082
0.00100123
0.000993825
0.000985355
0.000978445
0.000971457
0.000964442
0.00095741
0.000950358
0.000943281
0.000936174
0.000929032
0.000921849
0.000914622
0.000907344
0.000900013
0.000892624
0.000885175
0.000877661
0.000870081
0.000862433
0.000854715
0.000846927
0.000839069
0.000831141
0.000823146
0.000815084
0.000806959
0.000798775
0.000790536
0.000782247
0.000773915
0.000765546
0.000757149
0.000748731
0.000740301
0.00073187
0.000723447
0.000715044
0.000706672
0.000698343
0.00069007
0.000681865
0.000673741
0.000665712
0.000657791
0.000649993
0.000642333
0.000634827
0.000627491
0.000620346
0.000613414
0.000606727
0.000600327
0.000594276
0.000588674
0.00058369
0.00057962
0.000577025
)
;

boundaryField
{
    boundary
    {
        type            empty;
    }
    inlet
    {
        type            fixedValue;
        value           uniform 0;
    }
    outlet
    {
        type            zeroGradient;
    }
}


// ************************************************************************* //
