/*--------------------------------*- C++ -*----------------------------------*\
  =========                 |
  \\      /  F ield         | OpenFOAM: The Open Source CFD Toolbox
   \\    /   O peration     | Website:  https://openfoam.org
    \\  /    A nd           | Version:  7
     \\/     M anipulation  |
\*---------------------------------------------------------------------------*/
FoamFile
{
    version     2.0;
    format      ascii;
    class       volScalarField;
    location    "0.00061";
    object      O2;
}
// * * * * * * * * * * * * * * * * * * * * * * * * * * * * * * * * * * * * * //

dimensions      [0 0 0 0 0 0 0];

internalField   nonuniform List<scalar> 
500
(
0.226269
0.226269
0.226269
0.226269
0.226269
0.226269
0.226269
0.226269
0.226269
0.226269
0.226269
0.226269
0.226269
0.226269
0.226269
0.226269
0.226269
0.226269
0.226269
0.226269
0.226269
0.226269
0.226269
0.226269
0.226269
0.226269
0.226269
0.226269
0.226269
0.226269
0.226269
0.226269
0.226269
0.226269
0.226269
0.226269
0.226269
0.226269
0.226269
0.226269
0.226269
0.226269
0.226269
0.226269
0.226269
0.226269
0.226269
0.226269
0.226269
0.226269
0.226269
0.226269
0.226269
0.226269
0.226269
0.226269
0.226269
0.226269
0.226269
0.226269
0.226269
0.226269
0.226269
0.226269
0.226269
0.226269
0.226269
0.226269
0.226269
0.226269
0.226269
0.226269
0.226269
0.226269
0.226269
0.226269
0.226269
0.226269
0.226269
0.226269
0.226269
0.226269
0.226269
0.226269
0.226269
0.226269
0.226269
0.226269
0.226269
0.226269
0.226269
0.226269
0.226269
0.226269
0.226269
0.226269
0.226269
0.226269
0.226269
0.226269
0.226269
0.226269
0.226269
0.226269
0.226269
0.226269
0.226269
0.226269
0.226269
0.226269
0.226269
0.226269
0.226269
0.226269
0.226269
0.226269
0.226269
0.226269
0.226269
0.226269
0.226269
0.226269
0.226269
0.226269
0.226269
0.226269
0.226269
0.226269
0.226269
0.226269
0.226269
0.226269
0.226269
0.226269
0.226269
0.226269
0.226269
0.226269
0.226269
0.226269
0.226269
0.226269
0.226269
0.226269
0.226269
0.226269
0.226269
0.226269
0.226269
0.226269
0.226269
0.226269
0.226269
0.226269
0.226269
0.226269
0.226269
0.226269
0.226269
0.226269
0.226269
0.226269
0.226269
0.226269
0.226269
0.226269
0.226269
0.226269
0.226269
0.226269
0.226269
0.226269
0.226269
0.226269
0.226269
0.226269
0.226269
0.226269
0.226269
0.226269
0.226269
0.226269
0.226269
0.226269
0.226269
0.226269
0.226269
0.226269
0.226269
0.226269
0.226269
0.226269
0.226269
0.226269
0.226269
0.226269
0.226269
0.226269
0.226269
0.226269
0.226269
0.226269
0.226269
0.226269
0.226269
0.226269
0.226269
0.226269
0.226269
0.226269
0.226269
0.226269
0.226269
0.226269
0.226269
0.226269
0.226269
0.226269
0.226269
0.226269
0.226269
0.226269
0.226269
0.226269
0.226269
0.226269
0.226269
0.226269
0.226269
0.226269
0.226269
0.226269
0.226269
0.226269
0.226269
0.226269
0.226269
0.226269
0.226269
0.226269
0.226269
0.226269
0.226269
0.226269
0.226269
0.226269
0.226269
0.226269
0.226269
0.226269
0.226269
0.226269
0.226269
0.226269
0.226269
0.226269
0.226269
0.226269
0.226269
0.226269
0.226269
0.226269
0.226269
0.226269
0.226269
0.226269
0.226269
0.226269
0.22627
0.226271
0.226273
0.226276
0.226278
0.226267
0.226183
0.225807
0.224475
0.220761
0.212716
0.200503
0.185016
0.165187
0.140827
0.114967
0.0920671
0.0748591
0.0596212
0.0508596
0.0449406
0.0409014
0.0380748
0.0360241
0.0344729
0.0332478
0.0322408
0.0313842
0.030635
0.0299654
0.0293572
0.028798
0.0282793
0.0277948
0.0273398
0.0269108
0.0265049
0.0261198
0.0257537
0.0254048
0.0250717
0.0247535
0.024449
0.0241577
0.0238875
0.023631
0.0233826
0.023142
0.0229087
0.0226824
0.0224625
0.0222489
0.0220412
0.0218391
0.0216423
0.0214505
0.0212637
0.0210814
0.0209036
0.02073
0.0205605
0.0203948
0.0202329
0.0200745
0.0199196
0.019768
0.0196195
0.0194741
0.0193317
0.0191921
0.0190553
0.0189211
0.0187895
0.0186603
0.0185336
0.0184092
0.018287
0.0181671
0.0180492
0.0179334
0.0178197
0.0177079
0.0175979
0.0174899
0.0173836
0.0172791
0.0171763
0.0170752
0.0169756
0.0168777
0.0167814
0.0166865
0.0165931
0.0165012
0.0164107
0.0163215
0.0162337
0.0161472
0.0160619
0.0159779
0.0158952
0.0158136
0.0157331
0.0156538
0.0155757
0.0154986
0.0154227
0.0153479
0.0152742
0.0152009
0.0151285
0.0150569
0.0149862
0.0149164
0.0148473
0.014779
0.0147114
0.0146446
0.0145785
0.014513
0.0144482
0.0143841
0.0143206
0.0142577
0.0141954
0.0141336
0.0140725
0.0140119
0.0139518
0.0138922
0.0138332
0.0137746
0.0137166
0.013659
0.0136019
0.0135453
0.013489
0.0134333
0.0133779
0.013323
0.0132685
0.0132143
0.0131605
0.0131071
0.0130541
0.0130013
0.0129489
0.0128968
0.0128449
0.0127934
0.012742
0.0126909
0.01264
0.0125893
0.0125387
0.0124882
0.0124378
0.0123875
0.0123373
0.012287
0.0122367
0.0121863
0.0121358
0.0120852
0.0120344
0.0119834
0.0119321
0.0118805
0.0118285
0.0117761
0.0117233
0.01167
0.0116162
0.0115622
0.0115076
0.0114434
0.0113693
0.0113111
0.0112512
0.01119
0.0111275
0.0110637
0.0109985
0.0109318
0.0108637
0.0107939
0.0107226
0.0106495
0.0105747
0.0104982
0.0104199
0.0103397
0.0102577
0.0101739
0.0100882
0.0100007
0.00991135
0.00982026
0.00972746
0.00963301
0.00953698
0.00943945
0.00934055
0.00924036
0.00913903
0.0090367
0.0089335
0.00882962
0.00872521
0.00862046
0.00851556
0.00841071
0.00830611
0.00820197
0.00809851
0.00799593
0.00789445
0.00779429
0.00769565
0.00759875
0.00750378
0.00741094
0.00732043
0.00723243
0.00714717
0.00706485
0.00698579
0.00691042
0.00683954
0.00677469
0.00671929
0.00668143
)
;

boundaryField
{
    boundary
    {
        type            empty;
    }
    inlet
    {
        type            fixedValue;
        value           uniform 0.226269;
    }
    outlet
    {
        type            zeroGradient;
    }
}


// ************************************************************************* //
