/*--------------------------------*- C++ -*----------------------------------*\
  =========                 |
  \\      /  F ield         | OpenFOAM: The Open Source CFD Toolbox
   \\    /   O peration     | Website:  https://openfoam.org
    \\  /    A nd           | Version:  7
     \\/     M anipulation  |
\*---------------------------------------------------------------------------*/
FoamFile
{
    version     2.0;
    format      ascii;
    class       volScalarField;
    location    "0.00061";
    object      OH;
}
// * * * * * * * * * * * * * * * * * * * * * * * * * * * * * * * * * * * * * //

dimensions      [0 0 0 0 0 0 0];

internalField   nonuniform List<scalar> 
500
(
9.34991e-48
1.81868e-47
2.42033e-47
2.82612e-47
3.09967e-47
3.28484e-47
3.41123e-47
3.49862e-47
3.56018e-47
3.60467e-47
3.63787e-47
3.66364e-47
3.68455e-47
3.70233e-47
3.71818e-47
3.73293e-47
3.74725e-47
3.76162e-47
3.77649e-47
3.79227e-47
3.80935e-47
3.82814e-47
3.84905e-47
3.87253e-47
3.89903e-47
3.92905e-47
3.96307e-47
4.00159e-47
4.0451e-47
4.09406e-47
4.14888e-47
4.20993e-47
4.27749e-47
4.35173e-47
4.43272e-47
4.5204e-47
4.61455e-47
4.7148e-47
4.82062e-47
4.93131e-47
5.04603e-47
5.16381e-47
5.28354e-47
5.40406e-47
5.52414e-47
5.64256e-47
5.75813e-47
5.86972e-47
5.97633e-47
6.0771e-47
6.17133e-47
6.2585e-47
6.33827e-47
6.4105e-47
6.47521e-47
6.53259e-47
6.58292e-47
6.62664e-47
6.66422e-47
6.69621e-47
6.72316e-47
6.74566e-47
6.76427e-47
6.7795e-47
6.79187e-47
6.80181e-47
6.80974e-47
6.816e-47
6.82091e-47
6.82472e-47
6.82766e-47
6.82991e-47
6.83162e-47
6.83291e-47
6.83388e-47
6.8346e-47
6.83514e-47
6.83555e-47
6.83585e-47
6.83608e-47
6.83625e-47
6.83639e-47
6.83651e-47
6.8366e-47
6.83669e-47
6.83677e-47
6.83684e-47
6.83692e-47
6.83699e-47
6.83707e-47
6.83715e-47
6.83723e-47
6.83731e-47
6.8374e-47
6.8375e-47
6.83759e-47
6.8377e-47
6.8378e-47
6.83792e-47
6.83804e-47
6.83816e-47
6.83829e-47
6.83842e-47
6.83857e-47
6.83871e-47
6.83887e-47
6.83903e-47
6.8392e-47
6.83937e-47
6.83955e-47
6.83974e-47
6.83994e-47
6.84014e-47
6.84035e-47
6.84057e-47
6.8408e-47
6.84103e-47
6.84128e-47
6.84153e-47
6.84179e-47
6.84206e-47
6.84235e-47
6.84269e-47
6.84316e-47
6.84404e-47
6.84515e-47
6.84516e-47
6.84515e-47
6.8451e-47
6.84503e-47
6.845e-47
6.84503e-47
6.84514e-47
6.84535e-47
6.84565e-47
6.84604e-47
6.8465e-47
6.84702e-47
6.84757e-47
6.84814e-47
6.84872e-47
6.8493e-47
6.84987e-47
6.85043e-47
6.85097e-47
6.85151e-47
6.85203e-47
6.85255e-47
6.85305e-47
6.85356e-47
6.85407e-47
6.85457e-47
6.85508e-47
6.85559e-47
6.8561e-47
6.85662e-47
6.85714e-47
6.85767e-47
6.85821e-47
6.85875e-47
6.85931e-47
6.85987e-47
6.86044e-47
6.86102e-47
6.86161e-47
6.8622e-47
6.8628e-47
6.86341e-47
6.86402e-47
6.86463e-47
6.86524e-47
6.86585e-47
6.86646e-47
6.86706e-47
6.86765e-47
6.86823e-47
6.86879e-47
6.86934e-47
6.86987e-47
6.87038e-47
6.87087e-47
6.87134e-47
6.87178e-47
6.87219e-47
6.87258e-47
6.87293e-47
6.87325e-47
6.87354e-47
6.8738e-47
6.87402e-47
6.8742e-47
6.87434e-47
6.87444e-47
6.87449e-47
6.8745e-47
6.87447e-47
6.87443e-47
6.87448e-47
6.87513e-47
6.87836e-47
6.89233e-47
6.95003e-47
7.18398e-47
8.12239e-47
1.1855e-46
2.65875e-46
8.42972e-46
3.08662e-45
1.17442e-44
4.49009e-44
1.70931e-43
6.46388e-43
2.42663e-42
9.04243e-42
3.34446e-41
1.2278e-40
4.47408e-40
1.61831e-39
5.81058e-39
2.07108e-38
7.32846e-38
2.57452e-37
8.97997e-37
3.11017e-36
1.0697e-35
3.65386e-35
1.23967e-34
4.17815e-34
1.3991e-33
4.65559e-33
1.53974e-32
5.0624e-32
1.65504e-31
5.38166e-31
1.74104e-30
5.60557e-30
1.79682e-29
5.73631e-29
1.82472e-28
5.7865e-28
1.83046e-27
5.78041e-27
1.82403e-26
5.75877e-26
1.82218e-25
5.79164e-25
1.85473e-24
6.00818e-24
1.97846e-23
6.66087e-23
2.30668e-22
8.30041e-22
3.09267e-21
1.19534e-20
4.78928e-20
1.98113e-19
8.4137e-19
3.64715e-18
1.60516e-17
7.14141e-17
3.201e-16
1.44191e-15
6.51567e-15
2.94988e-14
1.3369e-13
6.06175e-13
2.74878e-12
1.24631e-11
5.64928e-11
2.5695e-10
1.18357e-09
5.50066e-09
2.57286e-08
1.22457e-07
6.17527e-07
3.5755e-06
2.41444e-05
0.000147879
0.00048792
0.000769254
0.000921631
0.00122821
0.0019252
0.00304542
0.00440237
0.00575831
0.00712068
0.00812635
0.00891997
0.00953968
0.0100227
0.0104013
0.0107005
0.0109391
0.0111309
0.0112861
0.0114122
0.0115147
0.0115979
0.0116652
0.0117191
0.0117617
0.0117946
0.0118193
0.0118369
0.0118483
0.0118543
0.0118556
0.0118528
0.0118464
0.0118369
0.0118245
0.0118101
0.0117942
0.0117766
0.0117573
0.0117367
0.0117147
0.0116915
0.0116673
0.0116422
0.0116161
0.0115893
0.0115618
0.0115336
0.0115049
0.0114757
0.011446
0.0114159
0.0113855
0.0113547
0.0113237
0.0112924
0.0112609
0.0112292
0.0111974
0.0111654
0.0111333
0.0111012
0.0110689
0.0110367
0.0110044
0.0109721
0.0109398
0.0109075
0.0108752
0.010843
0.0108108
0.0107787
0.0107466
0.0107147
0.0106828
0.0106511
0.0106194
0.0105878
0.0105564
0.0105251
0.0104939
0.0104629
0.010432
0.0104012
0.0103706
0.0103402
0.0103099
0.0102797
0.0102497
0.0102199
0.0101902
0.0101607
0.0101314
0.0101022
0.0100733
0.0100444
0.0100158
0.00998736
0.00995916
0.00993107
0.00990297
0.00987502
0.00984722
0.00981957
0.00979207
0.0097647
0.00973748
0.0097104
0.00968346
0.00965665
0.00962997
0.00960343
0.00957701
0.00955073
0.00952457
0.00949854
0.00947264
0.00944687
0.00942122
0.00939571
0.00937032
0.00934505
0.00931992
0.00929491
0.00927003
0.00924527
0.00922065
0.00919615
0.00917178
0.00914754
0.00912343
0.00909945
0.00907559
0.00905186
0.00902825
0.00900477
0.00898141
0.00895818
0.00893506
0.00891206
0.00888918
0.00886641
0.00884375
0.00882119
0.00879873
0.00877638
0.00875411
0.00873193
0.00870983
0.00868781
0.00866585
0.00864395
0.0086221
0.00860029
0.00857851
0.00855675
0.008535
0.00851325
0.00849147
0.00846967
0.00844782
0.00842591
0.00840391
0.00838183
0.00835967
0.00833744
0.00831354
0.00828601
0.00826322
0.00823989
0.00821621
0.00819221
0.00816789
0.00814323
0.00811819
0.00809276
0.0080669
0.0080406
0.00801384
0.00798658
0.00795882
0.00793054
0.00790172
0.00787235
0.00784243
0.00781194
0.00778089
0.00774927
0.00771709
0.00768436
0.0076511
0.00761731
0.00758304
0.00754829
0.00751311
0.00747754
0.00744161
0.00740537
0.00736887
0.00733217
0.00729534
0.00725843
0.00722151
0.00718466
0.00714795
0.00711145
0.00707526
0.00703945
0.0070041
0.00696931
0.00693516
0.00690175
0.00686917
0.00683752
0.00680694
0.00677754
0.00674949
0.00672301
0.00669841
0.00667611
0.00665678
0.00664147
0.00663198
)
;

boundaryField
{
    boundary
    {
        type            empty;
    }
    inlet
    {
        type            fixedValue;
        value           uniform 0;
    }
    outlet
    {
        type            zeroGradient;
    }
}


// ************************************************************************* //
