/*--------------------------------*- C++ -*----------------------------------*\
  =========                 |
  \\      /  F ield         | OpenFOAM: The Open Source CFD Toolbox
   \\    /   O peration     | Website:  https://openfoam.org
    \\  /    A nd           | Version:  7
     \\/     M anipulation  |
\*---------------------------------------------------------------------------*/
FoamFile
{
    version     2.0;
    format      ascii;
    class       surfaceScalarField;
    location    "0.00061";
    object      phi;
}
// * * * * * * * * * * * * * * * * * * * * * * * * * * * * * * * * * * * * * //

dimensions      [1 0 -1 0 0 0 0];

internalField   nonuniform List<scalar> 
499
(
6.93302e-06
6.9338e-06
6.93455e-06
6.93526e-06
6.93595e-06
6.93659e-06
6.9372e-06
6.93777e-06
6.93831e-06
6.93883e-06
6.93933e-06
6.93981e-06
6.94028e-06
6.94074e-06
6.94119e-06
6.94163e-06
6.94206e-06
6.94248e-06
6.94289e-06
6.94328e-06
6.94365e-06
6.94399e-06
6.9443e-06
6.94458e-06
6.94481e-06
6.945e-06
6.94512e-06
6.94519e-06
6.94519e-06
6.94512e-06
6.94496e-06
6.94473e-06
6.94442e-06
6.94402e-06
6.94354e-06
6.94298e-06
6.94235e-06
6.94166e-06
6.94091e-06
6.94012e-06
6.9393e-06
6.93846e-06
6.93762e-06
6.93679e-06
6.93598e-06
6.93521e-06
6.93449e-06
6.93382e-06
6.93323e-06
6.9327e-06
6.93226e-06
6.9319e-06
6.93162e-06
6.93143e-06
6.93132e-06
6.93128e-06
6.93132e-06
6.93143e-06
6.9316e-06
6.93183e-06
6.93211e-06
6.93244e-06
6.9328e-06
6.9332e-06
6.93362e-06
6.93408e-06
6.93455e-06
6.93504e-06
6.93554e-06
6.93605e-06
6.93657e-06
6.9371e-06
6.93764e-06
6.93818e-06
6.93872e-06
6.93927e-06
6.93981e-06
6.94036e-06
6.94091e-06
6.94146e-06
6.94201e-06
6.94256e-06
6.94311e-06
6.94366e-06
6.94421e-06
6.94476e-06
6.94532e-06
6.94587e-06
6.94642e-06
6.94697e-06
6.94752e-06
6.94807e-06
6.94862e-06
6.94917e-06
6.94972e-06
6.95027e-06
6.95082e-06
6.95137e-06
6.95192e-06
6.95247e-06
6.95302e-06
6.95356e-06
6.95411e-06
6.95466e-06
6.95521e-06
6.95576e-06
6.95631e-06
6.95685e-06
6.9574e-06
6.95795e-06
6.9585e-06
6.95904e-06
6.95959e-06
6.96014e-06
6.96068e-06
6.96123e-06
6.96177e-06
6.96232e-06
6.96286e-06
6.96341e-06
6.96396e-06
6.9645e-06
6.96504e-06
6.96559e-06
6.96614e-06
6.96668e-06
6.96723e-06
6.96778e-06
6.96832e-06
6.96887e-06
6.96942e-06
6.96996e-06
6.97051e-06
6.97105e-06
6.9716e-06
6.97214e-06
6.97268e-06
6.97322e-06
6.97376e-06
6.9743e-06
6.97484e-06
6.97538e-06
6.97592e-06
6.97646e-06
6.977e-06
6.97754e-06
6.97808e-06
6.97861e-06
6.97915e-06
6.97969e-06
6.98023e-06
6.98077e-06
6.9813e-06
6.98184e-06
6.98238e-06
6.98292e-06
6.98345e-06
6.98399e-06
6.98452e-06
6.98506e-06
6.9856e-06
6.98613e-06
6.98667e-06
6.9872e-06
6.98773e-06
6.98827e-06
6.9888e-06
6.98934e-06
6.98987e-06
6.9904e-06
6.99094e-06
6.99147e-06
6.992e-06
6.99253e-06
6.99307e-06
6.9936e-06
6.99413e-06
6.99466e-06
6.9952e-06
6.99573e-06
6.99626e-06
6.99679e-06
6.99732e-06
6.99785e-06
6.99839e-06
6.99892e-06
6.99945e-06
6.99998e-06
7.00051e-06
7.00105e-06
7.00158e-06
7.00211e-06
7.00264e-06
7.00318e-06
7.00371e-06
7.00424e-06
7.00478e-06
7.00531e-06
7.00585e-06
7.00638e-06
7.00691e-06
7.00745e-06
7.00798e-06
7.00852e-06
7.00906e-06
7.00959e-06
7.01013e-06
7.01067e-06
7.01121e-06
7.01174e-06
7.01228e-06
7.01282e-06
7.01336e-06
7.0139e-06
7.01445e-06
7.01499e-06
7.01553e-06
7.01608e-06
7.01662e-06
7.01717e-06
7.01771e-06
7.01826e-06
7.01881e-06
7.01936e-06
7.01991e-06
7.02046e-06
7.02101e-06
7.02156e-06
7.02211e-06
7.02267e-06
7.02322e-06
7.02378e-06
7.02434e-06
7.0249e-06
7.02545e-06
7.02602e-06
7.02658e-06
7.02714e-06
7.0277e-06
7.02827e-06
7.02883e-06
7.0294e-06
7.02997e-06
7.03054e-06
7.03111e-06
7.03168e-06
7.03225e-06
7.03282e-06
7.0334e-06
7.03397e-06
7.03455e-06
7.03513e-06
7.03571e-06
7.03629e-06
7.03687e-06
7.03746e-06
7.03804e-06
7.03863e-06
7.03921e-06
7.0398e-06
7.04038e-06
7.04096e-06
7.04155e-06
7.04213e-06
7.04272e-06
7.0433e-06
7.04388e-06
7.04447e-06
7.04506e-06
7.04567e-06
7.04634e-06
7.04718e-06
7.04851e-06
7.05123e-06
7.05771e-06
7.07324e-06
7.10394e-06
7.14417e-06
7.1782e-06
7.20094e-06
7.21584e-06
7.22619e-06
7.23362e-06
7.23896e-06
7.24283e-06
7.24564e-06
7.24774e-06
7.24937e-06
7.25068e-06
7.25177e-06
7.2527e-06
7.2535e-06
7.25421e-06
7.25484e-06
7.2554e-06
7.25592e-06
7.25639e-06
7.25682e-06
7.25722e-06
7.2576e-06
7.25795e-06
7.25827e-06
7.25858e-06
7.25888e-06
7.25915e-06
7.25942e-06
7.25967e-06
7.25991e-06
7.26014e-06
7.26036e-06
7.26057e-06
7.26077e-06
7.26095e-06
7.26113e-06
7.26131e-06
7.26148e-06
7.26165e-06
7.26181e-06
7.26197e-06
7.26212e-06
7.26227e-06
7.26242e-06
7.26257e-06
7.26271e-06
7.26285e-06
7.26299e-06
7.26313e-06
7.26327e-06
7.2634e-06
7.26354e-06
7.26367e-06
7.2638e-06
7.26393e-06
7.26406e-06
7.26419e-06
7.26432e-06
7.26445e-06
7.26458e-06
7.26471e-06
7.26483e-06
7.26496e-06
7.26509e-06
7.26521e-06
7.26534e-06
7.26546e-06
7.26559e-06
7.26571e-06
7.26584e-06
7.26596e-06
7.26609e-06
7.26621e-06
7.26633e-06
7.26646e-06
7.26658e-06
7.2667e-06
7.26682e-06
7.26694e-06
7.26705e-06
7.26717e-06
7.26729e-06
7.2674e-06
7.26751e-06
7.26762e-06
7.26773e-06
7.26784e-06
7.26795e-06
7.26805e-06
7.26816e-06
7.26826e-06
7.26836e-06
7.26846e-06
7.26856e-06
7.26866e-06
7.26876e-06
7.26886e-06
7.26895e-06
7.26905e-06
7.26915e-06
7.26925e-06
7.26934e-06
7.26944e-06
7.26953e-06
7.26962e-06
7.26972e-06
7.26981e-06
7.26991e-06
7.27e-06
7.2701e-06
7.27019e-06
7.27029e-06
7.27038e-06
7.27048e-06
7.27058e-06
7.27068e-06
7.27078e-06
7.27088e-06
7.27098e-06
7.27107e-06
7.27117e-06
7.27127e-06
7.27137e-06
7.27147e-06
7.27156e-06
7.27166e-06
7.27175e-06
7.27184e-06
7.27193e-06
7.27202e-06
7.27211e-06
7.2722e-06
7.27228e-06
7.27236e-06
7.27244e-06
7.27252e-06
7.27259e-06
7.27267e-06
7.27274e-06
7.27281e-06
7.27287e-06
7.27293e-06
7.27299e-06
7.27305e-06
7.27311e-06
7.27316e-06
7.27321e-06
7.27327e-06
7.27332e-06
7.27336e-06
7.27341e-06
7.27346e-06
7.27351e-06
7.27356e-06
7.27362e-06
7.27368e-06
7.27374e-06
7.2738e-06
7.27388e-06
7.27396e-06
7.27405e-06
7.27415e-06
7.27426e-06
7.27435e-06
7.2747e-06
7.27361e-06
7.27388e-06
7.27404e-06
7.27418e-06
7.27433e-06
7.2745e-06
7.27469e-06
7.2749e-06
7.27512e-06
7.27537e-06
7.27563e-06
7.27591e-06
7.27622e-06
7.27654e-06
7.27688e-06
7.27724e-06
7.27761e-06
7.27799e-06
7.27839e-06
7.27879e-06
7.2792e-06
7.27961e-06
7.28001e-06
7.2804e-06
7.28078e-06
7.28113e-06
7.28145e-06
7.28173e-06
7.28197e-06
7.28214e-06
7.28225e-06
7.28229e-06
7.28223e-06
7.28207e-06
7.2818e-06
7.28141e-06
7.28088e-06
7.2802e-06
7.27936e-06
7.27835e-06
7.27716e-06
7.27577e-06
7.27418e-06
7.27237e-06
7.27034e-06
7.26808e-06
7.26559e-06
7.26286e-06
7.25989e-06
7.25668e-06
7.25322e-06
7.24953e-06
7.2456e-06
7.24144e-06
7.23707e-06
7.23252e-06
)
;

boundaryField
{
    boundary
    {
        type            empty;
        value           nonuniform 0();
    }
    inlet
    {
        type            calculated;
        value           uniform -6.93224e-06;
    }
    outlet
    {
        type            calculated;
        value           uniform 7.22783e-06;
    }
}


// ************************************************************************* //
