/*--------------------------------*- C++ -*----------------------------------*\
  =========                 |
  \\      /  F ield         | OpenFOAM: The Open Source CFD Toolbox
   \\    /   O peration     | Website:  https://openfoam.org
    \\  /    A nd           | Version:  7
     \\/     M anipulation  |
\*---------------------------------------------------------------------------*/
FoamFile
{
    version     2.0;
    format      ascii;
    class       volVectorField;
    location    "0.00061";
    object      U;
}
// * * * * * * * * * * * * * * * * * * * * * * * * * * * * * * * * * * * * * //

dimensions      [0 1 -1 0 0 0 0];

internalField   nonuniform List<vector> 
500
(
(2.34898 0 0)
(2.34917 0 0)
(2.34941 0 0)
(2.34962 0 0)
(2.34982 0 0)
(2.35002 0 0)
(2.35022 0 0)
(2.35042 0 0)
(2.35062 0 0)
(2.35082 0 0)
(2.35101 0 0)
(2.35121 0 0)
(2.3514 0 0)
(2.35159 0 0)
(2.35179 0 0)
(2.35198 0 0)
(2.35217 0 0)
(2.35237 0 0)
(2.35256 0 0)
(2.35276 0 0)
(2.35296 0 0)
(2.35316 0 0)
(2.35336 0 0)
(2.35357 0 0)
(2.35378 0 0)
(2.35399 0 0)
(2.3542 0 0)
(2.35441 0 0)
(2.35463 0 0)
(2.35485 0 0)
(2.35507 0 0)
(2.35529 0 0)
(2.35551 0 0)
(2.35572 0 0)
(2.35594 0 0)
(2.35616 0 0)
(2.35637 0 0)
(2.35658 0 0)
(2.35678 0 0)
(2.35698 0 0)
(2.35718 0 0)
(2.35737 0 0)
(2.35755 0 0)
(2.35773 0 0)
(2.35791 0 0)
(2.35808 0 0)
(2.35825 0 0)
(2.35841 0 0)
(2.35857 0 0)
(2.35873 0 0)
(2.35889 0 0)
(2.35905 0 0)
(2.3592 0 0)
(2.35936 0 0)
(2.35952 0 0)
(2.35968 0 0)
(2.35985 0 0)
(2.36001 0 0)
(2.36018 0 0)
(2.36035 0 0)
(2.36052 0 0)
(2.3607 0 0)
(2.36087 0 0)
(2.36105 0 0)
(2.36123 0 0)
(2.36141 0 0)
(2.36159 0 0)
(2.36178 0 0)
(2.36196 0 0)
(2.36214 0 0)
(2.36233 0 0)
(2.36252 0 0)
(2.3627 0 0)
(2.36289 0 0)
(2.36308 0 0)
(2.36326 0 0)
(2.36345 0 0)
(2.36364 0 0)
(2.36383 0 0)
(2.36402 0 0)
(2.3642 0 0)
(2.36439 0 0)
(2.36458 0 0)
(2.36477 0 0)
(2.36496 0 0)
(2.36514 0 0)
(2.36533 0 0)
(2.36552 0 0)
(2.36571 0 0)
(2.36589 0 0)
(2.36608 0 0)
(2.36627 0 0)
(2.36646 0 0)
(2.36665 0 0)
(2.36683 0 0)
(2.36702 0 0)
(2.36721 0 0)
(2.3674 0 0)
(2.36758 0 0)
(2.36777 0 0)
(2.36796 0 0)
(2.36815 0 0)
(2.36833 0 0)
(2.36852 0 0)
(2.36871 0 0)
(2.3689 0 0)
(2.36908 0 0)
(2.36927 0 0)
(2.36946 0 0)
(2.36964 0 0)
(2.36983 0 0)
(2.37002 0 0)
(2.37021 0 0)
(2.37039 0 0)
(2.37058 0 0)
(2.37077 0 0)
(2.37095 0 0)
(2.37114 0 0)
(2.37133 0 0)
(2.37152 0 0)
(2.3717 0 0)
(2.37189 0 0)
(2.37208 0 0)
(2.37226 0 0)
(2.37247 0 0)
(2.37266 0 0)
(2.37283 0 0)
(2.37301 0 0)
(2.3732 0 0)
(2.37339 0 0)
(2.37358 0 0)
(2.37376 0 0)
(2.37395 0 0)
(2.37413 0 0)
(2.37432 0 0)
(2.3745 0 0)
(2.37469 0 0)
(2.37487 0 0)
(2.37506 0 0)
(2.37524 0 0)
(2.37543 0 0)
(2.37561 0 0)
(2.3758 0 0)
(2.37598 0 0)
(2.37617 0 0)
(2.37635 0 0)
(2.37654 0 0)
(2.37672 0 0)
(2.37691 0 0)
(2.37709 0 0)
(2.37728 0 0)
(2.37746 0 0)
(2.37764 0 0)
(2.37783 0 0)
(2.37801 0 0)
(2.3782 0 0)
(2.37838 0 0)
(2.37857 0 0)
(2.37875 0 0)
(2.37893 0 0)
(2.37912 0 0)
(2.3793 0 0)
(2.37949 0 0)
(2.37967 0 0)
(2.37985 0 0)
(2.38004 0 0)
(2.38022 0 0)
(2.38041 0 0)
(2.38059 0 0)
(2.38077 0 0)
(2.38096 0 0)
(2.38114 0 0)
(2.38132 0 0)
(2.38151 0 0)
(2.38169 0 0)
(2.38187 0 0)
(2.38205 0 0)
(2.38224 0 0)
(2.38242 0 0)
(2.3826 0 0)
(2.38279 0 0)
(2.38297 0 0)
(2.38315 0 0)
(2.38333 0 0)
(2.38351 0 0)
(2.3837 0 0)
(2.38388 0 0)
(2.38406 0 0)
(2.38424 0 0)
(2.38442 0 0)
(2.38461 0 0)
(2.38479 0 0)
(2.38497 0 0)
(2.38515 0 0)
(2.38533 0 0)
(2.38551 0 0)
(2.3857 0 0)
(2.38588 0 0)
(2.38606 0 0)
(2.38624 0 0)
(2.38642 0 0)
(2.3866 0 0)
(2.38678 0 0)
(2.38696 0 0)
(2.38714 0 0)
(2.38732 0 0)
(2.3875 0 0)
(2.38768 0 0)
(2.38786 0 0)
(2.38805 0 0)
(2.38823 0 0)
(2.38841 0 0)
(2.38859 0 0)
(2.38877 0 0)
(2.38894 0 0)
(2.38912 0 0)
(2.3893 0 0)
(2.38948 0 0)
(2.38966 0 0)
(2.38984 0 0)
(2.39002 0 0)
(2.3902 0 0)
(2.39038 0 0)
(2.39056 0 0)
(2.39074 0 0)
(2.39092 0 0)
(2.3911 0 0)
(2.39127 0 0)
(2.39145 0 0)
(2.39163 0 0)
(2.39181 0 0)
(2.39199 0 0)
(2.39217 0 0)
(2.39235 0 0)
(2.39252 0 0)
(2.3927 0 0)
(2.39288 0 0)
(2.39306 0 0)
(2.39324 0 0)
(2.39341 0 0)
(2.39359 0 0)
(2.39377 0 0)
(2.39395 0 0)
(2.39412 0 0)
(2.3943 0 0)
(2.39448 0 0)
(2.39466 0 0)
(2.39483 0 0)
(2.39501 0 0)
(2.39519 0 0)
(2.39538 0 0)
(2.39556 0 0)
(2.39572 0 0)
(2.39589 0 0)
(2.39607 0 0)
(2.39625 0 0)
(2.39643 0 0)
(2.3966 0 0)
(2.39678 0 0)
(2.39695 0 0)
(2.39713 0 0)
(2.3973 0 0)
(2.39748 0 0)
(2.39765 0 0)
(2.39782 0 0)
(2.398 0 0)
(2.39817 0 0)
(2.39836 0 0)
(2.39858 0 0)
(2.3989 0 0)
(2.39962 0 0)
(2.40149 0 0)
(2.4068 0 0)
(2.4215 0 0)
(2.45934 0 0)
(2.55015 0 0)
(2.75863 0 0)
(3.20339 0 0)
(4.05037 0 0)
(5.20849 0 0)
(6.44629 0 0)
(7.59937 0 0)
(8.61765 0 0)
(9.49002 0 0)
(10.214 0 0)
(10.8115 0 0)
(11.3085 0 0)
(11.7117 0 0)
(12.0327 0 0)
(12.2969 0 0)
(12.5241 0 0)
(12.7237 0 0)
(12.9007 0 0)
(13.059 0 0)
(13.2018 0 0)
(13.3316 0 0)
(13.4503 0 0)
(13.5596 0 0)
(13.6606 0 0)
(13.7544 0 0)
(13.8418 0 0)
(13.9236 0 0)
(14.0002 0 0)
(14.0723 0 0)
(14.1403 0 0)
(14.2045 0 0)
(14.2653 0 0)
(14.323 0 0)
(14.3779 0 0)
(14.43 0 0)
(14.4797 0 0)
(14.527 0 0)
(14.571 0 0)
(14.6122 0 0)
(14.6521 0 0)
(14.6906 0 0)
(14.7278 0 0)
(14.7638 0 0)
(14.7986 0 0)
(14.8324 0 0)
(14.8651 0 0)
(14.8968 0 0)
(14.9276 0 0)
(14.9574 0 0)
(14.9865 0 0)
(15.0147 0 0)
(15.0422 0 0)
(15.0689 0 0)
(15.095 0 0)
(15.1204 0 0)
(15.1451 0 0)
(15.1692 0 0)
(15.1928 0 0)
(15.2157 0 0)
(15.2382 0 0)
(15.2601 0 0)
(15.2815 0 0)
(15.3024 0 0)
(15.3229 0 0)
(15.343 0 0)
(15.3626 0 0)
(15.3818 0 0)
(15.4006 0 0)
(15.419 0 0)
(15.4371 0 0)
(15.4548 0 0)
(15.4721 0 0)
(15.4891 0 0)
(15.5058 0 0)
(15.5222 0 0)
(15.5383 0 0)
(15.5541 0 0)
(15.5696 0 0)
(15.5848 0 0)
(15.5998 0 0)
(15.6145 0 0)
(15.629 0 0)
(15.6432 0 0)
(15.6572 0 0)
(15.6709 0 0)
(15.6844 0 0)
(15.6977 0 0)
(15.7108 0 0)
(15.7237 0 0)
(15.7364 0 0)
(15.7489 0 0)
(15.7612 0 0)
(15.7734 0 0)
(15.7853 0 0)
(15.7971 0 0)
(15.8087 0 0)
(15.8201 0 0)
(15.8314 0 0)
(15.8425 0 0)
(15.8534 0 0)
(15.8642 0 0)
(15.8748 0 0)
(15.8856 0 0)
(15.896 0 0)
(15.9061 0 0)
(15.9162 0 0)
(15.9262 0 0)
(15.936 0 0)
(15.9458 0 0)
(15.9554 0 0)
(15.9648 0 0)
(15.9742 0 0)
(15.9834 0 0)
(15.9926 0 0)
(16.0016 0 0)
(16.0105 0 0)
(16.0193 0 0)
(16.028 0 0)
(16.0366 0 0)
(16.0451 0 0)
(16.0535 0 0)
(16.0618 0 0)
(16.0701 0 0)
(16.0782 0 0)
(16.0862 0 0)
(16.0942 0 0)
(16.102 0 0)
(16.1098 0 0)
(16.1175 0 0)
(16.1251 0 0)
(16.1326 0 0)
(16.1401 0 0)
(16.1475 0 0)
(16.1548 0 0)
(16.162 0 0)
(16.1692 0 0)
(16.1762 0 0)
(16.1832 0 0)
(16.1902 0 0)
(16.1971 0 0)
(16.2039 0 0)
(16.2106 0 0)
(16.2173 0 0)
(16.2239 0 0)
(16.2304 0 0)
(16.2369 0 0)
(16.2434 0 0)
(16.2497 0 0)
(16.256 0 0)
(16.2623 0 0)
(16.2685 0 0)
(16.2746 0 0)
(16.2807 0 0)
(16.2867 0 0)
(16.2927 0 0)
(16.2986 0 0)
(16.3045 0 0)
(16.3103 0 0)
(16.316 0 0)
(16.3217 0 0)
(16.3274 0 0)
(16.333 0 0)
(16.3385 0 0)
(16.344 0 0)
(16.3495 0 0)
(16.3549 0 0)
(16.3602 0 0)
(16.366 0 0)
(16.3708 0 0)
(16.3756 0 0)
(16.3813 0 0)
(16.3865 0 0)
(16.3916 0 0)
(16.3966 0 0)
(16.4016 0 0)
(16.4065 0 0)
(16.4115 0 0)
(16.4163 0 0)
(16.4212 0 0)
(16.4259 0 0)
(16.4307 0 0)
(16.4354 0 0)
(16.4401 0 0)
(16.4448 0 0)
(16.4494 0 0)
(16.454 0 0)
(16.4586 0 0)
(16.4631 0 0)
(16.4676 0 0)
(16.4721 0 0)
(16.4766 0 0)
(16.481 0 0)
(16.4854 0 0)
(16.4898 0 0)
(16.4942 0 0)
(16.4986 0 0)
(16.503 0 0)
(16.5073 0 0)
(16.5117 0 0)
(16.516 0 0)
(16.5203 0 0)
(16.5246 0 0)
(16.5289 0 0)
(16.5332 0 0)
(16.5375 0 0)
(16.5417 0 0)
(16.5459 0 0)
(16.5502 0 0)
(16.5544 0 0)
(16.5585 0 0)
(16.5627 0 0)
(16.5668 0 0)
(16.5709 0 0)
(16.5749 0 0)
(16.579 0 0)
(16.5829 0 0)
(16.5869 0 0)
(16.5907 0 0)
(16.5945 0 0)
(16.5982 0 0)
(16.6016 0 0)
(16.6047 0 0)
(16.607 0 0)
(16.6063 0 0)
(16.6004 0 0)
)
;

boundaryField
{
    boundary
    {
        type            empty;
    }
    inlet
    {
        type            fixedValue;
        value           uniform (2.34893 0 0);
    }
    outlet
    {
        type            zeroGradient;
    }
}


// ************************************************************************* //
