/*--------------------------------*- C++ -*----------------------------------*\
  =========                 |
  \\      /  F ield         | OpenFOAM: The Open Source CFD Toolbox
   \\    /   O peration     | Website:  https://openfoam.org
    \\  /    A nd           | Version:  7
     \\/     M anipulation  |
\*---------------------------------------------------------------------------*/
FoamFile
{
    version     2.0;
    format      ascii;
    class       volScalarField;
    location    "0.00055";
    object      H2O2;
}
// * * * * * * * * * * * * * * * * * * * * * * * * * * * * * * * * * * * * * //

dimensions      [0 0 0 0 0 0 0];

internalField   nonuniform List<scalar> 
125
(
1.99784e-52
6.42248e-52
1.27779e-51
2.10714e-51
3.13097e-51
4.34992e-51
5.76468e-51
7.37606e-51
9.18507e-51
1.11931e-50
1.34019e-50
1.58139e-50
1.84325e-50
2.12618e-50
2.43074e-50
2.75765e-50
3.10778e-50
3.48223e-50
3.88228e-50
4.30945e-50
4.76545e-50
5.25214e-50
5.77153e-50
6.32564e-50
6.9164e-50
7.54554e-50
8.21441e-50
8.9238e-50
9.67377e-50
1.04635e-49
1.1291e-49
1.21533e-49
1.30461e-49
1.39638e-49
1.48997e-49
1.58461e-49
1.67944e-49
1.77357e-49
1.86606e-49
1.956e-49
2.04253e-49
2.12487e-49
2.20234e-49
2.27441e-49
2.34068e-49
2.40092e-49
2.45503e-49
2.50308e-49
2.54525e-49
2.58182e-49
2.61317e-49
2.63974e-49
2.662e-49
2.68043e-49
2.69553e-49
2.70776e-49
2.71755e-49
2.72532e-49
2.7314e-49
2.73612e-49
2.73974e-49
2.74249e-49
2.74456e-49
2.74611e-49
2.74724e-49
2.74808e-49
2.74868e-49
2.74911e-49
2.74942e-49
2.74964e-49
2.7498e-49
2.74991e-49
2.74999e-49
2.75005e-49
2.75009e-49
2.75013e-49
2.75015e-49
2.75018e-49
2.7502e-49
2.75022e-49
2.75024e-49
2.75026e-49
2.75028e-49
2.75031e-49
2.75033e-49
2.75036e-49
2.75038e-49
2.75041e-49
2.75045e-49
2.75048e-49
2.75051e-49
2.75055e-49
2.75059e-49
2.75063e-49
2.75068e-49
2.75072e-49
2.75077e-49
2.75082e-49
2.75088e-49
2.75094e-49
2.751e-49
2.75106e-49
2.75112e-49
2.75119e-49
2.75126e-49
2.75134e-49
2.75142e-49
2.7515e-49
2.75158e-49
2.75167e-49
2.75177e-49
2.75186e-49
2.75196e-49
2.75206e-49
2.75217e-49
2.75228e-49
2.7524e-49
2.75251e-49
2.75263e-49
2.75276e-49
2.75286e-49
2.75291e-49
2.75271e-49
2.75151e-49
2.74639e-49
)
;

boundaryField
{
    boundary
    {
        type            empty;
    }
    inlet
    {
        type            fixedValue;
        value           uniform 0;
    }
    outlet
    {
        type            zeroGradient;
    }
    procBoundary2to3
    {
        type            processor;
        value           uniform 2.73616e-49;
    }
}


// ************************************************************************* //
