/*--------------------------------*- C++ -*----------------------------------*\
  =========                 |
  \\      /  F ield         | OpenFOAM: The Open Source CFD Toolbox
   \\    /   O peration     | Website:  https://openfoam.org
    \\  /    A nd           | Version:  7
     \\/     M anipulation  |
\*---------------------------------------------------------------------------*/
FoamFile
{
    version     2.0;
    format      ascii;
    class       surfaceScalarField;
    location    "0.00063";
    object      phi;
}
// * * * * * * * * * * * * * * * * * * * * * * * * * * * * * * * * * * * * * //

dimensions      [1 0 -1 0 0 0 0];

internalField   nonuniform List<scalar> 
125
(
6.95274e-06
6.95319e-06
6.95363e-06
6.95408e-06
6.95452e-06
6.95497e-06
6.95541e-06
6.95586e-06
6.9563e-06
6.95675e-06
6.95719e-06
6.95763e-06
6.95807e-06
6.95851e-06
6.95896e-06
6.9594e-06
6.95983e-06
6.96027e-06
6.96071e-06
6.96115e-06
6.96159e-06
6.96203e-06
6.96247e-06
6.96291e-06
6.96335e-06
6.96379e-06
6.96422e-06
6.96466e-06
6.9651e-06
6.96554e-06
6.96598e-06
6.96642e-06
6.96685e-06
6.96729e-06
6.96773e-06
6.96817e-06
6.9686e-06
6.96904e-06
6.96948e-06
6.96991e-06
6.97035e-06
6.97079e-06
6.97122e-06
6.97166e-06
6.97209e-06
6.97253e-06
6.97297e-06
6.9734e-06
6.97384e-06
6.97427e-06
6.97471e-06
6.97514e-06
6.97558e-06
6.97601e-06
6.97645e-06
6.97688e-06
6.97732e-06
6.97776e-06
6.97819e-06
6.97863e-06
6.97906e-06
6.9795e-06
6.97994e-06
6.98037e-06
6.98081e-06
6.98125e-06
6.98168e-06
6.98212e-06
6.98256e-06
6.98299e-06
6.98343e-06
6.98387e-06
6.98431e-06
6.98475e-06
6.98519e-06
6.98563e-06
6.98607e-06
6.98651e-06
6.98695e-06
6.98739e-06
6.98783e-06
6.98828e-06
6.98872e-06
6.98916e-06
6.98961e-06
6.99005e-06
6.9905e-06
6.99094e-06
6.99139e-06
6.99184e-06
6.99229e-06
6.99274e-06
6.99319e-06
6.99364e-06
6.99409e-06
6.99454e-06
6.99499e-06
6.99545e-06
6.9959e-06
6.99636e-06
6.99682e-06
6.99728e-06
6.99774e-06
6.9982e-06
6.99866e-06
6.99912e-06
6.99958e-06
7.00005e-06
7.00051e-06
7.00098e-06
7.00145e-06
7.00192e-06
7.00239e-06
7.00286e-06
7.00333e-06
7.00381e-06
7.00428e-06
7.00476e-06
7.00524e-06
7.00571e-06
7.00619e-06
7.00668e-06
7.00716e-06
7.00764e-06
7.00813e-06
)
;

boundaryField
{
    boundary
    {
        type            empty;
        value           nonuniform 0();
    }
    inlet
    {
        type            calculated;
        value           nonuniform 0();
    }
    outlet
    {
        type            calculated;
        value           nonuniform 0();
    }
    procBoundary3to1
    {
        type            processor;
        value           uniform 7.00861e-06;
    }
    procBoundary3to2
    {
        type            processor;
        value           uniform -6.9523e-06;
    }
}


// ************************************************************************* //
