/*--------------------------------*- C++ -*----------------------------------*\
  =========                 |
  \\      /  F ield         | OpenFOAM: The Open Source CFD Toolbox
   \\    /   O peration     | Website:  https://openfoam.org
    \\  /    A nd           | Version:  7
     \\/     M anipulation  |
\*---------------------------------------------------------------------------*/
FoamFile
{
    version     2.0;
    format      ascii;
    class       volScalarField;
    location    "0.00066";
    object      H2O2;
}
// * * * * * * * * * * * * * * * * * * * * * * * * * * * * * * * * * * * * * //

dimensions      [0 0 0 0 0 0 0];

internalField   nonuniform List<scalar> 
500
(
1.98404e-52
6.36679e-52
1.26449e-51
2.08181e-51
3.08903e-51
4.28694e-51
5.67669e-51
7.25971e-51
9.03754e-51
1.10117e-50
1.31838e-50
1.55552e-50
1.81273e-50
2.09014e-50
2.38791e-50
2.70624e-50
3.04537e-50
3.40561e-50
3.78739e-50
4.19124e-50
4.61785e-50
5.06809e-50
5.543e-50
6.04386e-50
6.57214e-50
7.12956e-50
7.71805e-50
8.3397e-50
8.99677e-50
9.69158e-50
1.04264e-49
1.12035e-49
1.20248e-49
1.28917e-49
1.38053e-49
1.47657e-49
1.57723e-49
1.68235e-49
1.79164e-49
1.9047e-49
2.02101e-49
2.13993e-49
2.2607e-49
2.38248e-49
2.50436e-49
2.62535e-49
2.74447e-49
2.86074e-49
2.97324e-49
3.08109e-49
3.18353e-49
3.27992e-49
3.36976e-49
3.45269e-49
3.52849e-49
3.59711e-49
3.65862e-49
3.71322e-49
3.76122e-49
3.80301e-49
3.83903e-49
3.86979e-49
3.89581e-49
3.9176e-49
3.93568e-49
3.95055e-49
3.96266e-49
3.97244e-49
3.98027e-49
3.98647e-49
3.99134e-49
3.99514e-49
3.99808e-49
4.00033e-49
4.00204e-49
4.00334e-49
4.00431e-49
4.00503e-49
4.00556e-49
4.00596e-49
4.00625e-49
4.00646e-49
4.00662e-49
4.00674e-49
4.00683e-49
4.0069e-49
4.00696e-49
4.00701e-49
4.00706e-49
4.0071e-49
4.00714e-49
4.00718e-49
4.00722e-49
4.00726e-49
4.00731e-49
4.00736e-49
4.00741e-49
4.00746e-49
4.00751e-49
4.00757e-49
4.00763e-49
4.0077e-49
4.00776e-49
4.00783e-49
4.00791e-49
4.00799e-49
4.00807e-49
4.00816e-49
4.00825e-49
4.00834e-49
4.00844e-49
4.00855e-49
4.00865e-49
4.00877e-49
4.00888e-49
4.00901e-49
4.00913e-49
4.00927e-49
4.0094e-49
4.00954e-49
4.00966e-49
4.00971e-49
4.00947e-49
4.00804e-49
4.00193e-49
3.98969e-49
3.98988e-49
3.99006e-49
3.99024e-49
3.99043e-49
3.99062e-49
3.99083e-49
3.99105e-49
3.99131e-49
3.99162e-49
3.99199e-49
3.99243e-49
3.99297e-49
3.99361e-49
3.99436e-49
3.99524e-49
3.99624e-49
3.99737e-49
3.99859e-49
3.99991e-49
4.00128e-49
4.00267e-49
4.00405e-49
4.00537e-49
4.0066e-49
4.0077e-49
4.00865e-49
4.00944e-49
4.01005e-49
4.0105e-49
4.01079e-49
4.01096e-49
4.01103e-49
4.01104e-49
4.01101e-49
4.011e-49
4.01102e-49
4.0111e-49
4.01127e-49
4.01154e-49
4.01193e-49
4.01243e-49
4.01304e-49
4.01375e-49
4.01455e-49
4.01543e-49
4.01638e-49
4.01736e-49
4.01837e-49
4.01939e-49
4.0204e-49
4.0214e-49
4.02236e-49
4.02327e-49
4.02414e-49
4.02496e-49
4.02571e-49
4.02641e-49
4.02705e-49
4.02763e-49
4.02815e-49
4.02862e-49
4.02904e-49
4.02941e-49
4.02974e-49
4.03002e-49
4.03026e-49
4.03047e-49
4.03063e-49
4.03076e-49
4.03086e-49
4.03092e-49
4.03094e-49
4.03093e-49
4.03089e-49
4.03082e-49
4.03074e-49
4.03081e-49
4.03193e-49
4.03902e-49
4.07932e-49
4.30168e-49
5.51305e-49
1.20515e-48
4.70422e-48
2.3273e-47
1.20992e-46
6.30959e-46
3.27024e-45
1.68165e-44
8.57704e-44
4.33887e-43
2.17707e-42
1.08355e-41
5.34987e-41
2.62053e-40
1.27359e-39
6.14206e-39
2.93964e-38
1.39646e-37
6.58545e-37
3.08342e-36
1.43367e-35
6.621e-35
3.0377e-34
1.38489e-33
6.27542e-33
2.82711e-32
1.26659e-31
5.64489e-31
2.50342e-30
1.10513e-29
4.85773e-29
2.12688e-28
9.27864e-28
4.03463e-27
1.7492e-26
7.56366e-26
3.26294e-25
1.40473e-24
6.03676e-24
2.59028e-23
1.10999e-22
4.75134e-22
2.03195e-21
8.68326e-21
3.73098e-20
1.59703e-19
6.82e-19
2.9103e-18
1.24145e-17
5.29406e-17
2.2569e-16
9.61784e-16
4.09682e-15
1.7441e-14
7.41986e-14
3.1539e-13
1.33924e-12
5.68001e-12
2.40578e-11
1.01748e-10
4.29663e-10
1.81158e-09
7.62669e-09
3.20602e-08
1.34523e-07
5.62328e-07
2.32353e-06
9.22763e-06
3.22437e-05
8.00721e-05
0.000117324
0.000118159
7.49014e-05
3.39442e-05
1.35876e-05
6.37155e-06
4.54037e-06
4.57955e-06
5.18019e-06
5.80193e-06
6.28457e-06
6.59333e-06
6.74815e-06
6.7839e-06
6.73405e-06
6.62576e-06
6.47941e-06
6.30948e-06
6.12637e-06
5.93719e-06
5.74679e-06
5.55845e-06
5.37434e-06
5.19581e-06
5.02371e-06
4.85846e-06
4.70026e-06
4.54911e-06
4.40489e-06
4.26742e-06
4.13645e-06
4.01173e-06
3.89298e-06
3.77997e-06
3.67249e-06
3.57344e-06
3.48028e-06
3.39088e-06
3.30506e-06
3.22263e-06
3.14342e-06
3.06729e-06
2.99407e-06
2.92364e-06
2.85585e-06
2.79058e-06
2.72771e-06
2.66712e-06
2.60871e-06
2.55237e-06
2.49801e-06
2.44553e-06
2.39485e-06
2.34588e-06
2.29856e-06
2.2528e-06
2.20853e-06
2.16569e-06
2.12422e-06
2.08405e-06
2.04514e-06
2.00743e-06
1.97086e-06
1.93539e-06
1.90098e-06
1.86758e-06
1.83515e-06
1.80365e-06
1.77305e-06
1.74331e-06
1.71439e-06
1.68627e-06
1.65892e-06
1.6323e-06
1.60639e-06
1.58116e-06
1.55659e-06
1.53265e-06
1.50933e-06
1.48659e-06
1.46443e-06
1.44281e-06
1.42172e-06
1.40115e-06
1.38107e-06
1.36147e-06
1.34234e-06
1.32365e-06
1.30539e-06
1.28756e-06
1.27013e-06
1.25309e-06
1.23644e-06
1.22016e-06
1.20424e-06
1.18866e-06
1.17343e-06
1.15853e-06
1.14396e-06
1.12968e-06
1.11569e-06
1.10198e-06
1.08855e-06
1.0754e-06
1.06251e-06
1.04988e-06
1.03751e-06
1.02538e-06
1.01348e-06
1.00182e-06
9.90387e-07
9.79171e-07
9.68168e-07
9.57374e-07
9.46781e-07
9.36386e-07
9.26183e-07
9.16166e-07
9.06331e-07
8.96674e-07
8.87189e-07
8.77873e-07
8.68721e-07
8.59728e-07
8.50892e-07
8.42207e-07
8.33671e-07
8.25279e-07
8.17029e-07
8.08916e-07
8.00937e-07
7.9309e-07
7.8537e-07
7.77776e-07
7.70304e-07
7.62951e-07
7.55715e-07
7.48593e-07
7.41582e-07
7.3468e-07
7.27884e-07
7.21192e-07
7.14603e-07
7.08112e-07
7.0172e-07
6.95422e-07
6.89218e-07
6.83106e-07
6.77082e-07
6.71146e-07
6.65296e-07
6.5953e-07
6.53845e-07
6.48241e-07
6.42715e-07
6.37267e-07
6.31893e-07
6.26593e-07
6.21365e-07
6.16207e-07
6.11118e-07
6.06096e-07
6.0114e-07
5.96248e-07
5.91418e-07
5.86649e-07
5.8194e-07
5.77288e-07
5.72693e-07
5.68153e-07
5.63666e-07
5.5923e-07
5.54845e-07
5.50508e-07
5.46218e-07
5.41972e-07
5.37769e-07
5.33606e-07
5.29478e-07
5.25376e-07
5.2154e-07
5.16029e-07
5.11993e-07
5.07984e-07
5.0399e-07
5.00009e-07
4.96042e-07
4.92087e-07
4.88143e-07
4.84207e-07
4.80276e-07
4.76347e-07
4.72418e-07
4.68486e-07
4.64549e-07
4.60603e-07
4.56645e-07
4.52674e-07
4.48687e-07
4.4468e-07
4.40653e-07
4.36602e-07
4.32526e-07
4.28423e-07
4.24291e-07
4.20129e-07
4.15935e-07
4.1171e-07
4.07453e-07
4.03165e-07
3.98845e-07
3.94496e-07
3.90121e-07
3.85723e-07
3.81309e-07
3.76887e-07
3.72474e-07
3.68096e-07
3.63796e-07
3.59653e-07
3.55811e-07
3.52536e-07
3.50356e-07
)
;

boundaryField
{
    boundary
    {
        type            empty;
    }
    inlet
    {
        type            fixedValue;
        value           uniform 0;
    }
    outlet
    {
        type            zeroGradient;
    }
}


// ************************************************************************* //
