/*--------------------------------*- C++ -*----------------------------------*\
  =========                 |
  \\      /  F ield         | OpenFOAM: The Open Source CFD Toolbox
   \\    /   O peration     | Website:  https://openfoam.org
    \\  /    A nd           | Version:  7
     \\/     M anipulation  |
\*---------------------------------------------------------------------------*/
FoamFile
{
    version     2.0;
    format      ascii;
    class       volScalarField;
    location    "0.00066";
    object      OH;
}
// * * * * * * * * * * * * * * * * * * * * * * * * * * * * * * * * * * * * * //

dimensions      [0 0 0 0 0 0 0];

internalField   nonuniform List<scalar> 
500
(
9.35464e-48
1.81937e-47
2.41995e-47
2.82309e-47
3.09251e-47
3.27234e-47
3.39257e-47
3.47343e-47
3.52848e-47
3.5668e-47
3.59439e-47
3.61522e-47
3.63188e-47
3.64605e-47
3.6588e-47
3.67081e-47
3.68255e-47
3.69433e-47
3.7064e-47
3.71896e-47
3.73222e-47
3.7464e-47
3.76175e-47
3.77855e-47
3.7971e-47
3.81774e-47
3.84083e-47
3.86678e-47
3.89599e-47
3.92889e-47
3.96592e-47
4.0075e-47
4.05404e-47
4.10589e-47
4.1634e-47
4.22682e-47
4.29632e-47
4.37199e-47
4.45381e-47
4.54164e-47
4.63519e-47
4.73407e-47
4.83771e-47
4.94545e-47
5.05649e-47
5.16991e-47
5.28473e-47
5.3999e-47
5.51433e-47
5.62695e-47
5.73672e-47
5.84268e-47
5.94395e-47
6.03978e-47
6.12957e-47
6.21288e-47
6.2894e-47
6.359e-47
6.42169e-47
6.47761e-47
6.52701e-47
6.57024e-47
6.60772e-47
6.63991e-47
6.6673e-47
6.69041e-47
6.70973e-47
6.72574e-47
6.73889e-47
6.74961e-47
6.75827e-47
6.76522e-47
6.77074e-47
6.7751e-47
6.77851e-47
6.78117e-47
6.78322e-47
6.7848e-47
6.78601e-47
6.78693e-47
6.78763e-47
6.78816e-47
6.78857e-47
6.78888e-47
6.78912e-47
6.78932e-47
6.78948e-47
6.78961e-47
6.78973e-47
6.78983e-47
6.78993e-47
6.79003e-47
6.79012e-47
6.79022e-47
6.79031e-47
6.79041e-47
6.79052e-47
6.79062e-47
6.79073e-47
6.79085e-47
6.79097e-47
6.7911e-47
6.79123e-47
6.79136e-47
6.79151e-47
6.79165e-47
6.79181e-47
6.79197e-47
6.79213e-47
6.79231e-47
6.79249e-47
6.79267e-47
6.79287e-47
6.79307e-47
6.79328e-47
6.7935e-47
6.79372e-47
6.79395e-47
6.79419e-47
6.79444e-47
6.79471e-47
6.795e-47
6.79536e-47
6.79585e-47
6.79669e-47
6.79774e-47
6.7981e-47
6.79839e-47
6.79859e-47
6.79873e-47
6.79881e-47
6.79887e-47
6.79892e-47
6.79897e-47
6.79906e-47
6.79919e-47
6.79939e-47
6.79965e-47
6.79997e-47
6.80036e-47
6.80081e-47
6.8013e-47
6.80182e-47
6.80237e-47
6.80293e-47
6.8035e-47
6.80407e-47
6.80464e-47
6.8052e-47
6.80575e-47
6.80629e-47
6.80684e-47
6.80737e-47
6.8079e-47
6.80844e-47
6.80897e-47
6.8095e-47
6.81004e-47
6.81058e-47
6.81112e-47
6.81167e-47
6.81223e-47
6.81279e-47
6.81336e-47
6.81394e-47
6.81453e-47
6.81513e-47
6.81573e-47
6.81634e-47
6.81695e-47
6.81757e-47
6.8182e-47
6.81883e-47
6.81945e-47
6.82008e-47
6.8207e-47
6.82132e-47
6.82193e-47
6.82253e-47
6.82312e-47
6.82369e-47
6.82425e-47
6.82479e-47
6.82532e-47
6.82581e-47
6.82629e-47
6.82674e-47
6.82716e-47
6.82756e-47
6.82792e-47
6.82826e-47
6.82856e-47
6.82882e-47
6.82905e-47
6.82926e-47
6.82947e-47
6.82985e-47
6.831e-47
6.83534e-47
6.85233e-47
6.91883e-47
7.17723e-47
8.17385e-47
1.19902e-46
2.65006e-46
8.12858e-46
2.86686e-45
1.0514e-44
3.8786e-44
1.42584e-43
5.21024e-43
1.89125e-42
6.81832e-42
2.44137e-41
8.68213e-41
3.06673e-40
1.07597e-39
3.74998e-39
1.29834e-38
4.46594e-38
1.5263e-37
5.18338e-37
1.74936e-36
5.86807e-36
1.95668e-35
6.48662e-35
2.13829e-34
7.01044e-34
2.28634e-33
7.41901e-33
2.39587e-32
7.70187e-32
2.46524e-31
7.85904e-31
2.49605e-30
7.90028e-30
2.49276e-29
7.84375e-29
2.46236e-28
7.71561e-28
2.41454e-27
7.55203e-27
2.36307e-26
7.40678e-26
2.32958e-25
7.36957e-25
2.35225e-24
7.60623e-24
2.50424e-23
8.44297e-23
2.93203e-22
1.05946e-21
3.964e-21
1.53752e-20
6.17464e-20
2.55621e-19
1.08475e-18
4.69194e-18
2.05828e-17
9.12093e-17
4.07035e-16
1.82524e-15
8.21166e-15
3.70261e-14
1.67204e-13
7.55886e-13
3.41992e-12
1.5483e-11
7.01362e-11
3.199e-10
1.47751e-09
6.88403e-09
3.23206e-08
1.55077e-07
7.96301e-07
4.74482e-06
3.23873e-05
0.000187453
0.000545367
0.000797049
0.000953344
0.00131047
0.00208229
0.00326626
0.00465913
0.00605983
0.00725788
0.00823568
0.00900802
0.00961048
0.0100802
0.0104486
0.01074
0.0109724
0.0111592
0.0113101
0.0114326
0.0115319
0.0116124
0.0116772
0.0117289
0.0117696
0.0118008
0.011824
0.0118403
0.0118505
0.0118555
0.0118559
0.0118524
0.0118453
0.0118352
0.0118223
0.0118076
0.0117913
0.0117733
0.0117539
0.011733
0.0117108
0.0116875
0.0116632
0.0116379
0.0116118
0.011585
0.0115574
0.0115293
0.0115006
0.0114714
0.0114418
0.0114117
0.0113814
0.0113507
0.0113198
0.0112886
0.0112572
0.0112257
0.011194
0.0111622
0.0111303
0.0110982
0.0110662
0.0110341
0.0110019
0.0109698
0.0109376
0.0109055
0.0108734
0.0108413
0.0108092
0.0107772
0.0107453
0.0107134
0.0106816
0.0106499
0.0106183
0.0105868
0.0105553
0.010524
0.0104928
0.0104617
0.0104307
0.0103999
0.0103691
0.0103385
0.010308
0.0102777
0.0102475
0.0102175
0.0101875
0.0101578
0.0101282
0.0100987
0.0100694
0.0100403
0.0100113
0.00998252
0.0099539
0.00992542
0.00989706
0.00986887
0.00984084
0.00981298
0.00978528
0.00975775
0.00973039
0.00970318
0.00967614
0.00964927
0.00962255
0.009596
0.00956961
0.00954337
0.0095173
0.00949138
0.00946561
0.00943999
0.00941452
0.00938921
0.00936403
0.009339
0.00931412
0.00928937
0.00926476
0.00924028
0.00921594
0.00919173
0.00916765
0.0091437
0.00911987
0.00909617
0.00907259
0.00904913
0.0090258
0.00900258
0.00897948
0.0089565
0.00893364
0.00891089
0.00888826
0.00886574
0.00884333
0.00882104
0.00879887
0.0087768
0.00875485
0.00873301
0.00871127
0.00868965
0.00866813
0.00864672
0.00862541
0.00860421
0.0085831
0.0085621
0.00854118
0.00852036
0.00849963
0.00847898
0.0084584
0.0084379
0.00841747
0.00839709
0.00837677
0.0083565
0.00833626
0.00831605
0.00829586
0.00827568
0.0082555
0.0082353
0.00821507
0.00819479
0.00817446
0.00815405
0.00813354
0.00811291
0.00809214
0.00807136
0.00805103
0.00802323
0.00800153
0.00797956
0.00795729
0.00793471
0.0079118
0.00788852
0.00786487
0.00784083
0.00781636
0.00779144
0.00776607
0.00774021
0.00771386
0.00768699
0.0076596
0.00763167
0.00760321
0.0075742
0.00754465
0.00751457
0.00748395
0.00745282
0.00742118
0.00738908
0.00735652
0.00732355
0.0072902
0.00725652
0.00722256
0.00718838
0.00715406
0.00711967
0.00708532
0.00705114
0.0070173
0.00698408
0.00695186
0.0069213
0.0068935
0.00687036
0.00685537
)
;

boundaryField
{
    boundary
    {
        type            empty;
    }
    inlet
    {
        type            fixedValue;
        value           uniform 0;
    }
    outlet
    {
        type            zeroGradient;
    }
}


// ************************************************************************* //
