/*--------------------------------*- C++ -*----------------------------------*\
  =========                 |
  \\      /  F ield         | OpenFOAM: The Open Source CFD Toolbox
   \\    /   O peration     | Website:  https://openfoam.org
    \\  /    A nd           | Version:  7
     \\/     M anipulation  |
\*---------------------------------------------------------------------------*/
FoamFile
{
    version     2.0;
    format      ascii;
    class       volScalarField;
    location    "0.00066";
    object      Qdot;
}
// * * * * * * * * * * * * * * * * * * * * * * * * * * * * * * * * * * * * * //

dimensions      [1 -1 -3 0 0 0 0];

internalField   nonuniform List<scalar> 
500
(
-2.44905e-27
-1.85574e-27
-1.72472e-27
-1.69339e-27
-1.68371e-27
-1.67901e-27
-1.67577e-27
-1.67331e-27
-1.67152e-27
-1.67037e-27
-1.66984e-27
-1.66988e-27
-1.67044e-27
-1.67146e-27
-1.67288e-27
-1.67464e-27
-1.6767e-27
-1.67905e-27
-1.68169e-27
-1.68462e-27
-1.68788e-27
-1.69152e-27
-1.69561e-27
-1.70024e-27
-1.7055e-27
-1.71151e-27
-1.71839e-27
-1.72628e-27
-1.73531e-27
-1.74564e-27
-1.7574e-27
-1.77073e-27
-1.78578e-27
-1.80265e-27
-1.82145e-27
-1.84226e-27
-1.86512e-27
-1.89005e-27
-1.91703e-27
-1.946e-27
-1.97684e-27
-2.0094e-27
-2.04349e-27
-2.07888e-27
-2.11527e-27
-2.15237e-27
-2.18984e-27
-2.22732e-27
-2.26447e-27
-2.30093e-27
-2.33637e-27
-2.37048e-27
-2.40299e-27
-2.43367e-27
-2.46233e-27
-2.48885e-27
-2.51314e-27
-2.53518e-27
-2.55497e-27
-2.57258e-27
-2.5881e-27
-2.60166e-27
-2.61338e-27
-2.62342e-27
-2.63196e-27
-2.63914e-27
-2.64514e-27
-2.6501e-27
-2.65417e-27
-2.65748e-27
-2.66016e-27
-2.6623e-27
-2.664e-27
-2.66535e-27
-2.6664e-27
-2.66722e-27
-2.66785e-27
-2.66834e-27
-2.66872e-27
-2.669e-27
-2.66922e-27
-2.66939e-27
-2.66952e-27
-2.66962e-27
-2.6697e-27
-2.66977e-27
-2.66983e-27
-2.66987e-27
-2.66992e-27
-2.66996e-27
-2.66999e-27
-2.67003e-27
-2.67007e-27
-2.6701e-27
-2.67014e-27
-2.67018e-27
-2.67021e-27
-2.67025e-27
-2.67029e-27
-2.67034e-27
-2.67038e-27
-2.67043e-27
-2.67047e-27
-2.67052e-27
-2.67057e-27
-2.67062e-27
-2.67068e-27
-2.67073e-27
-2.67079e-27
-2.67085e-27
-2.67091e-27
-2.67098e-27
-2.67104e-27
-2.67111e-27
-2.67118e-27
-2.67125e-27
-2.67133e-27
-2.67141e-27
-2.67149e-27
-2.67157e-27
-2.67166e-27
-2.67176e-27
-2.67188e-27
-2.67206e-27
-2.6724e-27
-2.67289e-27
-2.67307e-27
-2.67319e-27
-2.67326e-27
-2.6733e-27
-2.67333e-27
-2.67334e-27
-2.67335e-27
-2.67336e-27
-2.67337e-27
-2.6734e-27
-2.67345e-27
-2.67352e-27
-2.67361e-27
-2.67371e-27
-2.67384e-27
-2.67397e-27
-2.67412e-27
-2.67428e-27
-2.67444e-27
-2.67461e-27
-2.67477e-27
-2.67494e-27
-2.67511e-27
-2.67528e-27
-2.67545e-27
-2.67561e-27
-2.67578e-27
-2.67595e-27
-2.67612e-27
-2.67629e-27
-2.67647e-27
-2.67664e-27
-2.67682e-27
-2.677e-27
-2.67718e-27
-2.67736e-27
-2.67755e-27
-2.67773e-27
-2.67792e-27
-2.67811e-27
-2.67831e-27
-2.6785e-27
-2.6787e-27
-2.6789e-27
-2.6791e-27
-2.6793e-27
-2.67951e-27
-2.67971e-27
-2.67991e-27
-2.68011e-27
-2.68031e-27
-2.68051e-27
-2.6807e-27
-2.68089e-27
-2.68108e-27
-2.68126e-27
-2.68143e-27
-2.6816e-27
-2.68176e-27
-2.68192e-27
-2.68207e-27
-2.68221e-27
-2.68234e-27
-2.68246e-27
-2.68257e-27
-2.68267e-27
-2.68276e-27
-2.68283e-27
-2.6829e-27
-2.68295e-27
-2.68299e-27
-2.68301e-27
-2.68302e-27
-2.68302e-27
-2.683e-27
-2.68296e-27
-2.6829e-27
-2.68282e-27
-2.68273e-27
-2.68261e-27
-2.68247e-27
-2.6823e-27
-2.68209e-27
-2.68176e-27
-2.68109e-27
-2.67921e-27
-2.67311e-27
-2.65202e-27
-2.57802e-27
-2.31826e-27
-1.41052e-27
1.74254e-27
1.26252e-26
4.9945e-26
1.77109e-25
6.07686e-25
2.05662e-24
6.90292e-24
2.30169e-23
7.62886e-23
2.51421e-22
8.24078e-22
2.68691e-21
8.71668e-21
2.81423e-20
9.0445e-20
2.89424e-19
9.22406e-19
2.92865e-18
9.26599e-18
2.9223e-17
9.18972e-17
2.8825e-16
9.02175e-16
2.81872e-15
8.79576e-15
2.74305e-14
8.55637e-14
2.67247e-13
8.37034e-13
2.63419e-12
8.35213e-12
2.67754e-11
8.7181e-11
2.89866e-10
9.94836e-10
3.51721e-09
1.28723e-08
4.89123e-08
1.928e-07
7.85496e-07
3.29051e-06
1.40929e-05
6.13912e-05
0.000270788
0.00120573
0.00540733
0.0243957
0.110695
0.50551
2.32761
10.8411
52.8481
281.25
1769.72
12935.4
102523
917892
8.71124e+06
8.15157e+07
6.60298e+08
3.42921e+09
9.05624e+09
1.29736e+10
1.38658e+10
1.39314e+10
1.38739e+10
1.31978e+10
1.16661e+10
9.74166e+09
7.97601e+09
6.55225e+09
5.45541e+09
4.62065e+09
3.97992e+09
3.47959e+09
3.0811e+09
2.75754e+09
2.49008e+09
2.26562e+09
2.07466e+09
1.91035e+09
1.76757e+09
1.64241e+09
1.5319e+09
1.43366e+09
1.34581e+09
1.26685e+09
1.19553e+09
1.13083e+09
1.07192e+09
1.01807e+09
9.68695e+08
9.23294e+08
8.81453e+08
8.4287e+08
8.08153e+08
7.76373e+08
7.46484e+08
7.18434e+08
6.92039e+08
6.67169e+08
6.43687e+08
6.21494e+08
6.00491e+08
5.80588e+08
5.61707e+08
5.43774e+08
5.26727e+08
5.10503e+08
4.95048e+08
4.80311e+08
4.66248e+08
4.52815e+08
4.39973e+08
4.27688e+08
4.15925e+08
4.04654e+08
3.93847e+08
3.83478e+08
3.73522e+08
3.63957e+08
3.54761e+08
3.45915e+08
3.37401e+08
3.29201e+08
3.213e+08
3.13683e+08
3.06336e+08
2.99245e+08
2.92397e+08
2.85783e+08
2.79391e+08
2.73211e+08
2.67233e+08
2.61447e+08
2.55846e+08
2.50422e+08
2.45166e+08
2.40072e+08
2.35132e+08
2.30341e+08
2.25692e+08
2.2118e+08
2.16799e+08
2.12543e+08
2.08409e+08
2.0439e+08
2.00484e+08
1.96685e+08
1.92989e+08
1.89393e+08
1.85894e+08
1.82486e+08
1.79168e+08
1.75937e+08
1.72789e+08
1.69721e+08
1.66734e+08
1.63825e+08
1.60987e+08
1.58212e+08
1.55502e+08
1.52857e+08
1.50277e+08
1.47757e+08
1.45296e+08
1.42893e+08
1.40545e+08
1.38251e+08
1.36008e+08
1.33817e+08
1.31674e+08
1.29579e+08
1.2753e+08
1.25525e+08
1.23564e+08
1.21644e+08
1.19766e+08
1.17927e+08
1.16126e+08
1.14363e+08
1.12636e+08
1.10945e+08
1.09288e+08
1.07664e+08
1.06072e+08
1.04512e+08
1.02983e+08
1.01484e+08
1.00014e+08
9.85719e+07
9.71576e+07
9.57702e+07
9.44091e+07
9.30735e+07
9.17628e+07
9.04761e+07
8.92135e+07
8.79739e+07
8.67569e+07
8.55619e+07
8.43884e+07
8.32359e+07
8.2104e+07
8.09921e+07
7.98999e+07
7.88268e+07
7.77724e+07
7.67364e+07
7.57184e+07
7.47178e+07
7.37345e+07
7.27678e+07
7.1818e+07
7.0884e+07
6.99657e+07
6.90629e+07
6.81753e+07
6.73024e+07
6.64441e+07
6.56e+07
6.47699e+07
6.39534e+07
6.31504e+07
6.23605e+07
6.15834e+07
6.0819e+07
6.00669e+07
5.9327e+07
5.85991e+07
5.78829e+07
5.71773e+07
5.6484e+07
5.58016e+07
5.51302e+07
5.44701e+07
5.38223e+07
5.319e+07
5.25848e+07
5.19864e+07
5.15067e+07
5.03717e+07
4.98415e+07
4.93079e+07
4.87437e+07
4.81739e+07
4.76052e+07
4.70409e+07
4.6482e+07
4.59288e+07
4.53811e+07
4.48388e+07
4.43015e+07
4.37688e+07
4.32405e+07
4.27161e+07
4.21952e+07
4.16775e+07
4.11626e+07
4.06501e+07
4.01396e+07
3.96307e+07
3.9123e+07
3.86162e+07
3.81098e+07
3.76035e+07
3.70969e+07
3.65898e+07
3.60815e+07
3.5572e+07
3.50608e+07
3.45478e+07
3.40326e+07
3.35148e+07
3.29939e+07
3.24691e+07
3.19394e+07
3.14023e+07
3.08552e+07
3.02951e+07
2.97191e+07
2.91453e+07
2.86895e+07
)
;

boundaryField
{
    boundary
    {
        type            empty;
    }
    inlet
    {
        type            calculated;
        value           uniform 0;
    }
    outlet
    {
        type            calculated;
        value           uniform 0;
    }
}


// ************************************************************************* //
