/*--------------------------------*- C++ -*----------------------------------*\
  =========                 |
  \\      /  F ield         | OpenFOAM: The Open Source CFD Toolbox
   \\    /   O peration     | Website:  https://openfoam.org
    \\  /    A nd           | Version:  7
     \\/     M anipulation  |
\*---------------------------------------------------------------------------*/
FoamFile
{
    version     2.0;
    format      ascii;
    class       volScalarField;
    location    "0.00066";
    object      T;
}
// * * * * * * * * * * * * * * * * * * * * * * * * * * * * * * * * * * * * * //

dimensions      [0 0 0 1 0 0 0];

internalField   nonuniform List<scalar> 
500
(
299.996
299.989
299.981
299.974
299.966
299.96
299.954
299.949
299.945
299.943
299.942
299.942
299.943
299.945
299.947
299.951
299.955
299.959
299.965
299.97
299.977
299.984
299.992
300.001
300.011
300.023
300.036
300.052
300.069
300.088
300.111
300.136
300.164
300.195
300.229
300.267
300.308
300.352
300.399
300.449
300.501
300.556
300.612
300.669
300.727
300.785
300.843
300.899
300.955
301.008
301.06
301.108
301.154
301.197
301.236
301.273
301.305
301.335
301.361
301.385
301.405
301.423
301.438
301.451
301.463
301.472
301.48
301.486
301.491
301.496
301.499
301.502
301.504
301.506
301.507
301.508
301.509
301.51
301.51
301.511
301.511
301.511
301.511
301.512
301.512
301.512
301.512
301.512
301.512
301.512
301.512
301.512
301.512
301.512
301.512
301.512
301.512
301.512
301.512
301.512
301.512
301.513
301.513
301.513
301.513
301.513
301.513
301.513
301.513
301.513
301.513
301.513
301.513
301.513
301.513
301.514
301.514
301.514
301.514
301.514
301.514
301.514
301.514
301.515
301.515
301.516
301.516
301.516
301.516
301.516
301.516
301.516
301.516
301.516
301.516
301.516
301.516
301.516
301.517
301.517
301.517
301.517
301.517
301.517
301.518
301.518
301.518
301.518
301.518
301.519
301.519
301.519
301.519
301.519
301.52
301.52
301.52
301.52
301.521
301.521
301.521
301.521
301.521
301.522
301.522
301.522
301.522
301.523
301.523
301.523
301.523
301.524
301.524
301.524
301.524
301.525
301.525
301.525
301.525
301.526
301.526
301.526
301.526
301.527
301.527
301.527
301.527
301.527
301.527
301.528
301.528
301.528
301.528
301.528
301.528
301.528
301.528
301.528
301.528
301.528
301.528
301.528
301.528
301.528
301.528
301.528
301.528
301.527
301.527
301.527
301.527
301.526
301.526
301.526
301.525
301.525
301.524
301.524
301.523
301.522
301.522
301.521
301.52
301.52
301.519
301.518
301.517
301.516
301.515
301.514
301.513
301.512
301.51
301.509
301.508
301.506
301.505
301.503
301.502
301.5
301.499
301.497
301.495
301.493
301.491
301.489
301.487
301.485
301.483
301.481
301.479
301.477
301.475
301.473
301.47
301.468
301.465
301.462
301.46
301.457
301.454
301.451
301.448
301.445
301.443
301.44
301.439
301.44
301.448
301.477
301.565
301.817
302.535
304.572
310.33
326.298
367.185
452.776
585.249
739.32
892.14
1036.67
1169.83
1286.14
1383.31
1463.21
1527.44
1580.02
1624.22
1662.04
1694.94
1723.95
1749.85
1773.19
1794.39
1813.78
1831.61
1848.09
1863.39
1877.65
1890.97
1903.47
1915.22
1926.31
1936.78
1946.7
1956.11
1965.05
1973.57
1981.7
1989.45
1996.85
2003.72
2010.19
2016.46
2022.52
2028.38
2034.05
2039.55
2044.89
2050.07
2055.09
2059.98
2064.73
2069.35
2073.85
2078.23
2082.5
2086.66
2090.72
2094.68
2098.54
2102.32
2106.01
2109.61
2113.14
2116.58
2119.95
2123.25
2126.49
2129.65
2132.75
2135.79
2138.77
2141.69
2144.55
2147.36
2150.11
2152.82
2155.48
2158.08
2160.65
2163.16
2165.64
2168.07
2170.46
2172.8
2175.11
2177.39
2179.62
2181.82
2183.99
2186.12
2188.22
2190.28
2192.32
2194.32
2196.29
2198.24
2200.16
2202.05
2203.91
2205.75
2207.56
2209.34
2211.1
2212.84
2214.56
2216.25
2217.93
2219.58
2221.21
2222.82
2224.41
2225.98
2227.53
2229.06
2230.57
2232.07
2233.55
2235.01
2236.45
2237.88
2239.29
2240.68
2242.06
2243.42
2244.76
2246.1
2247.41
2248.71
2250
2251.27
2252.53
2253.78
2255.01
2256.22
2257.43
2258.62
2259.8
2260.97
2262.12
2263.26
2264.39
2265.51
2266.62
2267.71
2268.8
2269.87
2270.93
2271.98
2273.02
2274.06
2275.08
2276.09
2277.09
2278.08
2279.06
2280.04
2281
2281.95
2282.9
2283.83
2284.76
2285.68
2286.59
2287.49
2288.38
2289.26
2290.14
2291
2291.86
2292.7
2293.54
2294.36
2295.18
2295.99
2296.78
2297.57
2298.34
2299.1
2299.85
2300.59
2301.31
2302.02
2302.72
2303.41
2304.1
2304.93
2305.63
2306.27
2306.89
2307.49
2308.08
2308.66
2309.22
2309.76
2310.28
2310.79
2311.28
2311.76
2312.22
2312.66
2313.09
2313.51
2313.91
2314.3
2314.69
2315.06
2315.43
2315.79
2316.15
2316.51
2316.88
2317.25
2317.63
2318.02
2318.43
2318.86
2319.32
2319.8
2320.31
2320.86
2321.44
2322.06
2322.71
2323.39
2324.07
2324.68
2325.09
)
;

boundaryField
{
    boundary
    {
        type            empty;
    }
    inlet
    {
        type            fixedValue;
        value           uniform 300;
    }
    outlet
    {
        type            zeroGradient;
    }
}


// ************************************************************************* //
