/*--------------------------------*- C++ -*----------------------------------*\
  =========                 |
  \\      /  F ield         | OpenFOAM: The Open Source CFD Toolbox
   \\    /   O peration     | Website:  https://openfoam.org
    \\  /    A nd           | Version:  7
     \\/     M anipulation  |
\*---------------------------------------------------------------------------*/
FoamFile
{
    version     2.0;
    format      ascii;
    class       volScalarField;
    location    "0.00019";
    object      H2;
}
// * * * * * * * * * * * * * * * * * * * * * * * * * * * * * * * * * * * * * //

dimensions      [0 0 0 0 0 0 0];

internalField   nonuniform List<scalar> 
500
(
0.0285116
0.0285116
0.0285116
0.0285116
0.0285116
0.0285116
0.0285116
0.0285116
0.0285116
0.0285116
0.0285116
0.0285116
0.0285116
0.0285116
0.0285116
0.0285116
0.0285116
0.0285116
0.0285116
0.0285116
0.0285116
0.0285116
0.0285116
0.0285116
0.0285116
0.0285116
0.0285116
0.0285116
0.0285116
0.0285116
0.0285116
0.0285116
0.0285116
0.0285116
0.0285116
0.0285116
0.0285116
0.0285116
0.0285116
0.0285116
0.0285116
0.0285116
0.0285116
0.0285116
0.0285116
0.0285116
0.0285116
0.0285116
0.0285116
0.0285116
0.0285116
0.0285116
0.0285116
0.0285116
0.0285116
0.0285116
0.0285116
0.0285116
0.0285116
0.0285116
0.0285116
0.0285116
0.0285116
0.0285116
0.0285116
0.0285116
0.0285116
0.0285116
0.0285116
0.0285116
0.0285116
0.0285116
0.0285116
0.0285116
0.0285116
0.0285116
0.0285116
0.0285116
0.0285116
0.0285116
0.0285116
0.0285116
0.0285116
0.0285116
0.0285116
0.0285116
0.0285116
0.0285116
0.0285116
0.0285116
0.0285116
0.0285116
0.0285116
0.0285116
0.0285116
0.0285116
0.0285116
0.0285116
0.0285116
0.0285116
0.0285116
0.0285116
0.0285116
0.0285116
0.0285116
0.0285116
0.0285116
0.0285116
0.0285116
0.0285116
0.0285116
0.0285116
0.0285116
0.0285116
0.0285116
0.0285116
0.0285116
0.0285116
0.0285116
0.0285116
0.0285116
0.0285116
0.0285116
0.0285116
0.0285116
0.0285116
0.0285116
0.0285116
0.0285116
0.0285116
0.0285116
0.0285116
0.0285116
0.0285116
0.0285116
0.0285116
0.0285116
0.0285116
0.0285116
0.0285116
0.0285116
0.0285116
0.0285116
0.0285116
0.0285116
0.0285116
0.0285116
0.0285116
0.0285116
0.0285116
0.0285116
0.0285116
0.0285116
0.0285116
0.0285116
0.0285116
0.0285116
0.0285116
0.0285116
0.0285116
0.0285116
0.0285116
0.0285116
0.0285116
0.0285116
0.0285116
0.0285116
0.0285116
0.0285116
0.0285116
0.0285116
0.0285116
0.0285116
0.0285116
0.0285116
0.0285116
0.0285116
0.0285116
0.0285116
0.0285116
0.0285116
0.0285116
0.0285116
0.0285116
0.0285116
0.0285116
0.0285116
0.0285116
0.0285116
0.0285116
0.0285116
0.0285116
0.0285116
0.0285116
0.0285116
0.0285116
0.0285116
0.0285116
0.0285116
0.0285116
0.0285116
0.0285116
0.0285116
0.0285116
0.0285116
0.0285116
0.0285116
0.0285116
0.0285116
0.0285116
0.0285116
0.0285116
0.0285116
0.0285116
0.0285116
0.0285116
0.0285116
0.0285116
0.0285116
0.0285116
0.0285116
0.0285116
0.0285116
0.0285116
0.0285116
0.0285116
0.0285116
0.0285116
0.0285116
0.0285116
0.0285116
0.0285116
0.0285116
0.0285116
0.0285116
0.0285116
0.0285116
0.0285116
0.0285116
0.0285116
0.0285116
0.0285116
0.0285116
0.0285116
0.0285116
0.0285116
0.0285116
0.0285116
0.0285116
0.0285116
0.0285116
0.0285116
0.0285116
0.0285116
0.0285116
0.0285116
0.0285116
0.0285116
0.0285116
0.0285116
0.0285116
0.0285116
0.0285116
0.0285116
0.0285116
0.0285115
0.0285114
0.0285113
0.0285108
0.0285099
0.0285079
0.0285035
0.0284941
0.0284741
0.0284317
0.0283427
0.028158
0.0277851
0.0270735
0.0258467
0.0240018
0.0216413
0.018925
0.0159362
0.0128684
0.0100833
0.00788556
0.00631788
0.00530206
0.00466328
0.0042691
0.0040263
0.00387469
0.00377709
0.00371113
0.00366354
0.00362656
0.00359568
0.0035683
0.00354295
0.00351882
0.00349546
0.00347267
0.00345033
0.00342844
0.00340698
0.00338599
0.00336549
0.00334552
0.0033261
0.00330726
0.00328903
0.00327196
0.00325587
0.00324033
0.00322534
0.00321093
0.00319708
0.00318383
0.00317116
0.0031591
0.00314764
0.00313679
0.00312656
0.00311694
0.00310793
0.00309953
0.00309173
0.00308454
0.00307793
0.00307189
0.00306641
0.00306147
0.00305704
0.00305311
0.00304963
0.00304657
0.0030439
0.00304157
0.00303954
0.00303775
0.00303616
0.00303469
0.00303329
0.0030319
0.00303044
0.00302884
0.00302703
0.00302492
0.00302245
0.00301953
0.00301609
0.00301204
0.0030073
0.00300181
0.00299548
0.00298824
0.00298003
0.00297079
0.00296045
0.00294897
0.00293629
0.00292237
0.00290719
0.00289072
0.00287293
0.00285381
0.00283336
0.00281158
0.0027885
0.00276411
0.00273846
0.00271159
0.00268354
0.0026544
0.00262426
0.00259215
0.00255995
0.00252675
0.00249266
0.00245777
0.00242218
0.00238599
0.00234927
0.00231214
0.00227467
0.00223697
0.00219913
0.00216125
0.00212343
0.00208577
0.00204834
0.00201126
0.0019746
0.00193845
0.0019029
0.00186801
0.00183386
0.00180051
0.00176803
0.00173647
0.00170588
0.00167629
0.00164775
0.00162029
0.00159391
0.00156865
0.00154452
0.00152151
0.00149963
0.00147887
0.00145922
0.00144066
0.00142318
0.00140674
0.00139134
0.00137692
0.00136347
0.00135094
0.0013393
0.00132852
0.00131855
0.00130935
0.00130088
0.00129311
0.00128598
0.00127948
0.00127354
0.00126814
0.00126324
0.00125881
0.0012548
0.00125119
0.00124794
0.00124503
0.00124243
0.0012401
0.00123803
0.00123619
0.00123456
0.00123312
0.00123185
0.00123073
0.00122975
0.0012289
0.00122815
0.00122749
0.00122693
0.00122644
0.00122602
0.00122565
0.00122534
0.00122507
0.00122484
0.00122465
0.00122448
0.00122434
0.00122422
0.00122413
0.00122404
0.00122398
0.00122392
0.00122387
0.00122384
0.00122381
0.00122378
0.00122376
0.00122375
0.00122374
0.00122373
0.00122372
0.00122372
0.00122372
0.00122372
0.00122372
0.00122372
0.00122372
0.00122372
0.00122373
0.00122373
0.00122373
0.00122374
0.00122374
0.00122375
0.00122375
0.00122375
0.00122376
0.00122376
0.00122377
0.00122377
0.00122377
0.00122378
0.00122378
0.00122378
0.00122379
0.00122379
0.00122379
0.00122379
0.0012238
0.0012238
)
;

boundaryField
{
    boundary
    {
        type            empty;
    }
    inlet
    {
        type            fixedValue;
        value           uniform 0.0285116;
    }
    outlet
    {
        type            zeroGradient;
    }
}


// ************************************************************************* //
