/*--------------------------------*- C++ -*----------------------------------*\
  =========                 |
  \\      /  F ield         | OpenFOAM: The Open Source CFD Toolbox
   \\    /   O peration     | Website:  https://openfoam.org
    \\  /    A nd           | Version:  7
     \\/     M anipulation  |
\*---------------------------------------------------------------------------*/
FoamFile
{
    version     2.0;
    format      ascii;
    class       volScalarField;
    location    "0.00019";
    object      N2;
}
// * * * * * * * * * * * * * * * * * * * * * * * * * * * * * * * * * * * * * //

dimensions      [0 0 0 0 0 0 0];

internalField   nonuniform List<scalar> 
500
(
0.745219
0.745219
0.745219
0.745219
0.745219
0.745219
0.745219
0.745219
0.745219
0.745219
0.745219
0.745219
0.74522
0.74522
0.74522
0.74522
0.74522
0.74522
0.74522
0.74522
0.74522
0.74522
0.74522
0.74522
0.74522
0.74522
0.74522
0.74522
0.74522
0.74522
0.74522
0.74522
0.74522
0.74522
0.74522
0.74522
0.74522
0.74522
0.74522
0.74522
0.74522
0.74522
0.74522
0.74522
0.74522
0.74522
0.74522
0.74522
0.74522
0.74522
0.74522
0.74522
0.74522
0.74522
0.74522
0.74522
0.74522
0.74522
0.74522
0.74522
0.74522
0.74522
0.74522
0.74522
0.74522
0.74522
0.74522
0.74522
0.74522
0.74522
0.74522
0.74522
0.74522
0.74522
0.74522
0.74522
0.74522
0.74522
0.74522
0.74522
0.74522
0.74522
0.74522
0.74522
0.74522
0.74522
0.74522
0.74522
0.74522
0.74522
0.74522
0.74522
0.74522
0.74522
0.74522
0.74522
0.74522
0.74522
0.74522
0.74522
0.74522
0.74522
0.74522
0.74522
0.74522
0.74522
0.74522
0.74522
0.74522
0.74522
0.74522
0.74522
0.74522
0.74522
0.74522
0.74522
0.74522
0.74522
0.74522
0.74522
0.74522
0.74522
0.74522
0.74522
0.74522
0.74522
0.74522
0.74522
0.74522
0.74522
0.74522
0.74522
0.74522
0.74522
0.74522
0.74522
0.74522
0.74522
0.74522
0.74522
0.74522
0.74522
0.74522
0.74522
0.74522
0.74522
0.74522
0.74522
0.74522
0.74522
0.74522
0.74522
0.74522
0.74522
0.74522
0.74522
0.74522
0.74522
0.74522
0.74522
0.74522
0.74522
0.74522
0.74522
0.74522
0.74522
0.74522
0.74522
0.74522
0.74522
0.74522
0.74522
0.74522
0.74522
0.74522
0.74522
0.74522
0.74522
0.74522
0.74522
0.74522
0.74522
0.74522
0.74522
0.74522
0.74522
0.74522
0.74522
0.74522
0.74522
0.74522
0.74522
0.74522
0.74522
0.74522
0.74522
0.74522
0.74522
0.74522
0.74522
0.74522
0.74522
0.74522
0.74522
0.74522
0.74522
0.74522
0.74522
0.74522
0.74522
0.74522
0.74522
0.74522
0.74522
0.74522
0.74522
0.74522
0.74522
0.74522
0.74522
0.74522
0.74522
0.74522
0.74522
0.74522
0.74522
0.74522
0.74522
0.74522
0.74522
0.74522
0.74522
0.74522
0.74522
0.74522
0.74522
0.74522
0.74522
0.74522
0.74522
0.74522
0.74522
0.74522
0.74522
0.74522
0.74522
0.74522
0.74522
0.74522
0.74522
0.74522
0.74522
0.74522
0.74522
0.74522
0.74522
0.74522
0.74522
0.74522
0.74522
0.74522
0.74522
0.74522
0.74522
0.74522
0.74522
0.74522
0.74522
0.74522
0.745221
0.745222
0.745225
0.745232
0.745246
0.745275
0.745329
0.745424
0.745552
0.745627
0.745492
0.745158
0.744683
0.744111
0.743675
0.743607
0.743873
0.744236
0.744614
0.744864
0.745033
0.74514
0.745206
0.745245
0.745267
0.74528
0.745286
0.745288
0.745287
0.745285
0.745281
0.745275
0.745269
0.745262
0.745254
0.745246
0.745237
0.745229
0.74522
0.745211
0.745202
0.745193
0.745184
0.745176
0.745168
0.745161
0.745154
0.745148
0.745142
0.745137
0.745132
0.745129
0.745127
0.745126
0.745126
0.745128
0.745132
0.745137
0.745144
0.745153
0.745164
0.745177
0.745193
0.74521
0.74523
0.745252
0.745277
0.745303
0.745332
0.745362
0.745394
0.745428
0.745463
0.745498
0.745535
0.745572
0.745608
0.745645
0.745681
0.745716
0.745749
0.74578
0.745809
0.745836
0.745859
0.745879
0.745896
0.745909
0.745918
0.745923
0.745923
0.745919
0.745911
0.745898
0.745882
0.745861
0.745836
0.745807
0.745775
0.74574
0.745702
0.745662
0.74562
0.745577
0.745534
0.745492
0.745451
0.745397
0.745352
0.745307
0.745263
0.745221
0.74518
0.745141
0.745104
0.745069
0.745037
0.745007
0.744979
0.744954
0.744932
0.744912
0.744895
0.744881
0.74487
0.744862
0.744856
0.744852
0.744851
0.744852
0.744856
0.744861
0.744867
0.744876
0.744885
0.744896
0.744908
0.74492
0.744934
0.744947
0.744961
0.744975
0.744989
0.745004
0.745018
0.745031
0.745045
0.745058
0.74507
0.745082
0.745093
0.745104
0.745114
0.745124
0.745133
0.745141
0.745149
0.745156
0.745163
0.745169
0.745174
0.745179
0.745184
0.745188
0.745192
0.745195
0.745198
0.745201
0.745203
0.745205
0.745207
0.745209
0.74521
0.745211
0.745213
0.745213
0.745214
0.745215
0.745216
0.745216
0.745217
0.745217
0.745218
0.745218
0.745218
0.745218
0.745219
0.745219
0.745219
0.745219
0.745219
0.745219
0.745219
0.745219
0.745219
0.745219
0.745219
0.745219
0.745219
0.745219
0.745219
0.745219
0.745219
0.745219
0.745219
0.745219
0.745219
0.74522
0.74522
0.74522
0.74522
0.74522
0.74522
0.74522
0.74522
0.74522
0.74522
0.74522
0.74522
0.74522
0.74522
0.74522
0.74522
0.74522
0.74522
0.74522
0.74522
0.74522
0.74522
0.74522
0.74522
)
;

boundaryField
{
    boundary
    {
        type            empty;
    }
    inlet
    {
        type            fixedValue;
        value           uniform 0.74522;
    }
    outlet
    {
        type            zeroGradient;
    }
}


// ************************************************************************* //
