/*--------------------------------*- C++ -*----------------------------------*\
  =========                 |
  \\      /  F ield         | OpenFOAM: The Open Source CFD Toolbox
   \\    /   O peration     | Website:  https://openfoam.org
    \\  /    A nd           | Version:  7
     \\/     M anipulation  |
\*---------------------------------------------------------------------------*/
FoamFile
{
    version     2.0;
    format      ascii;
    class       volScalarField;
    location    "0.00019";
    object      OH;
}
// * * * * * * * * * * * * * * * * * * * * * * * * * * * * * * * * * * * * * //

dimensions      [0 0 0 0 0 0 0];

internalField   nonuniform List<scalar> 
500
(
9.45268e-48
1.85516e-47
2.49631e-47
2.95612e-47
3.29933e-47
3.57101e-47
3.80206e-47
4.01339e-47
4.21852e-47
4.42511e-47
4.63609e-47
4.85052e-47
5.06463e-47
5.273e-47
5.46965e-47
5.64919e-47
5.80757e-47
5.94255e-47
6.05373e-47
6.1423e-47
6.21062e-47
6.2617e-47
6.29878e-47
6.32493e-47
6.34288e-47
6.35487e-47
6.36268e-47
6.36765e-47
6.37073e-47
6.37261e-47
6.37372e-47
6.37436e-47
6.37473e-47
6.37494e-47
6.37505e-47
6.37512e-47
6.37515e-47
6.37518e-47
6.37519e-47
6.3752e-47
6.37521e-47
6.37522e-47
6.37523e-47
6.37524e-47
6.37526e-47
6.37527e-47
6.37529e-47
6.37531e-47
6.37533e-47
6.37535e-47
6.37537e-47
6.3754e-47
6.37543e-47
6.37546e-47
6.37549e-47
6.37553e-47
6.37557e-47
6.37561e-47
6.37566e-47
6.37571e-47
6.37576e-47
6.37581e-47
6.37587e-47
6.37594e-47
6.376e-47
6.37607e-47
6.37615e-47
6.37623e-47
6.37631e-47
6.3764e-47
6.3765e-47
6.3766e-47
6.3767e-47
6.37681e-47
6.37693e-47
6.37705e-47
6.37718e-47
6.37731e-47
6.37745e-47
6.3776e-47
6.37775e-47
6.37791e-47
6.37808e-47
6.37826e-47
6.37844e-47
6.37863e-47
6.37882e-47
6.37903e-47
6.37924e-47
6.37946e-47
6.37969e-47
6.37992e-47
6.38017e-47
6.38042e-47
6.38068e-47
6.38095e-47
6.38123e-47
6.38152e-47
6.38181e-47
6.38212e-47
6.38243e-47
6.38275e-47
6.38309e-47
6.38343e-47
6.38378e-47
6.38414e-47
6.38451e-47
6.38488e-47
6.38527e-47
6.38567e-47
6.38607e-47
6.38648e-47
6.38691e-47
6.38734e-47
6.38778e-47
6.38822e-47
6.38868e-47
6.38914e-47
6.38961e-47
6.39009e-47
6.39056e-47
6.39104e-47
6.39152e-47
6.39196e-47
6.39235e-47
6.39266e-47
6.39309e-47
6.39349e-47
6.39387e-47
6.39425e-47
6.39463e-47
6.39502e-47
6.39544e-47
6.3959e-47
6.39641e-47
6.39698e-47
6.3976e-47
6.39827e-47
6.39897e-47
6.39968e-47
6.40039e-47
6.40108e-47
6.40175e-47
6.40239e-47
6.403e-47
6.40358e-47
6.40413e-47
6.40465e-47
6.40514e-47
6.40561e-47
6.40606e-47
6.40649e-47
6.40689e-47
6.40727e-47
6.40763e-47
6.40797e-47
6.40828e-47
6.40856e-47
6.40881e-47
6.40904e-47
6.40923e-47
6.40938e-47
6.4095e-47
6.40958e-47
6.40962e-47
6.40961e-47
6.40956e-47
6.40946e-47
6.40931e-47
6.40911e-47
6.40885e-47
6.40854e-47
6.40816e-47
6.40772e-47
6.40722e-47
6.40664e-47
6.406e-47
6.40528e-47
6.40449e-47
6.40362e-47
6.40266e-47
6.40162e-47
6.40049e-47
6.39928e-47
6.39796e-47
6.39656e-47
6.39505e-47
6.39344e-47
6.39173e-47
6.38991e-47
6.38798e-47
6.38594e-47
6.38378e-47
6.38151e-47
6.37912e-47
6.3766e-47
6.37397e-47
6.3712e-47
6.36831e-47
6.3653e-47
6.36215e-47
6.35886e-47
6.35545e-47
6.3519e-47
6.34821e-47
6.34439e-47
6.34043e-47
6.33633e-47
6.3321e-47
6.32773e-47
6.32322e-47
6.31858e-47
6.3138e-47
6.30888e-47
6.30384e-47
6.29867e-47
6.29344e-47
6.28857e-47
6.28734e-47
6.31432e-47
6.55193e-47
8.34145e-47
2.14375e-46
1.16016e-45
7.91414e-45
5.56143e-44
3.88765e-43
2.68952e-42
1.83987e-41
1.2443e-40
8.31805e-40
5.49559e-39
3.5879e-38
2.31438e-37
1.4748e-36
9.28263e-36
5.77015e-35
3.54177e-34
2.14641e-33
1.28414e-32
7.5835e-32
4.4202e-31
2.54269e-30
1.44343e-29
8.08599e-29
4.46988e-28
2.43831e-27
1.3126e-26
6.97361e-26
3.65698e-25
1.89322e-24
9.69478e-24
4.89618e-23
2.44271e-22
1.2047e-21
5.87685e-21
2.83773e-20
1.35746e-19
6.43942e-19
3.03262e-18
1.41968e-17
6.61516e-17
3.07219e-16
1.42381e-15
6.59188e-15
3.05102e-14
1.41231e-13
6.5385e-13
3.02661e-12
1.40001e-11
6.46724e-11
2.99907e-10
1.40408e-09
6.61001e-09
3.12509e-08
1.50412e-07
7.71443e-07
4.58335e-06
3.13637e-05
0.00018379
0.000542713
0.000797351
0.000952951
0.00130776
0.00207794
0.00326248
0.00465705
0.00605299
0.0072517
0.00823029
0.00900315
0.00960588
0.0100756
0.0104438
0.0107346
0.0109663
0.0111521
0.0113017
0.0114225
0.0115199
0.0115981
0.0116602
0.0117087
0.0117456
0.0117726
0.0117909
0.0118017
0.0118056
0.0118036
0.0117962
0.0117838
0.011767
0.0117468
0.0117237
0.0116973
0.0116678
0.0116354
0.0116001
0.011562
0.0115212
0.0114778
0.0114318
0.0113833
0.0113325
0.0112792
0.0112237
0.011166
0.0111061
0.0110442
0.0109804
0.0109147
0.0108474
0.0107786
0.0107083
0.0106369
0.0105644
0.0104912
0.0104173
0.010343
0.0102686
0.0101942
0.0101201
0.0100466
0.00997389
0.00990215
0.00983161
0.00976247
0.0096949
0.00962906
0.00956508
0.00950306
0.00944306
0.00938514
0.00932928
0.00927547
0.00922365
0.00917371
0.00912554
0.00907898
0.00903385
0.00898994
0.00894704
0.00890489
0.00886326
0.00882187
0.00878047
0.00873879
0.00869659
0.0086536
0.00860961
0.00856439
0.00851773
0.00846947
0.00841943
0.00836752
0.00831374
0.00825829
0.00820097
0.00814179
0.00808084
0.0080182
0.00795401
0.00788841
0.00782157
0.00775367
0.0076849
0.00761545
0.00754553
0.00747533
0.00740507
0.00733493
0.00726514
0.00719586
0.00712731
0.00705964
0.00699305
0.00692767
0.00686367
0.00680117
0.0067403
0.00668117
0.00662387
0.00656849
0.0065151
0.00646375
0.00641448
0.00636732
0.0063223
0.00627942
0.00623867
0.00620004
0.00616352
0.00612906
0.00609663
0.00606618
0.00603766
0.00601101
0.00598617
0.00596306
0.00594163
0.00592179
0.00590347
0.00588659
0.00587109
0.00585687
0.00584388
0.00583202
0.00582122
0.00581143
0.00580255
0.00579453
0.00578731
0.00578081
0.00577499
0.00576978
0.00576513
0.00576099
0.00575732
0.00575407
0.0057512
0.00574868
0.00574646
0.00574452
0.00574283
0.00574135
0.00574008
0.00573897
0.00573802
0.00573721
0.00573651
0.00573592
0.00573543
0.00573501
0.00573466
0.00573437
0.00573413
0.00573394
0.00573379
0.00573366
0.00573357
0.0057335
0.00573346
0.00573342
0.00573341
0.0057334
0.00573341
0.00573343
0.00573345
0.00573348
0.00573351
0.00573354
0.00573358
0.00573363
0.00573367
0.00573371
0.00573376
0.00573381
0.00573385
0.0057339
0.00573395
0.005734
0.00573404
0.00573409
0.00573414
0.00573418
0.00573423
0.00573427
0.00573431
0.00573436
0.0057344
0.00573444
0.00573448
0.00573452
0.00573455
0.00573459
0.00573462
0.00573466
0.00573469
0.00573471
0.00573473
)
;

boundaryField
{
    boundary
    {
        type            empty;
    }
    inlet
    {
        type            fixedValue;
        value           uniform 0;
    }
    outlet
    {
        type            zeroGradient;
    }
}


// ************************************************************************* //
