/*--------------------------------*- C++ -*----------------------------------*\
  =========                 |
  \\      /  F ield         | OpenFOAM: The Open Source CFD Toolbox
   \\    /   O peration     | Website:  https://openfoam.org
    \\  /    A nd           | Version:  7
     \\/     M anipulation  |
\*---------------------------------------------------------------------------*/
FoamFile
{
    version     2.0;
    format      ascii;
    class       surfaceScalarField;
    location    "0.00019";
    object      phi;
}
// * * * * * * * * * * * * * * * * * * * * * * * * * * * * * * * * * * * * * //

dimensions      [1 0 -1 0 0 0 0];

internalField   nonuniform List<scalar> 
499
(
6.92614e-06
6.92562e-06
6.92492e-06
6.924e-06
6.92283e-06
6.92139e-06
6.91969e-06
6.91772e-06
6.91549e-06
6.91302e-06
6.91036e-06
6.90758e-06
6.90478e-06
6.90204e-06
6.89944e-06
6.89706e-06
6.89493e-06
6.89309e-06
6.89153e-06
6.89023e-06
6.88917e-06
6.8883e-06
6.88759e-06
6.88701e-06
6.88653e-06
6.88611e-06
6.88574e-06
6.8854e-06
6.88509e-06
6.88478e-06
6.88448e-06
6.88419e-06
6.8839e-06
6.88361e-06
6.88332e-06
6.88303e-06
6.88273e-06
6.88243e-06
6.88214e-06
6.88184e-06
6.88153e-06
6.88123e-06
6.88092e-06
6.88061e-06
6.8803e-06
6.87999e-06
6.87968e-06
6.87936e-06
6.87904e-06
6.87872e-06
6.87839e-06
6.87806e-06
6.87774e-06
6.8774e-06
6.87707e-06
6.87673e-06
6.8764e-06
6.87605e-06
6.87571e-06
6.87536e-06
6.87502e-06
6.87467e-06
6.87431e-06
6.87396e-06
6.8736e-06
6.87324e-06
6.87288e-06
6.87251e-06
6.87214e-06
6.87177e-06
6.8714e-06
6.87103e-06
6.87065e-06
6.87027e-06
6.86989e-06
6.8695e-06
6.86912e-06
6.86873e-06
6.86834e-06
6.86794e-06
6.86755e-06
6.86715e-06
6.86675e-06
6.86635e-06
6.86594e-06
6.86554e-06
6.86513e-06
6.86472e-06
6.8643e-06
6.86389e-06
6.86347e-06
6.86305e-06
6.86263e-06
6.86221e-06
6.86178e-06
6.86135e-06
6.86092e-06
6.86049e-06
6.86006e-06
6.85962e-06
6.85918e-06
6.85874e-06
6.8583e-06
6.85786e-06
6.85741e-06
6.85697e-06
6.85652e-06
6.85606e-06
6.85561e-06
6.85516e-06
6.8547e-06
6.85424e-06
6.85378e-06
6.85331e-06
6.85285e-06
6.85238e-06
6.85191e-06
6.85144e-06
6.85097e-06
6.8505e-06
6.85002e-06
6.84954e-06
6.84906e-06
6.84858e-06
6.84809e-06
6.84761e-06
6.84712e-06
6.84663e-06
6.84614e-06
6.84565e-06
6.84515e-06
6.84465e-06
6.84415e-06
6.84365e-06
6.84315e-06
6.84264e-06
6.84213e-06
6.84162e-06
6.84111e-06
6.84059e-06
6.84007e-06
6.83955e-06
6.83903e-06
6.83851e-06
6.83799e-06
6.83746e-06
6.83693e-06
6.8364e-06
6.83587e-06
6.83534e-06
6.8348e-06
6.83427e-06
6.83373e-06
6.83319e-06
6.83265e-06
6.83211e-06
6.83156e-06
6.83102e-06
6.83047e-06
6.82992e-06
6.82938e-06
6.82883e-06
6.82828e-06
6.82772e-06
6.82717e-06
6.82662e-06
6.82607e-06
6.82551e-06
6.82496e-06
6.8244e-06
6.82385e-06
6.82329e-06
6.82273e-06
6.82218e-06
6.82162e-06
6.82107e-06
6.82051e-06
6.81996e-06
6.8194e-06
6.81885e-06
6.81829e-06
6.81774e-06
6.81719e-06
6.81664e-06
6.81609e-06
6.81554e-06
6.81499e-06
6.81444e-06
6.8139e-06
6.81335e-06
6.81281e-06
6.81227e-06
6.81173e-06
6.81119e-06
6.81065e-06
6.81012e-06
6.80959e-06
6.80906e-06
6.80853e-06
6.808e-06
6.80748e-06
6.80696e-06
6.80644e-06
6.80592e-06
6.80541e-06
6.8049e-06
6.80439e-06
6.80388e-06
6.80337e-06
6.80287e-06
6.80237e-06
6.80188e-06
6.80138e-06
6.80089e-06
6.8004e-06
6.79991e-06
6.79943e-06
6.79895e-06
6.79847e-06
6.798e-06
6.79753e-06
6.79706e-06
6.79659e-06
6.79613e-06
6.79566e-06
6.79521e-06
6.79475e-06
6.7943e-06
6.79385e-06
6.7934e-06
6.79295e-06
6.79251e-06
6.79207e-06
6.79163e-06
6.7912e-06
6.79077e-06
6.79034e-06
6.78991e-06
6.78948e-06
6.78906e-06
6.78864e-06
6.78822e-06
6.78781e-06
6.78739e-06
6.78698e-06
6.78657e-06
6.78617e-06
6.78576e-06
6.78536e-06
6.78496e-06
6.78457e-06
6.78417e-06
6.78378e-06
6.78339e-06
6.78301e-06
6.78262e-06
6.78224e-06
6.78187e-06
6.78149e-06
6.78112e-06
6.78075e-06
6.78038e-06
6.78001e-06
6.77965e-06
6.77929e-06
6.77894e-06
6.77858e-06
6.77823e-06
6.77789e-06
6.77755e-06
6.77724e-06
6.77697e-06
6.77686e-06
6.77718e-06
6.77872e-06
6.78363e-06
6.79743e-06
6.83172e-06
6.89766e-06
6.9793e-06
7.04543e-06
7.08911e-06
7.11792e-06
7.13797e-06
7.15197e-06
7.16045e-06
7.16627e-06
7.17232e-06
7.17751e-06
7.18139e-06
7.18435e-06
7.18663e-06
7.18839e-06
7.18973e-06
7.19075e-06
7.19151e-06
7.19207e-06
7.19247e-06
7.19277e-06
7.19301e-06
7.19321e-06
7.19339e-06
7.19359e-06
7.19381e-06
7.19406e-06
7.19434e-06
7.19466e-06
7.19503e-06
7.19544e-06
7.19589e-06
7.19639e-06
7.19694e-06
7.19751e-06
7.19813e-06
7.1988e-06
7.19952e-06
7.20031e-06
7.20116e-06
7.20207e-06
7.20305e-06
7.2041e-06
7.20521e-06
7.20639e-06
7.20763e-06
7.20892e-06
7.21025e-06
7.21163e-06
7.21303e-06
7.21443e-06
7.21583e-06
7.21719e-06
7.21849e-06
7.21971e-06
7.2208e-06
7.22175e-06
7.22249e-06
7.223e-06
7.22322e-06
7.22311e-06
7.22262e-06
7.22169e-06
7.22027e-06
7.2183e-06
7.21574e-06
7.21252e-06
7.2086e-06
7.20393e-06
7.19847e-06
7.19218e-06
7.18503e-06
7.17698e-06
7.16804e-06
7.15818e-06
7.14741e-06
7.13574e-06
7.12318e-06
7.10978e-06
7.09556e-06
7.08058e-06
7.06489e-06
7.04856e-06
7.03166e-06
7.01428e-06
6.99649e-06
6.97839e-06
6.96007e-06
6.94162e-06
6.92314e-06
6.90473e-06
6.88648e-06
6.86847e-06
6.8508e-06
6.83354e-06
6.81679e-06
6.80059e-06
6.78504e-06
6.77012e-06
6.75594e-06
6.74254e-06
6.72995e-06
6.7182e-06
6.70729e-06
6.69725e-06
6.68807e-06
6.67975e-06
6.67228e-06
6.66563e-06
6.6598e-06
6.65474e-06
6.65043e-06
6.64684e-06
6.64391e-06
6.64162e-06
6.63991e-06
6.63874e-06
6.63806e-06
6.63783e-06
6.638e-06
6.63853e-06
6.63937e-06
6.64048e-06
6.64182e-06
6.64335e-06
6.64503e-06
6.64683e-06
6.64872e-06
6.65067e-06
6.65266e-06
6.65466e-06
6.65666e-06
6.65863e-06
6.66056e-06
6.66244e-06
6.66425e-06
6.666e-06
6.66766e-06
6.66924e-06
6.67074e-06
6.67214e-06
6.67345e-06
6.67467e-06
6.6758e-06
6.67685e-06
6.6778e-06
6.67867e-06
6.67946e-06
6.68018e-06
6.68082e-06
6.68139e-06
6.6819e-06
6.68234e-06
6.68273e-06
6.68307e-06
6.68335e-06
6.68359e-06
6.68379e-06
6.68395e-06
6.68407e-06
6.68416e-06
6.68423e-06
6.68426e-06
6.68428e-06
6.68427e-06
6.68424e-06
6.68419e-06
6.68413e-06
6.68406e-06
6.68397e-06
6.68387e-06
6.68377e-06
6.68365e-06
6.68353e-06
6.68339e-06
6.68326e-06
6.68312e-06
6.68297e-06
6.68282e-06
6.68266e-06
6.6825e-06
6.68234e-06
6.68218e-06
6.68201e-06
6.68184e-06
6.68167e-06
6.6815e-06
6.68133e-06
6.68115e-06
6.68097e-06
6.6808e-06
6.68062e-06
6.68044e-06
6.68025e-06
6.68007e-06
6.67989e-06
6.6797e-06
6.67952e-06
6.67933e-06
6.67915e-06
6.67896e-06
6.67877e-06
6.67858e-06
6.67839e-06
6.6782e-06
6.678e-06
6.67781e-06
6.67762e-06
6.67742e-06
6.67723e-06
6.67703e-06
6.67683e-06
6.67663e-06
6.67644e-06
6.67624e-06
6.67603e-06
6.67583e-06
6.67563e-06
6.67543e-06
6.67522e-06
6.67502e-06
)
;

boundaryField
{
    boundary
    {
        type            empty;
        value           nonuniform 0();
    }
    inlet
    {
        type            calculated;
        value           uniform -6.92655e-06;
    }
    outlet
    {
        type            calculated;
        value           uniform 6.67481e-06;
    }
}


// ************************************************************************* //
