/*--------------------------------*- C++ -*----------------------------------*\
  =========                 |
  \\      /  F ield         | OpenFOAM: The Open Source CFD Toolbox
   \\    /   O peration     | Website:  https://openfoam.org
    \\  /    A nd           | Version:  7
     \\/     M anipulation  |
\*---------------------------------------------------------------------------*/
FoamFile
{
    version     2.0;
    format      ascii;
    class       volVectorField;
    location    "0.00019";
    object      U;
}
// * * * * * * * * * * * * * * * * * * * * * * * * * * * * * * * * * * * * * //

dimensions      [0 1 -1 0 0 0 0];

internalField   nonuniform List<vector> 
500
(
(2.34893 0 0)
(2.34892 0 0)
(2.34892 0 0)
(2.34891 0 0)
(2.34891 0 0)
(2.34892 0 0)
(2.34894 0 0)
(2.34895 0 0)
(2.34895 0 0)
(2.34893 0 0)
(2.34888 0 0)
(2.3488 0 0)
(2.34869 0 0)
(2.34854 0 0)
(2.34837 0 0)
(2.34819 0 0)
(2.348 0 0)
(2.3478 0 0)
(2.34761 0 0)
(2.34744 0 0)
(2.34727 0 0)
(2.34712 0 0)
(2.34698 0 0)
(2.34685 0 0)
(2.34674 0 0)
(2.34662 0 0)
(2.34652 0 0)
(2.34641 0 0)
(2.34631 0 0)
(2.34621 0 0)
(2.34612 0 0)
(2.34602 0 0)
(2.34592 0 0)
(2.34582 0 0)
(2.34572 0 0)
(2.34562 0 0)
(2.34552 0 0)
(2.34542 0 0)
(2.34532 0 0)
(2.34522 0 0)
(2.34512 0 0)
(2.34501 0 0)
(2.34491 0 0)
(2.3448 0 0)
(2.3447 0 0)
(2.34459 0 0)
(2.34448 0 0)
(2.34438 0 0)
(2.34427 0 0)
(2.34416 0 0)
(2.34405 0 0)
(2.34394 0 0)
(2.34383 0 0)
(2.34371 0 0)
(2.3436 0 0)
(2.34349 0 0)
(2.34337 0 0)
(2.34325 0 0)
(2.34314 0 0)
(2.34302 0 0)
(2.3429 0 0)
(2.34278 0 0)
(2.34266 0 0)
(2.34254 0 0)
(2.34242 0 0)
(2.3423 0 0)
(2.34218 0 0)
(2.34205 0 0)
(2.34193 0 0)
(2.3418 0 0)
(2.34167 0 0)
(2.34155 0 0)
(2.34142 0 0)
(2.34129 0 0)
(2.34116 0 0)
(2.34103 0 0)
(2.3409 0 0)
(2.34077 0 0)
(2.34064 0 0)
(2.3405 0 0)
(2.34037 0 0)
(2.34023 0 0)
(2.3401 0 0)
(2.33996 0 0)
(2.33982 0 0)
(2.33969 0 0)
(2.33955 0 0)
(2.33941 0 0)
(2.33927 0 0)
(2.33913 0 0)
(2.33899 0 0)
(2.33885 0 0)
(2.3387 0 0)
(2.33856 0 0)
(2.33842 0 0)
(2.33827 0 0)
(2.33813 0 0)
(2.33798 0 0)
(2.33783 0 0)
(2.33769 0 0)
(2.33754 0 0)
(2.33739 0 0)
(2.33724 0 0)
(2.33709 0 0)
(2.33694 0 0)
(2.33679 0 0)
(2.33664 0 0)
(2.33648 0 0)
(2.33633 0 0)
(2.33618 0 0)
(2.33602 0 0)
(2.33587 0 0)
(2.33571 0 0)
(2.33555 0 0)
(2.3354 0 0)
(2.33524 0 0)
(2.33508 0 0)
(2.33492 0 0)
(2.33476 0 0)
(2.3346 0 0)
(2.33444 0 0)
(2.33428 0 0)
(2.33412 0 0)
(2.33395 0 0)
(2.33379 0 0)
(2.33362 0 0)
(2.33346 0 0)
(2.3333 0 0)
(2.33314 0 0)
(2.33297 0 0)
(2.3328 0 0)
(2.33263 0 0)
(2.33246 0 0)
(2.33229 0 0)
(2.33212 0 0)
(2.33195 0 0)
(2.33178 0 0)
(2.33161 0 0)
(2.33144 0 0)
(2.33126 0 0)
(2.33109 0 0)
(2.33092 0 0)
(2.33074 0 0)
(2.33056 0 0)
(2.33039 0 0)
(2.33021 0 0)
(2.33003 0 0)
(2.32985 0 0)
(2.32967 0 0)
(2.32949 0 0)
(2.32931 0 0)
(2.32913 0 0)
(2.32895 0 0)
(2.32877 0 0)
(2.32858 0 0)
(2.3284 0 0)
(2.32822 0 0)
(2.32803 0 0)
(2.32785 0 0)
(2.32766 0 0)
(2.32747 0 0)
(2.32729 0 0)
(2.3271 0 0)
(2.32691 0 0)
(2.32672 0 0)
(2.32654 0 0)
(2.32635 0 0)
(2.32616 0 0)
(2.32597 0 0)
(2.32578 0 0)
(2.32559 0 0)
(2.3254 0 0)
(2.32521 0 0)
(2.32501 0 0)
(2.32482 0 0)
(2.32463 0 0)
(2.32444 0 0)
(2.32425 0 0)
(2.32406 0 0)
(2.32386 0 0)
(2.32367 0 0)
(2.32348 0 0)
(2.32329 0 0)
(2.32309 0 0)
(2.3229 0 0)
(2.32271 0 0)
(2.32252 0 0)
(2.32233 0 0)
(2.32213 0 0)
(2.32194 0 0)
(2.32175 0 0)
(2.32156 0 0)
(2.32137 0 0)
(2.32117 0 0)
(2.32098 0 0)
(2.32079 0 0)
(2.3206 0 0)
(2.32041 0 0)
(2.32022 0 0)
(2.32003 0 0)
(2.31984 0 0)
(2.31965 0 0)
(2.31946 0 0)
(2.31928 0 0)
(2.31909 0 0)
(2.3189 0 0)
(2.31871 0 0)
(2.31853 0 0)
(2.31834 0 0)
(2.31815 0 0)
(2.31797 0 0)
(2.31778 0 0)
(2.3176 0 0)
(2.31741 0 0)
(2.31723 0 0)
(2.31704 0 0)
(2.31686 0 0)
(2.31668 0 0)
(2.3165 0 0)
(2.31632 0 0)
(2.31613 0 0)
(2.31595 0 0)
(2.31577 0 0)
(2.31559 0 0)
(2.31542 0 0)
(2.31524 0 0)
(2.31506 0 0)
(2.31488 0 0)
(2.31471 0 0)
(2.31453 0 0)
(2.31436 0 0)
(2.31418 0 0)
(2.31401 0 0)
(2.31383 0 0)
(2.31366 0 0)
(2.31349 0 0)
(2.31332 0 0)
(2.31315 0 0)
(2.31298 0 0)
(2.31281 0 0)
(2.31264 0 0)
(2.31247 0 0)
(2.3123 0 0)
(2.31213 0 0)
(2.31197 0 0)
(2.3118 0 0)
(2.31164 0 0)
(2.31147 0 0)
(2.31131 0 0)
(2.31115 0 0)
(2.31098 0 0)
(2.31082 0 0)
(2.31066 0 0)
(2.3105 0 0)
(2.31035 0 0)
(2.31018 0 0)
(2.31002 0 0)
(2.30987 0 0)
(2.30971 0 0)
(2.30955 0 0)
(2.3094 0 0)
(2.30924 0 0)
(2.30909 0 0)
(2.30894 0 0)
(2.30878 0 0)
(2.30863 0 0)
(2.30848 0 0)
(2.30832 0 0)
(2.30817 0 0)
(2.30803 0 0)
(2.30789 0 0)
(2.3079 0 0)
(2.30822 0 0)
(2.30977 0 0)
(2.31506 0 0)
(2.33076 0 0)
(2.37227 0 0)
(2.47287 0 0)
(2.70442 0 0)
(3.19793 0 0)
(4.10319 0 0)
(5.29078 0 0)
(6.526 0 0)
(7.66361 0 0)
(8.6647 0 0)
(9.52193 0 0)
(10.2338 0 0)
(10.8115 0 0)
(11.2749 0 0)
(11.6488 0 0)
(11.9574 0 0)
(12.2186 0 0)
(12.4438 0 0)
(12.6409 0 0)
(12.8153 0 0)
(12.9714 0 0)
(13.1122 0 0)
(13.2401 0 0)
(13.3572 0 0)
(13.4648 0 0)
(13.5642 0 0)
(13.6565 0 0)
(13.7424 0 0)
(13.8228 0 0)
(13.8981 0 0)
(13.969 0 0)
(14.0357 0 0)
(14.0988 0 0)
(14.1585 0 0)
(14.2151 0 0)
(14.2688 0 0)
(14.3198 0 0)
(14.367 0 0)
(14.4111 0 0)
(14.4536 0 0)
(14.4946 0 0)
(14.5341 0 0)
(14.5722 0 0)
(14.6089 0 0)
(14.6444 0 0)
(14.6788 0 0)
(14.712 0 0)
(14.7441 0 0)
(14.7753 0 0)
(14.8056 0 0)
(14.835 0 0)
(14.8635 0 0)
(14.8913 0 0)
(14.9183 0 0)
(14.9446 0 0)
(14.9703 0 0)
(14.9953 0 0)
(15.0198 0 0)
(15.0437 0 0)
(15.0671 0 0)
(15.0901 0 0)
(15.1125 0 0)
(15.1345 0 0)
(15.1561 0 0)
(15.1773 0 0)
(15.1981 0 0)
(15.2185 0 0)
(15.2385 0 0)
(15.2582 0 0)
(15.2775 0 0)
(15.2963 0 0)
(15.3148 0 0)
(15.3329 0 0)
(15.3505 0 0)
(15.3677 0 0)
(15.3844 0 0)
(15.4007 0 0)
(15.4164 0 0)
(15.4315 0 0)
(15.4461 0 0)
(15.4601 0 0)
(15.4734 0 0)
(15.4861 0 0)
(15.4981 0 0)
(15.5094 0 0)
(15.5199 0 0)
(15.5298 0 0)
(15.5388 0 0)
(15.5472 0 0)
(15.5548 0 0)
(15.5616 0 0)
(15.5677 0 0)
(15.573 0 0)
(15.5777 0 0)
(15.5817 0 0)
(15.585 0 0)
(15.5877 0 0)
(15.5898 0 0)
(15.5913 0 0)
(15.5924 0 0)
(15.5932 0 0)
(15.5934 0 0)
(15.5933 0 0)
(15.5928 0 0)
(15.5922 0 0)
(15.5912 0 0)
(15.5901 0 0)
(15.5889 0 0)
(15.5875 0 0)
(15.5862 0 0)
(15.5848 0 0)
(15.5835 0 0)
(15.5822 0 0)
(15.5809 0 0)
(15.5798 0 0)
(15.5788 0 0)
(15.5779 0 0)
(15.5772 0 0)
(15.5766 0 0)
(15.5762 0 0)
(15.5759 0 0)
(15.5757 0 0)
(15.5757 0 0)
(15.5759 0 0)
(15.5761 0 0)
(15.5765 0 0)
(15.577 0 0)
(15.5776 0 0)
(15.5783 0 0)
(15.579 0 0)
(15.5798 0 0)
(15.5807 0 0)
(15.5816 0 0)
(15.5825 0 0)
(15.5834 0 0)
(15.5843 0 0)
(15.5853 0 0)
(15.5862 0 0)
(15.5871 0 0)
(15.588 0 0)
(15.5888 0 0)
(15.5896 0 0)
(15.5904 0 0)
(15.5911 0 0)
(15.5918 0 0)
(15.5924 0 0)
(15.593 0 0)
(15.5936 0 0)
(15.594 0 0)
(15.5945 0 0)
(15.5949 0 0)
(15.5952 0 0)
(15.5955 0 0)
(15.5958 0 0)
(15.596 0 0)
(15.5961 0 0)
(15.5963 0 0)
(15.5964 0 0)
(15.5964 0 0)
(15.5964 0 0)
(15.5964 0 0)
(15.5964 0 0)
(15.5963 0 0)
(15.5962 0 0)
(15.5961 0 0)
(15.596 0 0)
(15.5958 0 0)
(15.5956 0 0)
(15.5954 0 0)
(15.5952 0 0)
(15.595 0 0)
(15.5948 0 0)
(15.5945 0 0)
(15.5943 0 0)
(15.594 0 0)
(15.5937 0 0)
(15.5934 0 0)
(15.5931 0 0)
(15.5928 0 0)
(15.5925 0 0)
(15.5922 0 0)
(15.5919 0 0)
(15.5916 0 0)
(15.5913 0 0)
(15.5909 0 0)
(15.5906 0 0)
(15.5903 0 0)
(15.5899 0 0)
(15.5896 0 0)
(15.5892 0 0)
(15.5889 0 0)
(15.5885 0 0)
(15.5882 0 0)
(15.5878 0 0)
(15.5875 0 0)
(15.5871 0 0)
(15.5867 0 0)
(15.5864 0 0)
(15.586 0 0)
(15.5856 0 0)
(15.5852 0 0)
(15.5849 0 0)
(15.5845 0 0)
(15.5841 0 0)
(15.5837 0 0)
(15.5833 0 0)
(15.5829 0 0)
(15.5825 0 0)
(15.5821 0 0)
(15.5817 0 0)
(15.5813 0 0)
(15.5809 0 0)
(15.5805 0 0)
(15.5801 0 0)
(15.5797 0 0)
(15.5793 0 0)
(15.5789 0 0)
(15.5785 0 0)
(15.578 0 0)
(15.5776 0 0)
(15.5772 0 0)
(15.5768 0 0)
(15.5763 0 0)
(15.5758 0 0)
(15.5752 0 0)
)
;

boundaryField
{
    boundary
    {
        type            empty;
    }
    inlet
    {
        type            fixedValue;
        value           uniform (2.34893 0 0);
    }
    outlet
    {
        type            zeroGradient;
    }
}


// ************************************************************************* //
