/*--------------------------------*- C++ -*----------------------------------*\
  =========                 |
  \\      /  F ield         | OpenFOAM: The Open Source CFD Toolbox
   \\    /   O peration     | Website:  https://openfoam.org
    \\  /    A nd           | Version:  7
     \\/     M anipulation  |
\*---------------------------------------------------------------------------*/
FoamFile
{
    version     2.0;
    format      ascii;
    class       volScalarField;
    location    "0.00057";
    object      H2O2;
}
// * * * * * * * * * * * * * * * * * * * * * * * * * * * * * * * * * * * * * //

dimensions      [0 0 0 0 0 0 0];

internalField   nonuniform List<scalar> 
124
(
1.13148e-06
1.11745e-06
1.10371e-06
1.09024e-06
1.07704e-06
1.06411e-06
1.05143e-06
1.03901e-06
1.02682e-06
1.01487e-06
1.00315e-06
9.91658e-07
9.80379e-07
9.69312e-07
9.58452e-07
9.47792e-07
9.37329e-07
9.27057e-07
9.1697e-07
9.07066e-07
8.97338e-07
8.87782e-07
8.78395e-07
8.69172e-07
8.60108e-07
8.51201e-07
8.42445e-07
8.33838e-07
8.25375e-07
8.17053e-07
8.08869e-07
8.00819e-07
7.92899e-07
7.85108e-07
7.7744e-07
7.69894e-07
7.62466e-07
7.55154e-07
7.47954e-07
7.40864e-07
7.33881e-07
7.27003e-07
7.20226e-07
7.13548e-07
7.06967e-07
7.0048e-07
6.94085e-07
6.87779e-07
6.8156e-07
6.75425e-07
6.69373e-07
6.63402e-07
6.57511e-07
6.51704e-07
6.45928e-07
6.39891e-07
6.32814e-07
6.27344e-07
6.21819e-07
6.16311e-07
6.10841e-07
6.05411e-07
6.00021e-07
5.94666e-07
5.89342e-07
5.84046e-07
5.78773e-07
5.7352e-07
5.68282e-07
5.63057e-07
5.57841e-07
5.5263e-07
5.4742e-07
5.42209e-07
5.36992e-07
5.31766e-07
5.26527e-07
5.21274e-07
5.16002e-07
5.10708e-07
5.0539e-07
5.00045e-07
4.94671e-07
4.89266e-07
4.83827e-07
4.78354e-07
4.72845e-07
4.673e-07
4.61719e-07
4.56101e-07
4.50449e-07
4.44763e-07
4.39044e-07
4.33297e-07
4.27523e-07
4.21726e-07
4.15911e-07
4.10083e-07
4.04246e-07
3.98408e-07
3.92573e-07
3.8675e-07
3.80946e-07
3.75168e-07
3.69424e-07
3.63722e-07
3.58072e-07
3.5248e-07
3.46958e-07
3.41512e-07
3.36153e-07
3.3089e-07
3.25731e-07
3.20687e-07
3.15769e-07
3.10987e-07
3.06355e-07
3.0189e-07
2.97616e-07
2.93568e-07
2.89802e-07
2.86418e-07
2.83607e-07
2.8176e-07
)
;

boundaryField
{
    boundary
    {
        type            empty;
    }
    inlet
    {
        type            fixedValue;
        value           nonuniform 0();
    }
    outlet
    {
        type            zeroGradient;
    }
    procBoundary0to1
    {
        type            processor;
        value           uniform 1.14579e-06;
    }
}


// ************************************************************************* //
