/*--------------------------------*- C++ -*----------------------------------*\
  =========                 |
  \\      /  F ield         | OpenFOAM: The Open Source CFD Toolbox
   \\    /   O peration     | Website:  https://openfoam.org
    \\  /    A nd           | Version:  7
     \\/     M anipulation  |
\*---------------------------------------------------------------------------*/
FoamFile
{
    version     2.0;
    format      ascii;
    class       volScalarField;
    location    "0.00057";
    object      Qdot;
}
// * * * * * * * * * * * * * * * * * * * * * * * * * * * * * * * * * * * * * //

dimensions      [1 -1 -3 0 0 0 0];

internalField   nonuniform List<scalar> 
124
(
1.61585e+08
1.58801e+08
1.56081e+08
1.53427e+08
1.50836e+08
1.48306e+08
1.45835e+08
1.43422e+08
1.41064e+08
1.3876e+08
1.36508e+08
1.34307e+08
1.32155e+08
1.3005e+08
1.27992e+08
1.25979e+08
1.2401e+08
1.22082e+08
1.20197e+08
1.18351e+08
1.16544e+08
1.14775e+08
1.13042e+08
1.11346e+08
1.09684e+08
1.08057e+08
1.06462e+08
1.049e+08
1.03368e+08
1.01868e+08
1.00396e+08
9.89543e+07
9.75403e+07
9.61538e+07
9.47941e+07
9.34605e+07
9.21523e+07
9.08688e+07
8.96098e+07
8.83745e+07
8.71622e+07
8.59726e+07
8.48049e+07
8.36588e+07
8.25338e+07
8.14293e+07
8.03449e+07
7.92801e+07
7.82347e+07
7.72084e+07
7.6202e+07
7.52186e+07
7.42691e+07
7.34079e+07
7.26543e+07
7.10539e+07
7.016e+07
6.93289e+07
6.8471e+07
6.76114e+07
6.67577e+07
6.5913e+07
6.50785e+07
6.42544e+07
6.34407e+07
6.26369e+07
6.18428e+07
6.10579e+07
6.02805e+07
5.95125e+07
5.8752e+07
5.79985e+07
5.72516e+07
5.65107e+07
5.57755e+07
5.50453e+07
5.43196e+07
5.35979e+07
5.28792e+07
5.21639e+07
5.14508e+07
5.07396e+07
5.00296e+07
4.93203e+07
4.86114e+07
4.79022e+07
4.71924e+07
4.64814e+07
4.57689e+07
4.50545e+07
4.43379e+07
4.36187e+07
4.28968e+07
4.21718e+07
4.14436e+07
4.07121e+07
3.99773e+07
3.92391e+07
3.84974e+07
3.77525e+07
3.70045e+07
3.62534e+07
3.54996e+07
3.47434e+07
3.39848e+07
3.32245e+07
3.24627e+07
3.16998e+07
3.09363e+07
3.01727e+07
2.94095e+07
2.86472e+07
2.78865e+07
2.71278e+07
2.63718e+07
2.56188e+07
2.48696e+07
2.41241e+07
2.33827e+07
2.26444e+07
2.19079e+07
2.11764e+07
2.04718e+07
1.9915e+07
)
;

boundaryField
{
    boundary
    {
        type            empty;
    }
    inlet
    {
        type            calculated;
        value           nonuniform 0();
    }
    outlet
    {
        type            calculated;
        value           uniform 0;
    }
    procBoundary0to1
    {
        type            processor;
        value           uniform 0;
    }
}


// ************************************************************************* //
