/*--------------------------------*- C++ -*----------------------------------*\
  =========                 |
  \\      /  F ield         | OpenFOAM: The Open Source CFD Toolbox
   \\    /   O peration     | Website:  https://openfoam.org
    \\  /    A nd           | Version:  7
     \\/     M anipulation  |
\*---------------------------------------------------------------------------*/
FoamFile
{
    version     2.0;
    format      ascii;
    class       volScalarField;
    location    "0.00022";
    object      cellCpuTimes;
}
// * * * * * * * * * * * * * * * * * * * * * * * * * * * * * * * * * * * * * //

dimensions      [0 0 0 0 0 0 0];

internalField   nonuniform List<scalar> 
500
(
8.7e-05
5.3e-05
5e-05
4.9e-05
4.7e-05
5e-05
4.9e-05
4.9e-05
5e-05
4.8e-05
4.9e-05
4.9e-05
4.8e-05
4.9e-05
4.9e-05
4.8e-05
4.9e-05
4.9e-05
4.9e-05
4.8e-05
4.9e-05
4.8e-05
4.9e-05
5e-05
4.9e-05
4.8e-05
4.8e-05
4.9e-05
4.8e-05
4.9e-05
4.8e-05
4.8e-05
4.9e-05
4.8e-05
4.9e-05
4.8e-05
4.8e-05
4.9e-05
4.9e-05
4.8e-05
4.8e-05
5.6e-05
4.9e-05
4.8e-05
4.9e-05
4.8e-05
4.8e-05
4.9e-05
4.8e-05
4.9e-05
4.9e-05
4.8e-05
4.8e-05
4.8e-05
4.8e-05
4.8e-05
4.8e-05
4.8e-05
4.9e-05
4.9e-05
4.8e-05
4.9e-05
4.9e-05
4.8e-05
4.8e-05
4.9e-05
4.8e-05
4.8e-05
4.9e-05
4.8e-05
4.8e-05
4.8e-05
4.8e-05
4.8e-05
4.9e-05
4.7e-05
4.8e-05
4.8e-05
4.8e-05
4.7e-05
4.9e-05
4.7e-05
4.8e-05
4.9e-05
4.8e-05
4.8e-05
4.9e-05
4.8e-05
4.7e-05
4.9e-05
4.8e-05
4.8e-05
4.9e-05
4.9e-05
4.7e-05
4.9e-05
4.9e-05
4.9e-05
4.9e-05
4.8e-05
4.8e-05
4.9e-05
4.8e-05
4.9e-05
4.9e-05
4.8e-05
4.8e-05
4.8e-05
4.8e-05
4.8e-05
4.8e-05
4.9e-05
4.8e-05
4.9e-05
4.8e-05
4.8e-05
4.9e-05
4.8e-05
4.8e-05
4.9e-05
4.8e-05
6.2e-05
4.8e-05
4.8e-05
4.8e-05
8.5e-05
5.7e-05
4.9e-05
4.8e-05
4.8e-05
4.7e-05
4.7e-05
4.8e-05
4.6e-05
4.7e-05
4.8e-05
4.7e-05
4.8e-05
4.6e-05
4.7e-05
4.7e-05
4.7e-05
4.7e-05
4.7e-05
4.7e-05
4.7e-05
4.7e-05
4.7e-05
4.8e-05
4.6e-05
4.8e-05
4.6e-05
4.7e-05
4.6e-05
4.7e-05
4.7e-05
4.7e-05
4.6e-05
4.7e-05
4.6e-05
4.7e-05
4.6e-05
4.7e-05
4.7e-05
4.6e-05
4.7e-05
4.7e-05
5.2e-05
4.8e-05
4.6e-05
4.7e-05
4.7e-05
4.7e-05
4.7e-05
4.7e-05
4.6e-05
4.7e-05
4.7e-05
4.7e-05
4.7e-05
4.6e-05
4.6e-05
4.7e-05
4.7e-05
4.6e-05
4.6e-05
4.7e-05
4.6e-05
4.6e-05
4.7e-05
4.7e-05
4.6e-05
4.7e-05
4.7e-05
4.7e-05
4.8e-05
4.7e-05
4.7e-05
4.8e-05
4.6e-05
4.7e-05
4.7e-05
4.7e-05
4.7e-05
4.6e-05
4.7e-05
4.8e-05
4.7e-05
4.6e-05
4.6e-05
4.7e-05
4.7e-05
4.7e-05
4.7e-05
4.7e-05
4.7e-05
4.7e-05
4.7e-05
4.7e-05
4.7e-05
4.7e-05
4.7e-05
4.7e-05
4.7e-05
4.7e-05
4.7e-05
4.7e-05
4.6e-05
4.7e-05
4.7e-05
4.7e-05
4.8e-05
4.7e-05
4.6e-05
4.7e-05
4.6e-05
4.6e-05
4.7e-05
4.6e-05
4.6e-05
4.7e-05
4.7e-05
4.7e-05
4.7e-05
4.7e-05
4.6e-05
4.7e-05
4.7e-05
4.7e-05
5e-05
4.7e-05
4.6e-05
4.6e-05
4.7e-05
4.7e-05
4.7e-05
4.6e-05
4.7e-05
4.7e-05
4.6e-05
4.7e-05
4.6e-05
4.6e-05
4.6e-05
4.6e-05
4.7e-05
4.7e-05
4.7e-05
4.6e-05
4.6e-05
4.7e-05
4.6e-05
4.9e-05
7.2e-05
7.5e-05
0.000109
0.000126
0.000142
0.000164
0.000164
0.000165
0.000173
0.000219
0.000255
0.000267
0.000276
0.000264
0.000245
0.000278
0.000227
0.000213
0.000227
0.000191
0.000178
0.000174
0.000166
0.000202
0.000155
0.00015
0.000147
0.000147
0.000145
0.000147
0.000142
0.000138
0.000137
0.000146
0.000145
0.000145
0.000139
0.000154
0.000132
0.000126
0.000126
0.000126
0.000127
0.000124
0.000124
0.000124
0.000131
0.000131
0.000126
0.000127
0.000126
0.000122
0.000122
0.000122
0.000122
0.000122
0.000126
0.000126
0.000126
0.000123
0.000124
0.000123
0.000123
0.000124
0.000119
0.000119
0.000119
0.00012
0.000123
0.000117
0.000116
0.000117
0.000116
0.000118
0.000119
0.000115
0.000117
0.000117
0.000116
0.000111
0.000112
0.000112
0.000112
0.000112
0.000112
0.000111
0.000112
0.000111
0.000108
0.000107
0.000111
0.000111
0.000112
0.000111
0.000112
0.000111
0.000112
0.000111
0.000112
0.000111
0.000112
0.000111
0.000112
0.000116
0.000116
0.000116
0.000114
0.000116
0.000115
0.000114
0.000117
0.000115
0.000114
0.000116
0.000115
0.000159
0.00012
0.000117
0.000116
0.000116
0.000116
0.000116
0.000116
0.000116
0.000113
0.000112
0.000112
0.000113
0.000113
0.000112
0.000112
0.000116
0.000113
0.000119
0.000113
0.000113
0.000115
0.000113
0.000112
0.000111
0.000111
0.000111
0.000106
0.000107
0.000106
0.000107
0.000106
0.000107
0.000106
0.000106
0.000106
0.000106
0.000105
0.000106
0.000105
0.000105
0.000101
0.000102
9.7e-05
9.4e-05
9.4e-05
9.4e-05
9.5e-05
9.6e-05
9.1e-05
9.1e-05
9e-05
8.8e-05
8.8e-05
8.5e-05
8.9e-05
9.2e-05
8.8e-05
8.9e-05
8.6e-05
8.8e-05
8.6e-05
8.2e-05
8.4e-05
8.3e-05
8.5e-05
8.1e-05
7.6e-05
7.8e-05
7.7e-05
7.3e-05
7.7e-05
7.1e-05
7e-05
6.6e-05
6.6e-05
6.3e-05
6.3e-05
6.9e-05
6.9e-05
6.3e-05
6.2e-05
6.2e-05
6.3e-05
6e-05
6e-05
6e-05
6.4e-05
6.4e-05
6.4e-05
5.8e-05
5.7e-05
5.7e-05
5.7e-05
5.8e-05
5.7e-05
5.6e-05
5.5e-05
5.6e-05
5.6e-05
5.6e-05
5.7e-05
5.6e-05
5.6e-05
5.7e-05
5.6e-05
5.6e-05
5.6e-05
5.6e-05
5.6e-05
5.5e-05
5.6e-05
)
;

boundaryField
{
    boundary
    {
        type            empty;
    }
    inlet
    {
        type            calculated;
        value           uniform 0;
    }
    outlet
    {
        type            calculated;
        value           uniform 0;
    }
}


// ************************************************************************* //
