/*--------------------------------*- C++ -*----------------------------------*\
  =========                 |
  \\      /  F ield         | OpenFOAM: The Open Source CFD Toolbox
   \\    /   O peration     | Website:  https://openfoam.org
    \\  /    A nd           | Version:  7
     \\/     M anipulation  |
\*---------------------------------------------------------------------------*/
FoamFile
{
    version     2.0;
    format      ascii;
    class       volScalarField;
    location    "0.00022";
    object      H2;
}
// * * * * * * * * * * * * * * * * * * * * * * * * * * * * * * * * * * * * * //

dimensions      [0 0 0 0 0 0 0];

internalField   nonuniform List<scalar> 
500
(
0.0285116
0.0285116
0.0285116
0.0285116
0.0285116
0.0285116
0.0285116
0.0285116
0.0285116
0.0285116
0.0285116
0.0285116
0.0285116
0.0285116
0.0285116
0.0285116
0.0285116
0.0285116
0.0285116
0.0285116
0.0285116
0.0285116
0.0285116
0.0285116
0.0285116
0.0285116
0.0285116
0.0285116
0.0285116
0.0285116
0.0285116
0.0285116
0.0285116
0.0285116
0.0285116
0.0285116
0.0285116
0.0285116
0.0285116
0.0285116
0.0285116
0.0285116
0.0285116
0.0285116
0.0285116
0.0285116
0.0285116
0.0285116
0.0285116
0.0285116
0.0285116
0.0285116
0.0285116
0.0285116
0.0285116
0.0285116
0.0285116
0.0285116
0.0285116
0.0285116
0.0285116
0.0285116
0.0285116
0.0285116
0.0285116
0.0285116
0.0285116
0.0285116
0.0285116
0.0285116
0.0285116
0.0285116
0.0285116
0.0285116
0.0285116
0.0285116
0.0285116
0.0285116
0.0285116
0.0285116
0.0285116
0.0285116
0.0285116
0.0285116
0.0285116
0.0285116
0.0285116
0.0285116
0.0285116
0.0285116
0.0285116
0.0285116
0.0285116
0.0285116
0.0285116
0.0285116
0.0285116
0.0285116
0.0285116
0.0285116
0.0285116
0.0285116
0.0285116
0.0285116
0.0285116
0.0285116
0.0285116
0.0285116
0.0285116
0.0285116
0.0285116
0.0285116
0.0285116
0.0285116
0.0285116
0.0285116
0.0285116
0.0285116
0.0285116
0.0285116
0.0285116
0.0285116
0.0285116
0.0285116
0.0285116
0.0285116
0.0285116
0.0285116
0.0285116
0.0285116
0.0285116
0.0285116
0.0285116
0.0285116
0.0285116
0.0285116
0.0285116
0.0285116
0.0285116
0.0285116
0.0285116
0.0285116
0.0285116
0.0285116
0.0285116
0.0285116
0.0285116
0.0285116
0.0285116
0.0285116
0.0285116
0.0285116
0.0285116
0.0285116
0.0285116
0.0285116
0.0285116
0.0285116
0.0285116
0.0285116
0.0285116
0.0285116
0.0285116
0.0285116
0.0285116
0.0285116
0.0285116
0.0285116
0.0285116
0.0285116
0.0285116
0.0285116
0.0285116
0.0285116
0.0285116
0.0285116
0.0285116
0.0285116
0.0285116
0.0285116
0.0285116
0.0285116
0.0285116
0.0285116
0.0285116
0.0285116
0.0285116
0.0285116
0.0285116
0.0285116
0.0285116
0.0285116
0.0285116
0.0285116
0.0285116
0.0285116
0.0285116
0.0285116
0.0285116
0.0285116
0.0285116
0.0285116
0.0285116
0.0285116
0.0285116
0.0285116
0.0285116
0.0285116
0.0285116
0.0285116
0.0285116
0.0285116
0.0285116
0.0285116
0.0285116
0.0285116
0.0285116
0.0285116
0.0285116
0.0285116
0.0285116
0.0285116
0.0285116
0.0285116
0.0285116
0.0285116
0.0285116
0.0285116
0.0285116
0.0285116
0.0285116
0.0285116
0.0285116
0.0285116
0.0285116
0.0285116
0.0285116
0.0285116
0.0285116
0.0285116
0.0285116
0.0285116
0.0285116
0.0285116
0.0285116
0.0285116
0.0285116
0.0285116
0.0285116
0.0285116
0.0285116
0.0285116
0.0285116
0.0285116
0.0285116
0.0285116
0.0285116
0.0285116
0.0285116
0.0285116
0.0285116
0.0285116
0.0285116
0.0285116
0.0285115
0.0285115
0.0285114
0.0285112
0.0285106
0.0285095
0.0285071
0.028502
0.0284911
0.0284681
0.0284198
0.028319
0.0281109
0.0276936
0.0269083
0.0255819
0.0236391
0.0212144
0.0184518
0.0154387
0.0124003
0.0097076
0.0076316
0.00610076
0.0051664
0.00458207
0.00422191
0.00399944
0.00385943
0.00376804
0.00370502
0.00365839
0.0036212
0.00358943
0.00356077
0.00353395
0.00350825
0.00348331
0.00345893
0.00343502
0.00341157
0.00338856
0.00336601
0.00334393
0.00332233
0.00330123
0.00328062
0.00326054
0.00324156
0.0032235
0.00320587
0.00318865
0.00317186
0.0031555
0.00313957
0.00312407
0.00310901
0.0030944
0.00308023
0.00306652
0.00305327
0.00304049
0.00302818
0.00301635
0.00300501
0.00299415
0.00298379
0.00297392
0.00296455
0.00295569
0.00294733
0.00293947
0.00293212
0.00292527
0.00291891
0.00291304
0.00290765
0.00290273
0.00289827
0.00289425
0.00289066
0.00288747
0.00288465
0.0028822
0.00288006
0.00287822
0.00287664
0.00287527
0.00287408
0.00287302
0.00287204
0.00287109
0.00287013
0.00286908
0.0028679
0.00286652
0.00286489
0.00286293
0.00286059
0.0028578
0.0028545
0.00285063
0.00284612
0.0028409
0.00283493
0.00282814
0.00282047
0.00281186
0.00280225
0.00279158
0.00277974
0.00276658
0.00275293
0.00273844
0.00272274
0.00270587
0.00268783
0.00266862
0.00264827
0.00262678
0.00260419
0.00258051
0.00255579
0.00253006
0.00250337
0.00247577
0.0024473
0.00241804
0.00238803
0.00235735
0.00232606
0.00229423
0.00226193
0.00222925
0.00219626
0.00216304
0.00212966
0.00209621
0.00206276
0.00202941
0.00199621
0.00196326
0.00193062
0.00189836
0.00186656
0.00183529
0.0018046
0.00177455
0.00174519
0.00171658
0.00168876
0.00166177
0.00163565
0.00161042
0.0015861
0.00156273
0.0015403
0.00151884
0.00149834
0.00147882
0.00146025
0.00144264
0.00142598
0.00141024
0.00139541
0.00138147
0.0013684
0.00135616
0.00134473
0.00133409
0.00132419
0.00131501
0.00130651
0.00129867
0.00129144
0.00128479
0.00127869
0.00127311
0.00126802
0.00126338
0.00125916
0.00125533
0.00125187
0.00124874
0.00124592
0.00124339
0.00124112
0.00123909
0.00123728
0.00123566
0.00123423
0.00123296
0.00123183
0.00123084
0.00122997
0.00122921
0.00122854
0.00122795
0.00122744
0.001227
0.00122662
0.00122629
0.001226
0.00122576
0.00122555
0.00122537
0.00122522
0.00122509
0.00122498
0.00122489
0.00122482
0.00122475
0.0012247
0.00122466
0.00122462
0.00122459
0.00122457
0.00122455
0.00122454
0.00122453
0.00122452
0.00122452
0.00122451
0.00122451
0.00122451
0.00122451
0.00122451
0.00122452
0.00122452
0.00122452
0.00122453
0.00122453
0.00122453
0.00122453
0.00122454
0.00122454
)
;

boundaryField
{
    boundary
    {
        type            empty;
    }
    inlet
    {
        type            fixedValue;
        value           uniform 0.0285116;
    }
    outlet
    {
        type            zeroGradient;
    }
}


// ************************************************************************* //
