/*--------------------------------*- C++ -*----------------------------------*\
  =========                 |
  \\      /  F ield         | OpenFOAM: The Open Source CFD Toolbox
   \\    /   O peration     | Website:  https://openfoam.org
    \\  /    A nd           | Version:  7
     \\/     M anipulation  |
\*---------------------------------------------------------------------------*/
FoamFile
{
    version     2.0;
    format      ascii;
    class       volScalarField;
    location    "0.00022";
    object      H2O;
}
// * * * * * * * * * * * * * * * * * * * * * * * * * * * * * * * * * * * * * //

dimensions      [0 0 0 0 0 0 0];

internalField   nonuniform List<scalar> 
500
(
7.98707e-48
2.322e-47
4.20909e-47
6.3688e-47
8.74669e-47
1.1312e-46
1.40479e-46
1.69429e-46
1.99849e-46
2.31551e-46
2.64241e-46
2.97497e-46
3.30776e-46
3.6344e-46
3.94811e-46
4.24236e-46
4.51153e-46
4.75141e-46
4.95955e-46
5.13536e-46
5.27987e-46
5.39552e-46
5.48564e-46
5.55405e-46
5.60467e-46
5.64119e-46
5.66691e-46
5.68459e-46
5.69646e-46
5.70425e-46
5.70925e-46
5.71239e-46
5.71432e-46
5.71548e-46
5.71616e-46
5.71655e-46
5.71677e-46
5.71688e-46
5.71694e-46
5.71696e-46
5.71697e-46
5.71697e-46
5.71696e-46
5.71695e-46
5.71695e-46
5.71694e-46
5.71693e-46
5.71692e-46
5.71691e-46
5.71691e-46
5.7169e-46
5.7169e-46
5.7169e-46
5.7169e-46
5.7169e-46
5.7169e-46
5.71691e-46
5.71692e-46
5.71693e-46
5.71694e-46
5.71696e-46
5.71697e-46
5.717e-46
5.71702e-46
5.71705e-46
5.71708e-46
5.71711e-46
5.71715e-46
5.71719e-46
5.71723e-46
5.71728e-46
5.71733e-46
5.71739e-46
5.71745e-46
5.71752e-46
5.71759e-46
5.71766e-46
5.71774e-46
5.71783e-46
5.71792e-46
5.71802e-46
5.71812e-46
5.71823e-46
5.71834e-46
5.71846e-46
5.71859e-46
5.71872e-46
5.71886e-46
5.719e-46
5.71915e-46
5.71931e-46
5.71948e-46
5.71965e-46
5.71983e-46
5.72001e-46
5.72021e-46
5.72041e-46
5.72062e-46
5.72083e-46
5.72106e-46
5.72129e-46
5.72153e-46
5.72177e-46
5.72203e-46
5.72229e-46
5.72256e-46
5.72283e-46
5.72312e-46
5.72341e-46
5.72371e-46
5.72402e-46
5.72434e-46
5.72466e-46
5.72499e-46
5.72533e-46
5.72568e-46
5.72603e-46
5.72639e-46
5.72675e-46
5.72712e-46
5.72748e-46
5.72781e-46
5.72813e-46
5.72859e-46
5.73031e-46
5.7348e-46
5.73134e-46
5.72755e-46
5.72382e-46
5.72013e-46
5.71633e-46
5.71247e-46
5.70886e-46
5.70595e-46
5.70412e-46
5.70361e-46
5.70444e-46
5.70648e-46
5.70943e-46
5.71298e-46
5.7168e-46
5.72062e-46
5.72422e-46
5.72747e-46
5.7303e-46
5.73268e-46
5.73464e-46
5.73623e-46
5.7375e-46
5.73851e-46
5.73932e-46
5.73998e-46
5.74053e-46
5.74098e-46
5.74138e-46
5.74172e-46
5.74203e-46
5.7423e-46
5.74254e-46
5.74275e-46
5.74294e-46
5.74309e-46
5.74322e-46
5.74331e-46
5.74337e-46
5.74339e-46
5.74338e-46
5.74332e-46
5.74323e-46
5.74309e-46
5.74291e-46
5.74267e-46
5.74239e-46
5.74206e-46
5.74167e-46
5.74122e-46
5.74071e-46
5.74014e-46
5.73951e-46
5.73881e-46
5.73804e-46
5.73719e-46
5.73628e-46
5.73528e-46
5.7342e-46
5.73304e-46
5.7318e-46
5.73047e-46
5.72904e-46
5.72753e-46
5.72591e-46
5.7242e-46
5.72239e-46
5.72048e-46
5.71846e-46
5.71633e-46
5.71409e-46
5.71174e-46
5.70928e-46
5.7067e-46
5.704e-46
5.70118e-46
5.69825e-46
5.69519e-46
5.692e-46
5.68869e-46
5.68526e-46
5.6817e-46
5.67801e-46
5.6742e-46
5.67025e-46
5.66618e-46
5.66198e-46
5.65766e-46
5.65322e-46
5.64871e-46
5.64454e-46
5.64357e-46
5.66605e-46
5.85491e-46
7.20994e-46
1.66718e-45
8.2072e-45
5.30811e-44
3.59003e-43
2.43274e-42
1.64216e-41
1.10418e-40
7.4023e-40
4.9531e-39
3.31186e-38
2.21529e-37
1.48376e-36
9.958e-36
6.69893e-35
4.51689e-34
3.0512e-33
2.06317e-32
1.39488e-31
9.41664e-31
6.33865e-30
4.24833e-29
2.83116e-28
1.87356e-27
1.22963e-26
7.99308e-26
5.13871e-25
3.26203e-24
2.04113e-23
1.25696e-22
7.60915e-22
4.47468e-21
2.61197e-20
1.49902e-19
8.44387e-19
4.66542e-18
2.52714e-17
1.34141e-16
6.97461e-16
3.55118e-15
1.77023e-14
8.63897e-14
4.12764e-13
1.93139e-12
8.85485e-12
3.98078e-11
1.75663e-10
7.61886e-10
3.25293e-09
1.36959e-08
5.69666e-08
2.34482e-07
9.56551e-07
3.87171e-06
1.5554e-05
6.19242e-05
0.000242697
0.000917311
0.00317506
0.00917492
0.0205714
0.036313
0.055491
0.0785385
0.104378
0.129326
0.149643
0.16706
0.17774
0.184924
0.189772
0.193122
0.195526
0.197336
0.198769
0.199958
0.200983
0.201895
0.202726
0.203496
0.204217
0.204899
0.205548
0.206168
0.206762
0.207334
0.207886
0.208418
0.208934
0.209434
0.209919
0.21039
0.210834
0.21126
0.211678
0.212088
0.212492
0.212889
0.213281
0.213668
0.21405
0.214428
0.214803
0.215174
0.215542
0.215908
0.216272
0.216634
0.216995
0.217356
0.217715
0.218074
0.218433
0.218793
0.219152
0.219512
0.219872
0.220233
0.220594
0.220956
0.221317
0.221679
0.222042
0.222403
0.222765
0.223125
0.223485
0.223843
0.224199
0.224553
0.224905
0.225254
0.225599
0.22594
0.226278
0.226611
0.226939
0.227263
0.227581
0.227894
0.228201
0.228502
0.228798
0.229089
0.229374
0.229653
0.229927
0.230196
0.230461
0.230721
0.230976
0.231229
0.231478
0.231724
0.23197
0.232217
0.23245
0.232683
0.232915
0.233145
0.233373
0.2336
0.233825
0.234049
0.234272
0.234493
0.234713
0.23493
0.235146
0.23536
0.235572
0.235781
0.235988
0.236191
0.236391
0.236587
0.236779
0.236966
0.237149
0.237327
0.237499
0.237665
0.237826
0.23798
0.238129
0.238271
0.238406
0.238535
0.238657
0.238772
0.238881
0.238984
0.23908
0.23917
0.239253
0.239331
0.239404
0.23947
0.239532
0.239589
0.239641
0.239689
0.239732
0.239772
0.239808
0.239841
0.23987
0.239897
0.239921
0.239943
0.239963
0.239981
0.239997
0.240011
0.240024
0.240035
0.240045
0.240054
0.240063
0.24007
0.240077
0.240082
0.240088
0.240092
0.240097
0.2401
0.240104
0.240107
0.240109
0.240112
0.240114
0.240115
0.240117
0.240118
0.24012
0.240121
0.240122
0.240123
0.240123
0.240124
0.240124
0.240125
0.240125
0.240126
0.240126
0.240126
0.240126
0.240126
0.240127
0.240127
0.240127
0.240127
0.240127
0.240127
0.240127
0.240127
0.240127
0.240127
0.240126
0.240126
0.240126
0.240126
0.240126
0.240126
0.240126
0.240126
0.240126
0.240126
0.240126
0.240126
0.240126
0.240125
0.240125
0.240125
0.240125
0.240125
0.240125
0.240125
0.240125
0.240125
)
;

boundaryField
{
    boundary
    {
        type            empty;
    }
    inlet
    {
        type            fixedValue;
        value           uniform 0;
    }
    outlet
    {
        type            zeroGradient;
    }
}


// ************************************************************************* //
