/*--------------------------------*- C++ -*----------------------------------*\
  =========                 |
  \\      /  F ield         | OpenFOAM: The Open Source CFD Toolbox
   \\    /   O peration     | Website:  https://openfoam.org
    \\  /    A nd           | Version:  7
     \\/     M anipulation  |
\*---------------------------------------------------------------------------*/
FoamFile
{
    version     2.0;
    format      ascii;
    class       volScalarField;
    location    "0.00022";
    object      H2O2;
}
// * * * * * * * * * * * * * * * * * * * * * * * * * * * * * * * * * * * * * //

dimensions      [0 0 0 0 0 0 0];

internalField   nonuniform List<scalar> 
500
(
2.02208e-52
6.53594e-52
1.30888e-51
2.17561e-51
3.26252e-51
4.57826e-51
6.12942e-51
7.91783e-51
9.93754e-51
1.21717e-50
1.45901e-50
1.71484e-50
1.97886e-50
2.24434e-50
2.50407e-50
2.75106e-50
2.9792e-50
3.18382e-50
3.36198e-50
3.51258e-50
3.63621e-50
3.73482e-50
3.81128e-50
3.86895e-50
3.91129e-50
3.94157e-50
3.96269e-50
3.97705e-50
3.98659e-50
3.99278e-50
3.9967e-50
3.99914e-50
4.00062e-50
4.0015e-50
4.00201e-50
4.0023e-50
4.00246e-50
4.00254e-50
4.00259e-50
4.00261e-50
4.00262e-50
4.00262e-50
4.00263e-50
4.00263e-50
4.00263e-50
4.00263e-50
4.00263e-50
4.00263e-50
4.00263e-50
4.00263e-50
4.00264e-50
4.00264e-50
4.00265e-50
4.00266e-50
4.00267e-50
4.00268e-50
4.0027e-50
4.00271e-50
4.00273e-50
4.00275e-50
4.00277e-50
4.00279e-50
4.00282e-50
4.00285e-50
4.00288e-50
4.00291e-50
4.00295e-50
4.00299e-50
4.00303e-50
4.00308e-50
4.00313e-50
4.00318e-50
4.00323e-50
4.00329e-50
4.00336e-50
4.00342e-50
4.00349e-50
4.00357e-50
4.00364e-50
4.00373e-50
4.00381e-50
4.00391e-50
4.004e-50
4.0041e-50
4.00421e-50
4.00432e-50
4.00443e-50
4.00455e-50
4.00467e-50
4.0048e-50
4.00494e-50
4.00508e-50
4.00523e-50
4.00538e-50
4.00553e-50
4.0057e-50
4.00587e-50
4.00604e-50
4.00622e-50
4.00641e-50
4.0066e-50
4.00679e-50
4.007e-50
4.00721e-50
4.00742e-50
4.00765e-50
4.00787e-50
4.00811e-50
4.00835e-50
4.00859e-50
4.00885e-50
4.0091e-50
4.00937e-50
4.00964e-50
4.00991e-50
4.01019e-50
4.01048e-50
4.01077e-50
4.01107e-50
4.01136e-50
4.01163e-50
4.01184e-50
4.01183e-50
4.01128e-50
4.00951e-50
4.00597e-50
4.0022e-50
3.99811e-50
3.99399e-50
3.98988e-50
3.98585e-50
3.98211e-50
3.97901e-50
3.9769e-50
3.97607e-50
3.97665e-50
3.9786e-50
3.98175e-50
3.9858e-50
3.99039e-50
3.99518e-50
3.99987e-50
4.00421e-50
4.00806e-50
4.01134e-50
4.01406e-50
4.01624e-50
4.01795e-50
4.01929e-50
4.02032e-50
4.02111e-50
4.02174e-50
4.02224e-50
4.02265e-50
4.023e-50
4.0233e-50
4.02357e-50
4.02381e-50
4.02402e-50
4.02421e-50
4.02438e-50
4.02453e-50
4.02466e-50
4.02476e-50
4.02483e-50
4.02488e-50
4.0249e-50
4.0249e-50
4.02486e-50
4.02478e-50
4.02468e-50
4.02453e-50
4.02435e-50
4.02413e-50
4.02387e-50
4.02357e-50
4.02321e-50
4.02282e-50
4.02237e-50
4.02187e-50
4.02132e-50
4.02072e-50
4.02005e-50
4.01933e-50
4.01855e-50
4.01771e-50
4.0168e-50
4.01582e-50
4.01477e-50
4.01366e-50
4.01247e-50
4.0112e-50
4.00986e-50
4.00844e-50
4.00695e-50
4.00536e-50
4.0037e-50
4.00195e-50
4.00011e-50
3.99819e-50
3.99617e-50
3.99407e-50
3.99187e-50
3.98958e-50
3.98719e-50
3.98471e-50
3.98213e-50
3.97946e-50
3.97669e-50
3.97382e-50
3.97085e-50
3.96779e-50
3.96463e-50
3.96137e-50
3.95801e-50
3.95456e-50
3.95102e-50
3.94741e-50
3.94405e-50
3.94414e-50
3.9816e-50
4.40982e-50
8.86844e-50
5.44002e-49
5.13476e-48
5.08555e-47
5.00577e-46
4.86869e-45
4.67557e-44
4.43229e-43
4.14671e-42
3.82798e-41
3.486e-40
3.13096e-39
2.77272e-38
2.42046e-37
2.08222e-36
1.76466e-35
1.47289e-34
1.21035e-33
9.78936e-33
7.79054e-32
6.09853e-31
4.69462e-30
3.55275e-29
2.64225e-28
1.93047e-27
1.38496e-26
9.75164e-26
6.735e-25
4.56004e-24
3.02872e-23
1.96757e-22
1.25086e-21
7.779e-21
4.73012e-20
2.81097e-19
1.63191e-18
9.25209e-18
5.1212e-17
2.76712e-16
1.45954e-15
7.51666e-15
3.78148e-14
1.85978e-13
8.95181e-13
4.22337e-12
1.95662e-11
8.92039e-11
4.0113e-10
1.7832e-09
7.85269e-09
3.43115e-08
1.48866e-07
6.40443e-07
2.70877e-06
1.09004e-05
3.76368e-05
8.79971e-05
0.000121634
0.000114301
6.7759e-05
2.95588e-05
1.18374e-05
5.84275e-06
4.45579e-06
4.62681e-06
5.30122e-06
5.89745e-06
6.34372e-06
6.61887e-06
6.74716e-06
6.76387e-06
6.70134e-06
6.58537e-06
6.43495e-06
6.26361e-06
6.08082e-06
5.89303e-06
5.70463e-06
5.51858e-06
5.3368e-06
5.16052e-06
4.99048e-06
4.82706e-06
4.67045e-06
4.52065e-06
4.37757e-06
4.24104e-06
4.11088e-06
3.98689e-06
3.86889e-06
3.76009e-06
3.65777e-06
3.55957e-06
3.46532e-06
3.37483e-06
3.2879e-06
3.20438e-06
3.12408e-06
3.04687e-06
2.97258e-06
2.90106e-06
2.83218e-06
2.76579e-06
2.70177e-06
2.63999e-06
2.58032e-06
2.52266e-06
2.46688e-06
2.41288e-06
2.36056e-06
2.30981e-06
2.26055e-06
2.21266e-06
2.16607e-06
2.12069e-06
2.07642e-06
2.03319e-06
1.99092e-06
1.94953e-06
1.90895e-06
1.86909e-06
1.8299e-06
1.79131e-06
1.75325e-06
1.71567e-06
1.6785e-06
1.6417e-06
1.60523e-06
1.56902e-06
1.53306e-06
1.49731e-06
1.46174e-06
1.42634e-06
1.39108e-06
1.35596e-06
1.32099e-06
1.28616e-06
1.2515e-06
1.21701e-06
1.18272e-06
1.14867e-06
1.11488e-06
1.08139e-06
1.04826e-06
1.01551e-06
9.83197e-07
9.51367e-07
9.20066e-07
8.89339e-07
8.59227e-07
8.29768e-07
8.00995e-07
7.72933e-07
7.45649e-07
7.19243e-07
6.93691e-07
6.69003e-07
6.45185e-07
6.22244e-07
6.00182e-07
5.78997e-07
5.58683e-07
5.39231e-07
5.20627e-07
5.02856e-07
4.85899e-07
4.69736e-07
4.54343e-07
4.39697e-07
4.25772e-07
4.12542e-07
3.99979e-07
3.88058e-07
3.76749e-07
3.66027e-07
3.55864e-07
3.46234e-07
3.37111e-07
3.2847e-07
3.20286e-07
3.12537e-07
3.05199e-07
2.9825e-07
2.91672e-07
2.85444e-07
2.79548e-07
2.73967e-07
2.68684e-07
2.63685e-07
2.58953e-07
2.54478e-07
2.50244e-07
2.4624e-07
2.42455e-07
2.3888e-07
2.35503e-07
2.32316e-07
2.2931e-07
2.26478e-07
2.2381e-07
2.21301e-07
2.18943e-07
2.16728e-07
2.14652e-07
2.12707e-07
2.10888e-07
2.09188e-07
2.07603e-07
2.06127e-07
2.04754e-07
2.03479e-07
2.02297e-07
2.01203e-07
2.00193e-07
1.99261e-07
1.98404e-07
1.97616e-07
1.96894e-07
1.96232e-07
1.95628e-07
1.95078e-07
1.94577e-07
1.94122e-07
1.93709e-07
1.93336e-07
1.92999e-07
1.92696e-07
1.92423e-07
1.92179e-07
1.9196e-07
1.91764e-07
1.9159e-07
1.91434e-07
1.91297e-07
1.91174e-07
1.91066e-07
1.90971e-07
1.90887e-07
1.90813e-07
1.90748e-07
1.90691e-07
1.90641e-07
1.90598e-07
1.9056e-07
1.90526e-07
1.90498e-07
1.90472e-07
1.90451e-07
1.90432e-07
1.90415e-07
1.90401e-07
1.90388e-07
1.90377e-07
1.90367e-07
1.90359e-07
1.90351e-07
1.90345e-07
1.90339e-07
1.90334e-07
1.90329e-07
1.90325e-07
1.90321e-07
1.90317e-07
1.90314e-07
1.90311e-07
1.90308e-07
1.90305e-07
1.90303e-07
1.903e-07
1.90298e-07
1.90296e-07
1.90293e-07
1.90291e-07
1.90289e-07
1.90287e-07
1.90285e-07
1.90284e-07
1.90283e-07
)
;

boundaryField
{
    boundary
    {
        type            empty;
    }
    inlet
    {
        type            fixedValue;
        value           uniform 0;
    }
    outlet
    {
        type            zeroGradient;
    }
}


// ************************************************************************* //
