/*--------------------------------*- C++ -*----------------------------------*\
  =========                 |
  \\      /  F ield         | OpenFOAM: The Open Source CFD Toolbox
   \\    /   O peration     | Website:  https://openfoam.org
    \\  /    A nd           | Version:  7
     \\/     M anipulation  |
\*---------------------------------------------------------------------------*/
FoamFile
{
    version     2.0;
    format      ascii;
    class       volScalarField;
    location    "0.00022";
    object      HO2;
}
// * * * * * * * * * * * * * * * * * * * * * * * * * * * * * * * * * * * * * //

dimensions      [0 0 0 0 0 0 0];

internalField   nonuniform List<scalar> 
500
(
5.6217e-38
1.2846e-37
2.01771e-37
2.76319e-37
3.52474e-37
4.30617e-37
5.11056e-37
5.93953e-37
6.79247e-37
7.66586e-37
8.55271e-37
9.44242e-37
1.03212e-36
1.11731e-36
1.19816e-36
1.27312e-36
1.3409e-36
1.40062e-36
1.45187e-36
1.49467e-36
1.52946e-36
1.557e-36
1.57823e-36
1.59417e-36
1.60583e-36
1.61416e-36
1.61996e-36
1.62391e-36
1.62653e-36
1.62823e-36
1.62932e-36
1.62999e-36
1.6304e-36
1.63065e-36
1.63079e-36
1.63087e-36
1.63092e-36
1.63094e-36
1.63095e-36
1.63096e-36
1.63096e-36
1.63096e-36
1.63096e-36
1.63096e-36
1.63096e-36
1.63096e-36
1.63096e-36
1.63096e-36
1.63096e-36
1.63096e-36
1.63097e-36
1.63097e-36
1.63097e-36
1.63097e-36
1.63097e-36
1.63098e-36
1.63098e-36
1.63098e-36
1.63099e-36
1.63099e-36
1.631e-36
1.631e-36
1.63101e-36
1.63102e-36
1.63103e-36
1.63104e-36
1.63105e-36
1.63106e-36
1.63107e-36
1.63108e-36
1.63109e-36
1.63111e-36
1.63112e-36
1.63114e-36
1.63115e-36
1.63117e-36
1.63119e-36
1.63121e-36
1.63123e-36
1.63126e-36
1.63128e-36
1.6313e-36
1.63133e-36
1.63136e-36
1.63139e-36
1.63142e-36
1.63145e-36
1.63148e-36
1.63152e-36
1.63155e-36
1.63159e-36
1.63163e-36
1.63167e-36
1.63171e-36
1.63175e-36
1.6318e-36
1.63185e-36
1.63189e-36
1.63194e-36
1.632e-36
1.63205e-36
1.6321e-36
1.63216e-36
1.63222e-36
1.63228e-36
1.63234e-36
1.6324e-36
1.63247e-36
1.63254e-36
1.63261e-36
1.63268e-36
1.63275e-36
1.63282e-36
1.6329e-36
1.63298e-36
1.63305e-36
1.63313e-36
1.63322e-36
1.6333e-36
1.63338e-36
1.63345e-36
1.63347e-36
1.63334e-36
1.63277e-36
1.63139e-36
1.62934e-36
1.62593e-36
1.62341e-36
1.62201e-36
1.62147e-36
1.62145e-36
1.62173e-36
1.6222e-36
1.62283e-36
1.62361e-36
1.62454e-36
1.62559e-36
1.62674e-36
1.62795e-36
1.62916e-36
1.63034e-36
1.63143e-36
1.63241e-36
1.63327e-36
1.63399e-36
1.63458e-36
1.63506e-36
1.63544e-36
1.63574e-36
1.63598e-36
1.63617e-36
1.63632e-36
1.63644e-36
1.63654e-36
1.63663e-36
1.63671e-36
1.63678e-36
1.63685e-36
1.6369e-36
1.63695e-36
1.637e-36
1.63704e-36
1.63707e-36
1.63709e-36
1.63711e-36
1.63712e-36
1.63712e-36
1.63711e-36
1.6371e-36
1.63707e-36
1.63704e-36
1.63699e-36
1.63693e-36
1.63687e-36
1.63679e-36
1.63669e-36
1.63659e-36
1.63647e-36
1.63634e-36
1.63619e-36
1.63602e-36
1.63585e-36
1.63565e-36
1.63544e-36
1.63521e-36
1.63496e-36
1.63469e-36
1.63441e-36
1.6341e-36
1.63378e-36
1.63343e-36
1.63306e-36
1.63267e-36
1.63226e-36
1.63182e-36
1.63137e-36
1.63088e-36
1.63038e-36
1.62984e-36
1.62928e-36
1.6287e-36
1.62809e-36
1.62745e-36
1.62679e-36
1.6261e-36
1.62538e-36
1.62464e-36
1.62387e-36
1.62307e-36
1.62224e-36
1.62138e-36
1.62049e-36
1.61958e-36
1.61864e-36
1.61767e-36
1.61668e-36
1.61565e-36
1.6146e-36
1.61352e-36
1.61242e-36
1.61129e-36
1.61013e-36
1.60895e-36
1.60774e-36
1.60652e-36
1.60528e-36
1.60408e-36
1.60323e-36
1.60462e-36
1.61938e-36
1.71328e-36
2.27353e-36
5.56963e-36
2.48499e-35
1.37144e-34
7.88639e-34
4.55501e-33
2.62608e-32
1.5103e-31
8.66833e-31
4.96833e-30
2.84576e-29
1.63004e-28
9.34307e-28
5.36184e-27
3.08231e-26
1.77544e-25
1.02452e-24
5.9152e-24
3.40681e-23
1.9485e-22
1.09586e-21
6.11236e-21
3.36904e-20
1.83328e-19
9.83687e-19
5.19845e-18
2.7029e-17
1.38156e-16
6.93824e-16
3.42248e-15
1.65825e-14
7.89443e-14
3.69533e-13
1.70252e-12
7.73074e-12
3.46515e-11
1.53577e-10
6.74134e-10
2.93495e-09
1.26872e-08
5.44775e-08
2.32208e-07
9.79453e-07
4.05778e-06
1.62602e-05
6.06137e-05
0.000192067
0.000422694
0.000521646
0.000461365
0.000349821
0.000248826
0.000174473
0.000122065
8.54301e-05
6.06802e-05
4.21122e-05
3.1546e-05
2.47782e-05
2.03606e-05
1.73847e-05
1.52983e-05
1.37709e-05
1.26051e-05
1.16811e-05
1.0925e-05
1.02899e-05
9.74538e-06
9.27061e-06
8.85121e-06
8.47678e-06
8.1396e-06
7.83379e-06
7.55473e-06
7.29877e-06
7.06293e-06
6.84479e-06
6.64232e-06
6.45384e-06
6.27796e-06
6.11358e-06
5.96437e-06
5.82569e-06
5.69404e-06
5.56885e-06
5.44959e-06
5.3358e-06
5.22707e-06
5.12301e-06
5.02325e-06
4.92749e-06
4.83541e-06
4.74674e-06
4.66122e-06
4.57861e-06
4.49868e-06
4.42121e-06
4.34602e-06
4.2729e-06
4.2017e-06
4.13223e-06
4.06434e-06
3.9979e-06
3.93276e-06
3.86879e-06
3.80587e-06
3.7439e-06
3.68278e-06
3.6224e-06
3.56268e-06
3.50356e-06
3.44495e-06
3.3868e-06
3.32907e-06
3.27171e-06
3.21469e-06
3.158e-06
3.10162e-06
3.04555e-06
2.9898e-06
2.93439e-06
2.87935e-06
2.82471e-06
2.77051e-06
2.71683e-06
2.6637e-06
2.61122e-06
2.55944e-06
2.50845e-06
2.45835e-06
2.4092e-06
2.36112e-06
2.31419e-06
2.26851e-06
2.22416e-06
2.18124e-06
2.13984e-06
2.10003e-06
2.0619e-06
2.0255e-06
1.99089e-06
1.9581e-06
1.92714e-06
1.89793e-06
1.87022e-06
1.84568e-06
1.82288e-06
1.80196e-06
1.78292e-06
1.76572e-06
1.75032e-06
1.73666e-06
1.72468e-06
1.71427e-06
1.70537e-06
1.69785e-06
1.69163e-06
1.68658e-06
1.68261e-06
1.67959e-06
1.67743e-06
1.676e-06
1.67522e-06
1.67498e-06
1.6752e-06
1.67578e-06
1.67667e-06
1.67779e-06
1.67909e-06
1.68051e-06
1.68203e-06
1.68359e-06
1.68518e-06
1.68678e-06
1.68838e-06
1.68996e-06
1.69153e-06
1.69307e-06
1.6946e-06
1.69611e-06
1.69761e-06
1.6991e-06
1.70059e-06
1.70209e-06
1.70358e-06
1.70508e-06
1.7066e-06
1.70812e-06
1.70965e-06
1.71119e-06
1.71273e-06
1.71427e-06
1.71581e-06
1.71735e-06
1.71886e-06
1.72036e-06
1.72184e-06
1.72329e-06
1.7247e-06
1.72607e-06
1.7274e-06
1.72869e-06
1.72992e-06
1.7311e-06
1.73222e-06
1.73329e-06
1.7343e-06
1.73526e-06
1.73615e-06
1.73699e-06
1.73778e-06
1.73851e-06
1.73918e-06
1.73981e-06
1.74039e-06
1.74092e-06
1.74141e-06
1.74186e-06
1.74227e-06
1.74264e-06
1.74299e-06
1.7433e-06
1.74358e-06
1.74384e-06
1.74407e-06
1.74429e-06
1.74448e-06
1.74466e-06
1.74482e-06
1.74496e-06
1.7451e-06
1.74522e-06
1.74533e-06
1.74544e-06
1.74553e-06
1.74562e-06
1.7457e-06
1.74578e-06
1.74585e-06
1.74592e-06
1.74598e-06
1.74604e-06
1.7461e-06
1.74616e-06
1.74621e-06
1.74626e-06
1.74631e-06
1.74636e-06
1.74641e-06
1.74645e-06
1.7465e-06
1.74654e-06
1.74659e-06
1.74663e-06
1.74667e-06
1.74671e-06
1.74675e-06
1.74679e-06
1.74683e-06
1.74686e-06
1.7469e-06
1.74694e-06
1.74697e-06
1.74701e-06
1.74704e-06
1.74707e-06
1.7471e-06
1.74713e-06
1.74715e-06
)
;

boundaryField
{
    boundary
    {
        type            empty;
    }
    inlet
    {
        type            fixedValue;
        value           uniform 0;
    }
    outlet
    {
        type            zeroGradient;
    }
}


// ************************************************************************* //
