/*--------------------------------*- C++ -*----------------------------------*\
  =========                 |
  \\      /  F ield         | OpenFOAM: The Open Source CFD Toolbox
   \\    /   O peration     | Website:  https://openfoam.org
    \\  /    A nd           | Version:  7
     \\/     M anipulation  |
\*---------------------------------------------------------------------------*/
FoamFile
{
    version     2.0;
    format      ascii;
    class       volScalarField;
    location    "0.00022";
    object      N2;
}
// * * * * * * * * * * * * * * * * * * * * * * * * * * * * * * * * * * * * * //

dimensions      [0 0 0 0 0 0 0];

internalField   nonuniform List<scalar> 
500
(
0.745219
0.745219
0.745219
0.745219
0.745219
0.745219
0.745219
0.745219
0.745219
0.745219
0.745219
0.745219
0.745219
0.745219
0.74522
0.74522
0.74522
0.74522
0.74522
0.74522
0.74522
0.74522
0.74522
0.74522
0.74522
0.74522
0.74522
0.74522
0.74522
0.74522
0.74522
0.74522
0.74522
0.74522
0.74522
0.74522
0.74522
0.74522
0.74522
0.74522
0.74522
0.74522
0.74522
0.74522
0.74522
0.74522
0.74522
0.74522
0.74522
0.74522
0.74522
0.74522
0.74522
0.74522
0.74522
0.74522
0.74522
0.74522
0.74522
0.74522
0.74522
0.74522
0.74522
0.74522
0.74522
0.74522
0.74522
0.74522
0.74522
0.74522
0.74522
0.74522
0.74522
0.74522
0.74522
0.74522
0.74522
0.74522
0.74522
0.74522
0.74522
0.74522
0.74522
0.74522
0.74522
0.74522
0.74522
0.74522
0.74522
0.74522
0.74522
0.74522
0.74522
0.74522
0.74522
0.74522
0.74522
0.74522
0.74522
0.74522
0.74522
0.74522
0.74522
0.74522
0.74522
0.74522
0.74522
0.74522
0.74522
0.74522
0.74522
0.74522
0.74522
0.74522
0.74522
0.74522
0.74522
0.74522
0.74522
0.74522
0.74522
0.74522
0.74522
0.74522
0.74522
0.74522
0.74522
0.74522
0.74522
0.74522
0.74522
0.74522
0.74522
0.74522
0.74522
0.74522
0.74522
0.74522
0.74522
0.74522
0.74522
0.74522
0.74522
0.74522
0.74522
0.74522
0.74522
0.74522
0.74522
0.74522
0.74522
0.74522
0.74522
0.74522
0.74522
0.74522
0.74522
0.74522
0.74522
0.74522
0.74522
0.74522
0.74522
0.74522
0.74522
0.74522
0.74522
0.74522
0.74522
0.74522
0.74522
0.74522
0.74522
0.74522
0.74522
0.74522
0.74522
0.74522
0.74522
0.74522
0.74522
0.74522
0.74522
0.74522
0.74522
0.74522
0.74522
0.74522
0.74522
0.74522
0.74522
0.74522
0.74522
0.74522
0.74522
0.74522
0.74522
0.74522
0.74522
0.74522
0.74522
0.74522
0.74522
0.74522
0.74522
0.74522
0.74522
0.74522
0.74522
0.74522
0.74522
0.74522
0.74522
0.74522
0.74522
0.74522
0.74522
0.74522
0.74522
0.74522
0.74522
0.74522
0.74522
0.74522
0.74522
0.74522
0.74522
0.74522
0.74522
0.74522
0.74522
0.74522
0.74522
0.74522
0.74522
0.74522
0.74522
0.74522
0.74522
0.74522
0.74522
0.74522
0.74522
0.74522
0.74522
0.74522
0.74522
0.74522
0.74522
0.74522
0.74522
0.74522
0.74522
0.74522
0.74522
0.74522
0.74522
0.74522
0.74522
0.74522
0.74522
0.74522
0.74522
0.74522
0.74522
0.74522
0.74522
0.74522
0.74522
0.745221
0.745223
0.745227
0.745234
0.74525
0.745282
0.745343
0.745445
0.745574
0.745623
0.745449
0.745091
0.744594
0.744029
0.743649
0.743648
0.743919
0.744144
0.744709
0.744943
0.745105
0.745208
0.745271
0.745307
0.745326
0.745334
0.745336
0.745333
0.745329
0.745322
0.745315
0.745308
0.7453
0.745293
0.745285
0.745278
0.745271
0.745265
0.745258
0.745252
0.745246
0.74524
0.745234
0.745229
0.745223
0.745217
0.745211
0.745205
0.745199
0.745193
0.745187
0.745181
0.745175
0.745169
0.745163
0.745157
0.745151
0.745146
0.745141
0.745137
0.745133
0.74513
0.745128
0.745127
0.745126
0.745127
0.745129
0.745133
0.745137
0.745144
0.745152
0.745161
0.745172
0.745185
0.7452
0.745217
0.745236
0.745256
0.745278
0.745302
0.745327
0.745354
0.745382
0.745412
0.745442
0.745473
0.745505
0.745537
0.745569
0.7456
0.745631
0.745661
0.74569
0.745718
0.745743
0.745767
0.745788
0.745806
0.745822
0.745834
0.745843
0.745849
0.74585
0.745848
0.745842
0.745832
0.745817
0.745802
0.745782
0.74576
0.745734
0.745706
0.745675
0.745642
0.745607
0.74557
0.745533
0.745494
0.745454
0.745413
0.745373
0.745333
0.745293
0.745254
0.745215
0.745178
0.745143
0.745109
0.745077
0.745047
0.745019
0.744994
0.744971
0.74495
0.744932
0.744917
0.744904
0.744893
0.744885
0.744879
0.744875
0.744873
0.744874
0.744876
0.74488
0.744886
0.744893
0.744901
0.74491
0.744921
0.744932
0.744943
0.744956
0.744968
0.744981
0.744994
0.745007
0.74502
0.745033
0.745045
0.745057
0.745069
0.74508
0.745091
0.745101
0.745111
0.74512
0.745129
0.745137
0.745145
0.745152
0.745159
0.745165
0.74517
0.745175
0.74518
0.745184
0.745188
0.745192
0.745195
0.745198
0.7452
0.745203
0.745205
0.745207
0.745208
0.74521
0.745211
0.745212
0.745213
0.745214
0.745215
0.745215
0.745216
0.745217
0.745217
0.745217
0.745218
0.745218
0.745218
0.745218
0.745219
0.745219
0.745219
0.745219
0.745219
0.745219
0.745219
0.745219
0.745219
0.745219
0.745219
0.745219
0.745219
0.745219
0.745219
0.745219
0.745219
0.745219
0.745219
0.745219
0.745219
0.745219
0.745219
0.745219
0.74522
0.74522
0.74522
0.74522
0.74522
0.74522
)
;

boundaryField
{
    boundary
    {
        type            empty;
    }
    inlet
    {
        type            fixedValue;
        value           uniform 0.74522;
    }
    outlet
    {
        type            zeroGradient;
    }
}


// ************************************************************************* //
