/*--------------------------------*- C++ -*----------------------------------*\
  =========                 |
  \\      /  F ield         | OpenFOAM: The Open Source CFD Toolbox
   \\    /   O peration     | Website:  https://openfoam.org
    \\  /    A nd           | Version:  7
     \\/     M anipulation  |
\*---------------------------------------------------------------------------*/
FoamFile
{
    version     2.0;
    format      ascii;
    class       volScalarField;
    location    "0.00022";
    object      O;
}
// * * * * * * * * * * * * * * * * * * * * * * * * * * * * * * * * * * * * * //

dimensions      [0 0 0 0 0 0 0];

internalField   nonuniform List<scalar> 
500
(
1.59415e-47
3.82805e-47
6.11101e-47
8.44668e-47
1.08489e-46
1.33325e-46
1.59103e-46
1.859e-46
2.13725e-46
2.42492e-46
2.72007e-46
3.01957e-46
3.31922e-46
3.61393e-46
3.89818e-46
4.16651e-46
4.41403e-46
4.63689e-46
4.83261e-46
5.00018e-46
5.14004e-46
5.25381e-46
5.34406e-46
5.41388e-46
5.46659e-46
5.50544e-46
5.5334e-46
5.55307e-46
5.5666e-46
5.5757e-46
5.5817e-46
5.58557e-46
5.58801e-46
5.58952e-46
5.59043e-46
5.59098e-46
5.59129e-46
5.59147e-46
5.59156e-46
5.59161e-46
5.59163e-46
5.59164e-46
5.59164e-46
5.59164e-46
5.59164e-46
5.59163e-46
5.59163e-46
5.59162e-46
5.59162e-46
5.59162e-46
5.59162e-46
5.59162e-46
5.59162e-46
5.59163e-46
5.59163e-46
5.59164e-46
5.59165e-46
5.59166e-46
5.59168e-46
5.59169e-46
5.59171e-46
5.59173e-46
5.59176e-46
5.59179e-46
5.59182e-46
5.59185e-46
5.59189e-46
5.59193e-46
5.59197e-46
5.59202e-46
5.59207e-46
5.59213e-46
5.59219e-46
5.59226e-46
5.59233e-46
5.5924e-46
5.59248e-46
5.59256e-46
5.59265e-46
5.59274e-46
5.59284e-46
5.59295e-46
5.59306e-46
5.59318e-46
5.5933e-46
5.59343e-46
5.59356e-46
5.5937e-46
5.59385e-46
5.594e-46
5.59416e-46
5.59433e-46
5.5945e-46
5.59468e-46
5.59487e-46
5.59506e-46
5.59527e-46
5.59547e-46
5.59569e-46
5.59592e-46
5.59615e-46
5.59639e-46
5.59663e-46
5.59689e-46
5.59715e-46
5.59742e-46
5.59769e-46
5.59798e-46
5.59827e-46
5.59857e-46
5.59888e-46
5.59919e-46
5.59952e-46
5.59985e-46
5.60018e-46
5.60053e-46
5.60088e-46
5.60123e-46
5.60159e-46
5.60195e-46
5.6023e-46
5.60261e-46
5.60283e-46
5.60285e-46
5.60233e-46
5.60118e-46
5.60105e-46
5.60073e-46
5.6002e-46
5.59943e-46
5.59844e-46
5.5973e-46
5.59612e-46
5.59502e-46
5.59415e-46
5.59364e-46
5.59361e-46
5.5941e-46
5.5951e-46
5.59654e-46
5.59834e-46
5.60035e-46
5.60245e-46
5.60452e-46
5.60648e-46
5.60825e-46
5.60981e-46
5.61115e-46
5.61228e-46
5.61322e-46
5.61401e-46
5.61466e-46
5.61521e-46
5.61568e-46
5.61609e-46
5.61645e-46
5.61676e-46
5.61704e-46
5.61728e-46
5.6175e-46
5.61769e-46
5.61785e-46
5.61798e-46
5.61807e-46
5.61814e-46
5.61816e-46
5.61816e-46
5.61811e-46
5.61803e-46
5.6179e-46
5.61772e-46
5.6175e-46
5.61723e-46
5.61691e-46
5.61654e-46
5.61611e-46
5.61562e-46
5.61507e-46
5.61446e-46
5.61378e-46
5.61304e-46
5.61222e-46
5.61133e-46
5.61037e-46
5.60932e-46
5.6082e-46
5.60699e-46
5.6057e-46
5.60432e-46
5.60285e-46
5.60128e-46
5.59962e-46
5.59786e-46
5.596e-46
5.59404e-46
5.59197e-46
5.5898e-46
5.58752e-46
5.58512e-46
5.58262e-46
5.58e-46
5.57726e-46
5.57441e-46
5.57143e-46
5.56834e-46
5.56512e-46
5.56179e-46
5.55833e-46
5.55474e-46
5.55104e-46
5.54721e-46
5.54326e-46
5.53928e-46
5.53572e-46
5.536e-46
5.56384e-46
5.78336e-46
7.3176e-46
1.77679e-45
8.80203e-45
5.54925e-44
3.6231e-43
2.35556e-42
1.51551e-41
9.63817e-41
6.05695e-40
3.76045e-39
2.30599e-38
1.39641e-37
8.34847e-37
4.92649e-36
2.86879e-35
1.64811e-34
9.33865e-34
5.21775e-33
2.87388e-32
1.55999e-31
8.343e-31
4.39492e-30
2.27974e-29
1.16413e-28
5.85029e-28
2.89259e-27
1.40672e-26
6.7269e-26
3.1622e-25
1.46088e-24
6.63089e-24
2.95634e-23
1.29436e-22
5.56394e-22
2.35148e-21
9.74017e-21
3.9577e-20
1.57782e-19
6.1718e-19
2.36879e-18
8.92168e-18
3.2981e-17
1.19706e-16
4.26778e-16
1.49551e-15
5.15492e-15
1.74952e-14
5.85299e-14
1.93269e-13
6.30781e-13
2.03771e-12
6.52431e-12
2.07287e-11
6.54158e-11
2.05225e-10
6.40611e-10
1.9927e-09
6.20368e-09
1.9626e-08
6.65291e-08
2.76907e-07
1.62558e-06
1.13354e-05
6.19275e-05
0.000260429
0.000842105
0.00192725
0.00328656
0.00454542
0.00547691
0.00607058
0.00634483
0.0064322
0.00640287
0.00630481
0.00616903
0.00601472
0.00585337
0.00569167
0.00553337
0.00538046
0.00523387
0.00509393
0.00496063
0.00483376
0.004713
0.00459802
0.00448844
0.00438391
0.0042841
0.00418869
0.00409739
0.00400993
0.00392608
0.00384566
0.00377083
0.0037
0.00363141
0.00356491
0.00350037
0.00343767
0.0033767
0.00331736
0.00325956
0.00320318
0.00314815
0.00309438
0.00304178
0.00299028
0.0029398
0.00289026
0.00284161
0.00279377
0.00274669
0.00270031
0.00265457
0.00260944
0.00256485
0.00252079
0.0024772
0.00243406
0.00239134
0.00234902
0.00230708
0.0022655
0.00222429
0.00218343
0.00214293
0.00210278
0.002063
0.00202359
0.00198458
0.00194597
0.00190778
0.00187004
0.00183276
0.00179598
0.00175971
0.00172398
0.00168882
0.00165423
0.00162025
0.00158688
0.00155416
0.00152208
0.00149067
0.00145992
0.00142984
0.00140043
0.00137168
0.0013436
0.00131616
0.00128935
0.00126316
0.00123757
0.00121254
0.00118807
0.00116412
0.00114068
0.0011178
0.0010954
0.00107345
0.00105194
0.00103085
0.00101015
0.000989828
0.00096987
0.00095026
0.000930988
0.000912043
0.000893418
0.000875111
0.000857118
0.000839439
0.000822076
0.000805033
0.000788313
0.000771923
0.00075587
0.00074016
0.000724802
0.000709802
0.000695168
0.000680907
0.000667027
0.000653533
0.00064043
0.000627724
0.000615418
0.000603515
0.000592018
0.000580927
0.000570243
0.000559964
0.000550089
0.000540616
0.000531539
0.000522856
0.000514562
0.00050665
0.000499113
0.000491946
0.00048514
0.000478686
0.000472577
0.000466803
0.000461355
0.000456222
0.000451395
0.000446863
0.000442615
0.00043864
0.000434928
0.000431467
0.000428247
0.000425255
0.000422482
0.000419916
0.000417545
0.000415361
0.000413351
0.000411506
0.000409815
0.000408269
0.000406858
0.000405574
0.000404406
0.000403348
0.00040239
0.000401526
0.000400747
0.000400046
0.000399418
0.000398857
0.000398355
0.000397909
0.000397512
0.00039716
0.000396849
0.000396574
0.000396333
0.000396121
0.000395936
0.000395774
0.000395634
0.000395512
0.000395406
0.000395315
0.000395237
0.000395171
0.000395114
0.000395066
0.000395025
0.000394991
0.000394963
0.000394939
0.000394919
0.000394904
0.000394891
0.000394881
0.000394873
0.000394868
0.000394863
0.000394861
0.000394859
0.000394858
0.000394858
0.000394859
0.00039486
0.000394862
0.000394864
0.000394866
0.000394869
0.000394871
0.000394874
0.000394877
0.00039488
0.000394883
0.000394885
0.000394888
0.00039489
0.000394892
0.000394894
)
;

boundaryField
{
    boundary
    {
        type            empty;
    }
    inlet
    {
        type            fixedValue;
        value           uniform 0;
    }
    outlet
    {
        type            zeroGradient;
    }
}


// ************************************************************************* //
