/*--------------------------------*- C++ -*----------------------------------*\
  =========                 |
  \\      /  F ield         | OpenFOAM: The Open Source CFD Toolbox
   \\    /   O peration     | Website:  https://openfoam.org
    \\  /    A nd           | Version:  7
     \\/     M anipulation  |
\*---------------------------------------------------------------------------*/
FoamFile
{
    version     2.0;
    format      ascii;
    class       volScalarField;
    location    "0.00022";
    object      O2;
}
// * * * * * * * * * * * * * * * * * * * * * * * * * * * * * * * * * * * * * //

dimensions      [0 0 0 0 0 0 0];

internalField   nonuniform List<scalar> 
500
(
0.226269
0.226269
0.226269
0.226269
0.226269
0.226269
0.226269
0.226269
0.226269
0.226269
0.226269
0.226269
0.226269
0.226269
0.226269
0.226269
0.226269
0.226269
0.226269
0.226269
0.226269
0.226269
0.226269
0.226269
0.226269
0.226269
0.226269
0.226269
0.226269
0.226269
0.226269
0.226269
0.226269
0.226269
0.226269
0.226269
0.226269
0.226269
0.226269
0.226269
0.226269
0.226269
0.226269
0.226269
0.226269
0.226269
0.226269
0.226269
0.226269
0.226269
0.226269
0.226269
0.226269
0.226269
0.226269
0.226269
0.226269
0.226269
0.226269
0.226269
0.226269
0.226269
0.226269
0.226269
0.226269
0.226269
0.226269
0.226269
0.226269
0.226269
0.226269
0.226269
0.226269
0.226269
0.226269
0.226269
0.226269
0.226269
0.226269
0.226269
0.226269
0.226269
0.226269
0.226269
0.226269
0.226269
0.226269
0.226269
0.226269
0.226269
0.226269
0.226269
0.226269
0.226269
0.226269
0.226269
0.226269
0.226269
0.226269
0.226269
0.226269
0.226269
0.226269
0.226269
0.226269
0.226269
0.226269
0.226269
0.226269
0.226269
0.226269
0.226269
0.226269
0.226269
0.226269
0.226269
0.226269
0.226269
0.226269
0.226269
0.226269
0.226269
0.226269
0.226269
0.226269
0.226269
0.226269
0.226269
0.226269
0.226269
0.226269
0.226269
0.226269
0.226269
0.226269
0.226269
0.226269
0.226269
0.226269
0.226269
0.226269
0.226269
0.226269
0.226269
0.226269
0.226269
0.226269
0.226269
0.226269
0.226269
0.226269
0.226269
0.226269
0.226269
0.226269
0.226269
0.226269
0.226269
0.226269
0.226269
0.226269
0.226269
0.226269
0.226269
0.226269
0.226269
0.226269
0.226269
0.226269
0.226269
0.226269
0.226269
0.226269
0.226269
0.226269
0.226269
0.226269
0.226269
0.226269
0.226269
0.226269
0.226269
0.226269
0.226269
0.226269
0.226269
0.226269
0.226269
0.226269
0.226269
0.226269
0.226269
0.226269
0.226269
0.226269
0.226269
0.226269
0.226269
0.226269
0.226269
0.226269
0.226269
0.226269
0.226269
0.226269
0.226269
0.226269
0.226269
0.226269
0.226269
0.226269
0.226269
0.226269
0.226269
0.226269
0.226269
0.226269
0.226269
0.226269
0.226269
0.226269
0.226269
0.226269
0.226269
0.226269
0.226269
0.226269
0.226269
0.226269
0.226269
0.226269
0.226269
0.226269
0.226269
0.226269
0.226269
0.226269
0.226269
0.226269
0.226269
0.226269
0.226269
0.226269
0.226269
0.226269
0.226269
0.226269
0.226269
0.226269
0.226269
0.226269
0.226269
0.226269
0.226269
0.226269
0.226269
0.226269
0.226269
0.226269
0.226269
0.226269
0.226269
0.226269
0.226269
0.226269
0.226269
0.226269
0.226269
0.226269
0.226269
0.22627
0.226271
0.226273
0.226277
0.226278
0.226257
0.226129
0.225579
0.223734
0.21888
0.20935
0.196084
0.179352
0.157953
0.132653
0.107374
0.086408
0.0678104
0.0563874
0.0486395
0.0434054
0.0398159
0.0372818
0.035423
0.0339999
0.0328627
0.031918
0.0311069
0.0303918
0.0297484
0.0291603
0.0286164
0.0281088
0.0276318
0.027181
0.0267531
0.0263454
0.0259556
0.0255821
0.0252233
0.0248781
0.0245458
0.0242354
0.0239385
0.0236488
0.0233657
0.0230887
0.0228171
0.0225505
0.0222884
0.0220303
0.0217757
0.0215241
0.0212751
0.0210282
0.0207832
0.0205394
0.0202966
0.0200545
0.0198125
0.0195705
0.0193281
0.019085
0.018841
0.018596
0.0183496
0.0181017
0.0178523
0.0176012
0.0173485
0.0170941
0.016838
0.0165804
0.0163214
0.0160612
0.0157999
0.0155377
0.0152751
0.0150123
0.0147496
0.0144874
0.0142261
0.0139661
0.0137079
0.0134518
0.0131983
0.0129478
0.0127007
0.0124575
0.0122186
0.0119842
0.0117548
0.0115306
0.0113119
0.0110991
0.0108922
0.0106914
0.0104969
0.0103088
0.010127
0.00995171
0.00978272
0.00961992
0.00946299
0.00931121
0.00916298
0.0090276
0.00889669
0.00877117
0.00865098
0.00853602
0.00842621
0.00832139
0.00822143
0.00812619
0.0080355
0.00794923
0.00786725
0.00778941
0.00771561
0.00764574
0.00757969
0.00751738
0.00745874
0.00740368
0.00735215
0.00730407
0.0072594
0.00721808
0.00718004
0.00714522
0.00711357
0.00708501
0.00705947
0.00703687
0.00701713
0.00700014
0.00698582
0.00697404
0.00696469
0.00695766
0.0069528
0.00694998
0.00694906
0.0069499
0.00695234
0.00695623
0.00696142
0.00696777
0.00697511
0.0069833
0.0069922
0.00700168
0.00701159
0.00702183
0.00703228
0.00704282
0.00705337
0.00706383
0.00707413
0.00708421
0.00709399
0.00710345
0.00711253
0.0071212
0.00712944
0.00713724
0.00714459
0.00715147
0.0071579
0.00716388
0.00716942
0.00717453
0.00717924
0.00718354
0.00718748
0.00719106
0.00719432
0.00719726
0.00719991
0.0072023
0.00720444
0.00720635
0.00720806
0.00720958
0.00721093
0.00721213
0.00721318
0.00721411
0.00721493
0.00721565
0.00721628
0.00721683
0.00721731
0.00721773
0.0072181
0.00721842
0.00721869
0.00721893
0.00721914
0.00721933
0.00721949
0.00721962
0.00721975
0.00721985
0.00721995
0.00722003
0.0072201
0.00722017
0.00722022
0.00722028
0.00722032
0.00722037
0.0072204
0.00722044
0.00722047
0.00722051
0.00722054
0.00722056
0.00722059
0.00722061
0.00722064
0.00722066
0.00722068
0.0072207
0.00722072
0.00722074
0.00722076
0.00722077
0.00722078
)
;

boundaryField
{
    boundary
    {
        type            empty;
    }
    inlet
    {
        type            fixedValue;
        value           uniform 0.226269;
    }
    outlet
    {
        type            zeroGradient;
    }
}


// ************************************************************************* //
