/*--------------------------------*- C++ -*----------------------------------*\
  =========                 |
  \\      /  F ield         | OpenFOAM: The Open Source CFD Toolbox
   \\    /   O peration     | Website:  https://openfoam.org
    \\  /    A nd           | Version:  7
     \\/     M anipulation  |
\*---------------------------------------------------------------------------*/
FoamFile
{
    version     2.0;
    format      ascii;
    class       volScalarField;
    location    "0.00022";
    object      OH;
}
// * * * * * * * * * * * * * * * * * * * * * * * * * * * * * * * * * * * * * //

dimensions      [0 0 0 0 0 0 0];

internalField   nonuniform List<scalar> 
500
(
9.43643e-48
1.84664e-47
2.47441e-47
2.91411e-47
3.23115e-47
3.47142e-47
3.66649e-47
3.83787e-47
4.00007e-47
4.16254e-47
4.33095e-47
4.50786e-47
4.69328e-47
4.88509e-47
5.07955e-47
5.27189e-47
5.45696e-47
5.62992e-47
5.78681e-47
5.92489e-47
6.04281e-47
6.14059e-47
6.21938e-47
6.2811e-47
6.32816e-47
6.36313e-47
6.38845e-47
6.40636e-47
6.41874e-47
6.42709e-47
6.43262e-47
6.43619e-47
6.43846e-47
6.43988e-47
6.44074e-47
6.44126e-47
6.44158e-47
6.44176e-47
6.44188e-47
6.44195e-47
6.442e-47
6.44203e-47
6.44206e-47
6.44209e-47
6.44211e-47
6.44214e-47
6.44217e-47
6.44219e-47
6.44223e-47
6.44226e-47
6.44229e-47
6.44233e-47
6.44237e-47
6.44241e-47
6.44246e-47
6.4425e-47
6.44255e-47
6.44261e-47
6.44266e-47
6.44272e-47
6.44279e-47
6.44285e-47
6.44292e-47
6.443e-47
6.44307e-47
6.44316e-47
6.44324e-47
6.44333e-47
6.44343e-47
6.44353e-47
6.44363e-47
6.44374e-47
6.44386e-47
6.44398e-47
6.44411e-47
6.44424e-47
6.44438e-47
6.44452e-47
6.44467e-47
6.44483e-47
6.44499e-47
6.44516e-47
6.44534e-47
6.44552e-47
6.44571e-47
6.44591e-47
6.44612e-47
6.44633e-47
6.44655e-47
6.44678e-47
6.44702e-47
6.44726e-47
6.44752e-47
6.44778e-47
6.44805e-47
6.44833e-47
6.44862e-47
6.44892e-47
6.44922e-47
6.44954e-47
6.44986e-47
6.4502e-47
6.45054e-47
6.45089e-47
6.45125e-47
6.45163e-47
6.45201e-47
6.4524e-47
6.45279e-47
6.4532e-47
6.45362e-47
6.45405e-47
6.45448e-47
6.45493e-47
6.45538e-47
6.45584e-47
6.45632e-47
6.45679e-47
6.45728e-47
6.45778e-47
6.45828e-47
6.45878e-47
6.45928e-47
6.45978e-47
6.46023e-47
6.46064e-47
6.46113e-47
6.4616e-47
6.46205e-47
6.46249e-47
6.46293e-47
6.46336e-47
6.4638e-47
6.46425e-47
6.46473e-47
6.46525e-47
6.4658e-47
6.4664e-47
6.46704e-47
6.46771e-47
6.46841e-47
6.46913e-47
6.46985e-47
6.47056e-47
6.47125e-47
6.47193e-47
6.47257e-47
6.47319e-47
6.47379e-47
6.47436e-47
6.4749e-47
6.47541e-47
6.47591e-47
6.47638e-47
6.47683e-47
6.47725e-47
6.47765e-47
6.47803e-47
6.47838e-47
6.4787e-47
6.479e-47
6.47926e-47
6.47949e-47
6.47968e-47
6.47984e-47
6.47996e-47
6.48004e-47
6.48007e-47
6.48006e-47
6.48e-47
6.47989e-47
6.47973e-47
6.47951e-47
6.47923e-47
6.47889e-47
6.47849e-47
6.47803e-47
6.47749e-47
6.47689e-47
6.4762e-47
6.47545e-47
6.47461e-47
6.47369e-47
6.47269e-47
6.47159e-47
6.47041e-47
6.46913e-47
6.46776e-47
6.46628e-47
6.4647e-47
6.46302e-47
6.46124e-47
6.45934e-47
6.45733e-47
6.4552e-47
6.45295e-47
6.45059e-47
6.4481e-47
6.44549e-47
6.44276e-47
6.43989e-47
6.4369e-47
6.43377e-47
6.43051e-47
6.42711e-47
6.42359e-47
6.41992e-47
6.41612e-47
6.41218e-47
6.4081e-47
6.40388e-47
6.39952e-47
6.39503e-47
6.39042e-47
6.38575e-47
6.38156e-47
6.38151e-47
6.41093e-47
6.64309e-47
8.25095e-47
1.90918e-46
9.12375e-46
5.66055e-45
3.65702e-44
2.35581e-43
1.5027e-42
9.48019e-42
5.91349e-41
3.64659e-40
2.22274e-39
1.33905e-38
7.9719e-38
4.68957e-37
2.72564e-36
1.56506e-35
8.87745e-35
4.97411e-34
2.75293e-33
1.50495e-32
8.12651e-32
4.33468e-31
2.2841e-30
1.18913e-29
6.11742e-29
3.11048e-28
1.56358e-27
7.77311e-27
3.82318e-26
1.86132e-25
8.97492e-25
4.28886e-24
2.0346e-23
9.57192e-23
4.47334e-22
2.07922e-21
9.62243e-21
4.43882e-20
2.04321e-19
9.39387e-19
4.3173e-18
1.98462e-17
9.12826e-17
4.20127e-16
1.9346e-15
8.91007e-15
4.10269e-14
1.88788e-13
8.67866e-13
3.98501e-12
1.82771e-11
8.37481e-11
3.86771e-10
1.80594e-09
8.49507e-09
4.02677e-08
1.95529e-07
1.02411e-06
6.27545e-06
4.31105e-05
0.000233456
0.000599299
0.000821063
0.000988078
0.00139952
0.00223821
0.00345736
0.00483786
0.00629837
0.00745483
0.00838862
0.00912349
0.00969629
0.0101434
0.010495
0.0107739
0.0109972
0.0111775
0.0113237
0.0114428
0.0115398
0.0116186
0.0116821
0.0117327
0.0117723
0.0118025
0.0118245
0.0118394
0.0118479
0.011851
0.0118491
0.0118428
0.0118326
0.0118194
0.0118037
0.0117854
0.0117647
0.0117417
0.0117166
0.0116894
0.0116603
0.0116294
0.0115967
0.0115622
0.0115262
0.0114884
0.0114491
0.0114081
0.0113656
0.0113215
0.0112758
0.0112286
0.0111797
0.0111293
0.0110774
0.0110239
0.0109688
0.0109123
0.0108542
0.0107947
0.0107338
0.0106715
0.0106079
0.0105431
0.0104772
0.0104102
0.0103424
0.0102738
0.0102045
0.0101348
0.0100647
0.0099944
0.00992412
0.00985401
0.00978424
0.00971499
0.00964644
0.00957876
0.0095121
0.00944662
0.00938246
0.00931974
0.00925857
0.00919904
0.00914121
0.00908512
0.00903081
0.00897825
0.00892743
0.00887829
0.00883076
0.00878473
0.00874008
0.0086967
0.00865442
0.00861312
0.00857256
0.00853258
0.00849286
0.00845327
0.00841365
0.00837383
0.00833363
0.00829288
0.00825141
0.00820908
0.00816576
0.00812133
0.00807572
0.00802884
0.00798067
0.00793117
0.00788036
0.00782826
0.00777491
0.00772037
0.00766475
0.00760812
0.00755061
0.00749234
0.00743346
0.0073741
0.00731442
0.00725456
0.00719469
0.00713497
0.00707554
0.00701657
0.00695819
0.00690056
0.0068438
0.00678804
0.00673341
0.00668
0.00662792
0.00657726
0.0065281
0.0064805
0.00643452
0.00639022
0.00634762
0.00630677
0.00626768
0.00623036
0.0061948
0.00616102
0.00612898
0.00609867
0.00607007
0.00604313
0.00601782
0.00599409
0.0059719
0.0059512
0.00593192
0.00591401
0.00589742
0.00588208
0.00586793
0.0058549
0.00584294
0.00583199
0.00582197
0.00581284
0.00580454
0.005797
0.00579018
0.00578402
0.00577846
0.00577347
0.005769
0.005765
0.00576143
0.00575825
0.00575543
0.00575294
0.00575073
0.0057488
0.0057471
0.00574561
0.00574431
0.00574318
0.00574221
0.00574136
0.00574064
0.00574002
0.0057395
0.00573905
0.00573868
0.00573837
0.00573811
0.0057379
0.00573772
0.00573759
0.00573748
0.0057374
0.00573734
0.0057373
0.00573728
0.00573727
0.00573727
0.00573728
0.0057373
0.00573732
0.00573735
0.00573739
0.00573743
0.00573747
0.00573751
0.00573756
0.0057376
0.00573765
0.0057377
0.00573774
0.00573779
0.00573783
0.00573788
0.00573792
0.00573796
0.00573799
0.00573801
)
;

boundaryField
{
    boundary
    {
        type            empty;
    }
    inlet
    {
        type            fixedValue;
        value           uniform 0;
    }
    outlet
    {
        type            zeroGradient;
    }
}


// ************************************************************************* //
