/*--------------------------------*- C++ -*----------------------------------*\
  =========                 |
  \\      /  F ield         | OpenFOAM: The Open Source CFD Toolbox
   \\    /   O peration     | Website:  https://openfoam.org
    \\  /    A nd           | Version:  7
     \\/     M anipulation  |
\*---------------------------------------------------------------------------*/
FoamFile
{
    version     2.0;
    format      ascii;
    class       volScalarField;
    location    "0.00022";
    object      rho;
}
// * * * * * * * * * * * * * * * * * * * * * * * * * * * * * * * * * * * * * //

dimensions      [1 -3 0 0 0 0 0];

internalField   nonuniform List<scalar> 
500
(
0.864439
0.864398
0.86435
0.864288
0.864207
0.864101
0.863968
0.863805
0.863613
0.863391
0.863144
0.862877
0.862594
0.862305
0.862017
0.861739
0.861477
0.861239
0.861028
0.860846
0.860694
0.860569
0.86047
0.860393
0.860335
0.860292
0.860261
0.860239
0.860224
0.860214
0.860207
0.860203
0.8602
0.860198
0.860197
0.860196
0.860196
0.860195
0.860195
0.860195
0.860195
0.860195
0.860195
0.860195
0.860195
0.860195
0.860194
0.860194
0.860194
0.860194
0.860194
0.860194
0.860194
0.860194
0.860194
0.860193
0.860193
0.860193
0.860193
0.860193
0.860193
0.860193
0.860192
0.860192
0.860192
0.860192
0.860192
0.860191
0.860191
0.860191
0.860191
0.860191
0.86019
0.86019
0.86019
0.86019
0.860189
0.860189
0.860189
0.860189
0.860188
0.860188
0.860188
0.860187
0.860187
0.860187
0.860186
0.860186
0.860186
0.860185
0.860185
0.860184
0.860184
0.860184
0.860183
0.860183
0.860182
0.860182
0.860181
0.860181
0.86018
0.86018
0.860179
0.860179
0.860178
0.860178
0.860177
0.860177
0.860176
0.860175
0.860175
0.860174
0.860174
0.860173
0.860172
0.860172
0.860171
0.86017
0.86017
0.860169
0.860168
0.860167
0.860167
0.860166
0.860165
0.860165
0.860164
0.860163
0.860162
0.860162
0.860161
0.860161
0.86016
0.860159
0.860158
0.860158
0.860157
0.860156
0.860155
0.860154
0.860153
0.860152
0.860151
0.860151
0.86015
0.860149
0.860148
0.860147
0.860146
0.860145
0.860145
0.860144
0.860143
0.860143
0.860142
0.860141
0.860141
0.86014
0.86014
0.860139
0.860139
0.860138
0.860138
0.860137
0.860137
0.860137
0.860137
0.860136
0.860136
0.860136
0.860136
0.860136
0.860137
0.860137
0.860137
0.860137
0.860138
0.860138
0.860139
0.86014
0.86014
0.860141
0.860142
0.860143
0.860145
0.860146
0.860147
0.860149
0.86015
0.860152
0.860154
0.860156
0.860158
0.86016
0.860163
0.860165
0.860168
0.860171
0.860174
0.860177
0.86018
0.860184
0.860188
0.860191
0.860195
0.860199
0.860204
0.860208
0.860213
0.860218
0.860223
0.860228
0.860233
0.860238
0.860244
0.86025
0.860256
0.860262
0.860268
0.860275
0.860281
0.860288
0.860295
0.860302
0.860309
0.860317
0.860324
0.860332
0.86034
0.860347
0.860355
0.860364
0.860372
0.86038
0.860389
0.860397
0.860406
0.860414
0.860423
0.860432
0.860441
0.86045
0.860459
0.860468
0.860477
0.860486
0.860496
0.860505
0.860514
0.860524
0.860533
0.860543
0.860553
0.860562
0.860572
0.860582
0.860592
0.860602
0.860612
0.860622
0.860633
0.860643
0.860653
0.860664
0.860675
0.860686
0.860697
0.860709
0.860721
0.860731
0.860732
0.860694
0.860526
0.859946
0.858098
0.852479
0.836127
0.79255
0.699168
0.564951
0.441427
0.355919
0.30038
0.262551
0.235708
0.216822
0.20302
0.192559
0.185106
0.179605
0.175237
0.171685
0.168726
0.166213
0.164042
0.162142
0.160461
0.158958
0.157606
0.156379
0.15526
0.154234
0.153289
0.152414
0.151602
0.150845
0.150138
0.149476
0.148854
0.148269
0.147718
0.147198
0.146721
0.146276
0.14585
0.145443
0.145052
0.144678
0.14432
0.143975
0.143645
0.143327
0.143022
0.142728
0.142446
0.142175
0.141913
0.141662
0.14142
0.141187
0.140962
0.140746
0.140537
0.140336
0.140142
0.139955
0.139774
0.139599
0.139429
0.139265
0.139104
0.138948
0.138794
0.138644
0.138495
0.138348
0.138202
0.138055
0.137907
0.137758
0.137606
0.137451
0.137292
0.137128
0.136958
0.136782
0.136598
0.136407
0.136206
0.135997
0.135778
0.135549
0.13531
0.135061
0.134801
0.134531
0.134251
0.133961
0.133662
0.133355
0.13304
0.132717
0.132389
0.132055
0.131716
0.131374
0.131034
0.130694
0.130356
0.13002
0.129688
0.129362
0.129042
0.12873
0.128426
0.128132
0.127849
0.127578
0.127319
0.127073
0.12684
0.126621
0.126416
0.126225
0.126049
0.125887
0.125739
0.125605
0.125485
0.125378
0.125284
0.125202
0.125132
0.125074
0.125025
0.124987
0.124957
0.124936
0.124923
0.124916
0.124916
0.124921
0.124931
0.124945
0.124963
0.124984
0.125008
0.125033
0.12506
0.125089
0.125117
0.125147
0.125176
0.125205
0.125234
0.125262
0.125289
0.125315
0.125341
0.125365
0.125388
0.12541
0.12543
0.125449
0.125467
0.125484
0.125499
0.125514
0.125527
0.125539
0.12555
0.12556
0.125569
0.125578
0.125585
0.125592
0.125598
0.125603
0.125608
0.125612
0.125616
0.125619
0.125622
0.125624
0.125627
0.125628
0.12563
0.125631
0.125632
0.125633
0.125634
0.125634
0.125635
0.125635
0.125635
0.125635
0.125635
0.125635
0.125635
0.125635
0.125635
0.125634
0.125634
0.125634
0.125633
0.125633
0.125633
0.125632
0.125632
0.125631
0.125631
0.125631
0.12563
0.12563
0.125629
0.125629
0.125628
0.125628
0.125628
0.125627
0.125627
0.125626
0.125626
0.125626
0.125625
0.125625
0.125624
0.125624
0.125624
0.125624
)
;

boundaryField
{
    boundary
    {
        type            empty;
    }
    inlet
    {
        type            calculated;
        value           uniform 0.864466;
    }
    outlet
    {
        type            calculated;
        value           uniform 0.125624;
    }
}


// ************************************************************************* //
