/*--------------------------------*- C++ -*----------------------------------*\
  =========                 |
  \\      /  F ield         | OpenFOAM: The Open Source CFD Toolbox
   \\    /   O peration     | Website:  https://openfoam.org
    \\  /    A nd           | Version:  7
     \\/     M anipulation  |
\*---------------------------------------------------------------------------*/
FoamFile
{
    version     2.0;
    format      ascii;
    class       volScalarField;
    location    "0.00022";
    object      T;
}
// * * * * * * * * * * * * * * * * * * * * * * * * * * * * * * * * * * * * * //

dimensions      [0 0 0 1 0 0 0];

internalField   nonuniform List<scalar> 
500
(
300.009
300.023
300.04
300.061
300.09
300.126
300.173
300.229
300.296
300.373
300.459
300.552
300.651
300.752
300.852
300.949
301.04
301.124
301.198
301.261
301.315
301.358
301.393
301.42
301.44
301.455
301.466
301.474
301.479
301.483
301.485
301.486
301.487
301.488
301.488
301.489
301.489
301.489
301.489
301.489
301.489
301.489
301.489
301.489
301.489
301.489
301.489
301.489
301.489
301.489
301.489
301.489
301.489
301.489
301.489
301.489
301.489
301.489
301.489
301.489
301.489
301.489
301.489
301.489
301.489
301.489
301.489
301.489
301.489
301.489
301.489
301.489
301.489
301.489
301.489
301.489
301.489
301.489
301.49
301.49
301.49
301.49
301.49
301.49
301.49
301.49
301.49
301.49
301.49
301.49
301.49
301.49
301.491
301.491
301.491
301.491
301.491
301.491
301.491
301.491
301.491
301.492
301.492
301.492
301.492
301.492
301.492
301.492
301.492
301.493
301.493
301.493
301.493
301.493
301.493
301.494
301.494
301.494
301.494
301.494
301.495
301.495
301.495
301.495
301.495
301.496
301.496
301.496
301.496
301.496
301.496
301.497
301.497
301.497
301.497
301.497
301.498
301.498
301.498
301.498
301.499
301.499
301.499
301.499
301.5
301.5
301.5
301.5
301.501
301.501
301.501
301.501
301.501
301.502
301.502
301.502
301.502
301.502
301.502
301.502
301.503
301.503
301.503
301.503
301.503
301.503
301.503
301.503
301.503
301.503
301.503
301.503
301.503
301.502
301.502
301.502
301.502
301.502
301.501
301.501
301.501
301.5
301.5
301.5
301.499
301.499
301.498
301.497
301.497
301.496
301.495
301.495
301.494
301.493
301.492
301.491
301.49
301.489
301.488
301.487
301.486
301.484
301.483
301.482
301.48
301.479
301.477
301.476
301.474
301.472
301.47
301.469
301.467
301.465
301.463
301.461
301.458
301.456
301.454
301.452
301.449
301.447
301.444
301.442
301.439
301.437
301.434
301.431
301.428
301.426
301.423
301.42
301.417
301.414
301.411
301.408
301.405
301.402
301.399
301.396
301.392
301.389
301.386
301.383
301.38
301.376
301.373
301.37
301.366
301.363
301.36
301.356
301.353
301.349
301.346
301.342
301.339
301.335
301.332
301.328
301.324
301.321
301.317
301.313
301.31
301.306
301.302
301.299
301.296
301.296
301.302
301.331
301.421
301.691
302.479
304.763
311.323
329.662
376.113
469.897
608.34
763.721
915.675
1058.65
1189.11
1300.65
1395.39
1475.31
1538.64
1589.26
1632.09
1668.85
1700.91
1729.24
1754.58
1777.44
1798.23
1817.26
1834.79
1851
1866.06
1880.11
1893.25
1905.58
1917.19
1928.14
1938.48
1948.28
1957.58
1966.4
1974.8
1982.77
1990.15
1997.08
2003.75
2010.17
2016.35
2022.31
2028.05
2033.59
2038.93
2044.08
2049.04
2053.83
2058.46
2062.92
2067.22
2071.36
2075.36
2079.22
2082.93
2086.51
2089.96
2093.29
2096.5
2099.59
2102.58
2105.46
2108.25
2110.95
2113.57
2116.12
2118.61
2121.05
2123.44
2125.81
2128.15
2130.5
2132.85
2135.22
2137.63
2140.09
2142.61
2145.22
2147.92
2150.74
2153.68
2156.75
2159.98
2163.37
2166.94
2170.69
2174.62
2178.76
2183.09
2187.63
2192.37
2197.31
2202.45
2207.77
2213.28
2218.96
2224.79
2230.78
2236.91
2243.16
2249.44
2255.76
2262.13
2268.52
2274.9
2281.25
2287.55
2293.78
2299.9
2305.92
2311.79
2317.51
2323.06
2328.41
2333.57
2338.51
2343.23
2347.72
2351.98
2355.99
2359.76
2363.29
2366.57
2369.62
2372.44
2375.03
2377.4
2379.56
2381.52
2383.29
2384.88
2386.3
2387.56
2388.68
2389.66
2390.52
2391.26
2391.9
2392.45
2392.91
2393.3
2393.63
2393.9
2394.12
2394.29
2394.43
2394.54
2394.62
2394.68
2394.73
2394.75
2394.77
2394.77
2394.77
2394.77
2394.76
2394.74
2394.73
2394.72
2394.7
2394.69
2394.68
2394.67
2394.66
2394.65
2394.64
2394.64
2394.64
2394.63
2394.63
2394.64
2394.64
2394.64
2394.64
2394.65
2394.66
2394.66
2394.67
2394.68
2394.68
2394.69
2394.7
2394.71
2394.72
2394.72
2394.73
2394.74
2394.75
2394.76
2394.77
2394.78
2394.79
2394.8
2394.8
2394.81
2394.82
2394.83
2394.84
2394.85
2394.86
2394.86
2394.87
2394.88
2394.89
2394.9
2394.91
2394.91
2394.92
2394.93
2394.94
2394.94
2394.95
2394.96
2394.97
2394.97
2394.98
2394.99
2394.99
2395
2395.01
2395.01
2395.02
2395.02
2395.03
)
;

boundaryField
{
    boundary
    {
        type            empty;
    }
    inlet
    {
        type            fixedValue;
        value           uniform 300;
    }
    outlet
    {
        type            zeroGradient;
    }
}


// ************************************************************************* //
