/*--------------------------------*- C++ -*----------------------------------*\
  =========                 |
  \\      /  F ield         | OpenFOAM: The Open Source CFD Toolbox
   \\    /   O peration     | Website:  https://openfoam.org
    \\  /    A nd           | Version:  7
     \\/     M anipulation  |
\*---------------------------------------------------------------------------*/
FoamFile
{
    version     2.0;
    format      ascii;
    class       volVectorField;
    location    "0.00022";
    object      U;
}
// * * * * * * * * * * * * * * * * * * * * * * * * * * * * * * * * * * * * * //

dimensions      [0 1 -1 0 0 0 0];

internalField   nonuniform List<vector> 
500
(
(2.3489 0 0)
(2.34871 0 0)
(2.34851 0 0)
(2.34836 0 0)
(2.34822 0 0)
(2.3481 0 0)
(2.34799 0 0)
(2.34788 0 0)
(2.34777 0 0)
(2.34765 0 0)
(2.34752 0 0)
(2.34738 0 0)
(2.34721 0 0)
(2.34702 0 0)
(2.34681 0 0)
(2.34657 0 0)
(2.3463 0 0)
(2.34603 0 0)
(2.34574 0 0)
(2.34546 0 0)
(2.34517 0 0)
(2.34489 0 0)
(2.34462 0 0)
(2.34436 0 0)
(2.34411 0 0)
(2.34387 0 0)
(2.34364 0 0)
(2.34342 0 0)
(2.3432 0 0)
(2.34299 0 0)
(2.34278 0 0)
(2.34258 0 0)
(2.34237 0 0)
(2.34217 0 0)
(2.34197 0 0)
(2.34177 0 0)
(2.34157 0 0)
(2.34137 0 0)
(2.34117 0 0)
(2.34098 0 0)
(2.34078 0 0)
(2.34058 0 0)
(2.34038 0 0)
(2.34018 0 0)
(2.33998 0 0)
(2.33978 0 0)
(2.33958 0 0)
(2.33939 0 0)
(2.33919 0 0)
(2.33899 0 0)
(2.33879 0 0)
(2.33859 0 0)
(2.33839 0 0)
(2.33819 0 0)
(2.33799 0 0)
(2.3378 0 0)
(2.3376 0 0)
(2.3374 0 0)
(2.3372 0 0)
(2.337 0 0)
(2.3368 0 0)
(2.3366 0 0)
(2.3364 0 0)
(2.3362 0 0)
(2.336 0 0)
(2.3358 0 0)
(2.3356 0 0)
(2.3354 0 0)
(2.33521 0 0)
(2.33501 0 0)
(2.33481 0 0)
(2.33461 0 0)
(2.33441 0 0)
(2.33421 0 0)
(2.33401 0 0)
(2.33381 0 0)
(2.33361 0 0)
(2.33341 0 0)
(2.3332 0 0)
(2.333 0 0)
(2.3328 0 0)
(2.3326 0 0)
(2.3324 0 0)
(2.3322 0 0)
(2.332 0 0)
(2.3318 0 0)
(2.3316 0 0)
(2.33139 0 0)
(2.33119 0 0)
(2.33099 0 0)
(2.33079 0 0)
(2.33059 0 0)
(2.33038 0 0)
(2.33018 0 0)
(2.32998 0 0)
(2.32978 0 0)
(2.32957 0 0)
(2.32937 0 0)
(2.32917 0 0)
(2.32897 0 0)
(2.32876 0 0)
(2.32856 0 0)
(2.32835 0 0)
(2.32815 0 0)
(2.32795 0 0)
(2.32774 0 0)
(2.32754 0 0)
(2.32733 0 0)
(2.32713 0 0)
(2.32693 0 0)
(2.32672 0 0)
(2.32652 0 0)
(2.32631 0 0)
(2.32611 0 0)
(2.3259 0 0)
(2.32569 0 0)
(2.32549 0 0)
(2.32528 0 0)
(2.32508 0 0)
(2.32487 0 0)
(2.32467 0 0)
(2.32446 0 0)
(2.32425 0 0)
(2.32405 0 0)
(2.32383 0 0)
(2.32362 0 0)
(2.32343 0 0)
(2.32323 0 0)
(2.32302 0 0)
(2.32281 0 0)
(2.3226 0 0)
(2.3224 0 0)
(2.32219 0 0)
(2.32199 0 0)
(2.32178 0 0)
(2.32157 0 0)
(2.32137 0 0)
(2.32116 0 0)
(2.32096 0 0)
(2.32075 0 0)
(2.32054 0 0)
(2.32034 0 0)
(2.32013 0 0)
(2.31992 0 0)
(2.31972 0 0)
(2.31951 0 0)
(2.31931 0 0)
(2.3191 0 0)
(2.31889 0 0)
(2.31869 0 0)
(2.31848 0 0)
(2.31827 0 0)
(2.31807 0 0)
(2.31786 0 0)
(2.31766 0 0)
(2.31745 0 0)
(2.31725 0 0)
(2.31704 0 0)
(2.31683 0 0)
(2.31663 0 0)
(2.31642 0 0)
(2.31622 0 0)
(2.31601 0 0)
(2.31581 0 0)
(2.3156 0 0)
(2.3154 0 0)
(2.3152 0 0)
(2.31499 0 0)
(2.31479 0 0)
(2.31458 0 0)
(2.31438 0 0)
(2.31418 0 0)
(2.31397 0 0)
(2.31377 0 0)
(2.31357 0 0)
(2.31337 0 0)
(2.31316 0 0)
(2.31296 0 0)
(2.31276 0 0)
(2.31256 0 0)
(2.31236 0 0)
(2.31216 0 0)
(2.31196 0 0)
(2.31175 0 0)
(2.31155 0 0)
(2.31135 0 0)
(2.31115 0 0)
(2.31096 0 0)
(2.31076 0 0)
(2.31056 0 0)
(2.31036 0 0)
(2.31016 0 0)
(2.30996 0 0)
(2.30977 0 0)
(2.30957 0 0)
(2.30937 0 0)
(2.30918 0 0)
(2.30898 0 0)
(2.30878 0 0)
(2.30859 0 0)
(2.30839 0 0)
(2.3082 0 0)
(2.308 0 0)
(2.30781 0 0)
(2.30762 0 0)
(2.30742 0 0)
(2.30723 0 0)
(2.30704 0 0)
(2.30685 0 0)
(2.30666 0 0)
(2.30647 0 0)
(2.30628 0 0)
(2.30609 0 0)
(2.3059 0 0)
(2.30571 0 0)
(2.30552 0 0)
(2.30533 0 0)
(2.30514 0 0)
(2.30496 0 0)
(2.30477 0 0)
(2.30458 0 0)
(2.3044 0 0)
(2.30421 0 0)
(2.30403 0 0)
(2.30384 0 0)
(2.30366 0 0)
(2.30348 0 0)
(2.3033 0 0)
(2.30311 0 0)
(2.30293 0 0)
(2.30275 0 0)
(2.30257 0 0)
(2.30239 0 0)
(2.30221 0 0)
(2.30203 0 0)
(2.30186 0 0)
(2.30168 0 0)
(2.3015 0 0)
(2.30133 0 0)
(2.30115 0 0)
(2.30098 0 0)
(2.3008 0 0)
(2.30063 0 0)
(2.30046 0 0)
(2.30028 0 0)
(2.30011 0 0)
(2.29994 0 0)
(2.29977 0 0)
(2.2996 0 0)
(2.29943 0 0)
(2.29926 0 0)
(2.29909 0 0)
(2.29893 0 0)
(2.29876 0 0)
(2.2986 0 0)
(2.29843 0 0)
(2.29826 0 0)
(2.2981 0 0)
(2.29794 0 0)
(2.29777 0 0)
(2.29761 0 0)
(2.29745 0 0)
(2.29729 0 0)
(2.29713 0 0)
(2.29697 0 0)
(2.29681 0 0)
(2.29665 0 0)
(2.29649 0 0)
(2.29633 0 0)
(2.29619 0 0)
(2.29605 0 0)
(2.2961 0 0)
(2.29656 0 0)
(2.29851 0 0)
(2.30495 0 0)
(2.32353 0 0)
(2.37176 0 0)
(2.48757 0 0)
(2.75146 0 0)
(3.30849 0 0)
(4.27516 0 0)
(5.48426 0 0)
(6.70615 0 0)
(7.81732 0 0)
(8.78623 0 0)
(9.60842 0 0)
(10.2959 0 0)
(10.8654 0 0)
(11.3237 0 0)
(11.6862 0 0)
(11.982 0 0)
(12.2332 0 0)
(12.4513 0 0)
(12.6431 0 0)
(12.8133 0 0)
(12.966 0 0)
(13.1041 0 0)
(13.2299 0 0)
(13.3452 0 0)
(13.4515 0 0)
(13.5499 0 0)
(13.6414 0 0)
(13.7267 0 0)
(13.8065 0 0)
(13.8815 0 0)
(13.952 0 0)
(14.0185 0 0)
(14.0814 0 0)
(14.1409 0 0)
(14.1973 0 0)
(14.2509 0 0)
(14.3018 0 0)
(14.349 0 0)
(14.393 0 0)
(14.4355 0 0)
(14.4765 0 0)
(14.516 0 0)
(14.5541 0 0)
(14.5908 0 0)
(14.6264 0 0)
(14.6607 0 0)
(14.694 0 0)
(14.7261 0 0)
(14.7573 0 0)
(14.7876 0 0)
(14.8169 0 0)
(14.8454 0 0)
(14.8731 0 0)
(14.9 0 0)
(14.9261 0 0)
(14.9516 0 0)
(14.9763 0 0)
(15.0005 0 0)
(15.024 0 0)
(15.047 0 0)
(15.0694 0 0)
(15.0913 0 0)
(15.1126 0 0)
(15.1336 0 0)
(15.154 0 0)
(15.174 0 0)
(15.1937 0 0)
(15.2129 0 0)
(15.2318 0 0)
(15.2504 0 0)
(15.2686 0 0)
(15.2865 0 0)
(15.3041 0 0)
(15.3214 0 0)
(15.3385 0 0)
(15.3553 0 0)
(15.3719 0 0)
(15.3882 0 0)
(15.4042 0 0)
(15.42 0 0)
(15.4356 0 0)
(15.4509 0 0)
(15.466 0 0)
(15.4808 0 0)
(15.4953 0 0)
(15.5095 0 0)
(15.5234 0 0)
(15.5369 0 0)
(15.5501 0 0)
(15.563 0 0)
(15.5754 0 0)
(15.5874 0 0)
(15.599 0 0)
(15.6101 0 0)
(15.6207 0 0)
(15.6309 0 0)
(15.6405 0 0)
(15.6496 0 0)
(15.6583 0 0)
(15.6664 0 0)
(15.674 0 0)
(15.6809 0 0)
(15.6869 0 0)
(15.6923 0 0)
(15.6975 0 0)
(15.7019 0 0)
(15.7058 0 0)
(15.7092 0 0)
(15.7121 0 0)
(15.7144 0 0)
(15.7164 0 0)
(15.7178 0 0)
(15.7189 0 0)
(15.7197 0 0)
(15.7201 0 0)
(15.7202 0 0)
(15.7201 0 0)
(15.7197 0 0)
(15.7192 0 0)
(15.7185 0 0)
(15.7177 0 0)
(15.7168 0 0)
(15.7159 0 0)
(15.7149 0 0)
(15.7139 0 0)
(15.713 0 0)
(15.7121 0 0)
(15.7113 0 0)
(15.7105 0 0)
(15.7098 0 0)
(15.7093 0 0)
(15.7088 0 0)
(15.7085 0 0)
(15.7083 0 0)
(15.7081 0 0)
(15.7081 0 0)
(15.7083 0 0)
(15.7085 0 0)
(15.7088 0 0)
(15.7092 0 0)
(15.7097 0 0)
(15.7102 0 0)
(15.7109 0 0)
(15.7115 0 0)
(15.7123 0 0)
(15.713 0 0)
(15.7138 0 0)
(15.7146 0 0)
(15.7154 0 0)
(15.7163 0 0)
(15.7171 0 0)
(15.7179 0 0)
(15.7187 0 0)
(15.7194 0 0)
(15.7202 0 0)
(15.7209 0 0)
(15.7215 0 0)
(15.7222 0 0)
(15.7228 0 0)
(15.7233 0 0)
(15.7238 0 0)
(15.7243 0 0)
(15.7247 0 0)
(15.7251 0 0)
(15.7255 0 0)
(15.7258 0 0)
(15.7261 0 0)
(15.7263 0 0)
(15.7265 0 0)
(15.7266 0 0)
(15.7267 0 0)
(15.7268 0 0)
(15.7269 0 0)
(15.7269 0 0)
(15.7269 0 0)
(15.7269 0 0)
(15.7268 0 0)
(15.7268 0 0)
(15.7267 0 0)
(15.7266 0 0)
(15.7264 0 0)
(15.7263 0 0)
(15.7261 0 0)
(15.726 0 0)
(15.7258 0 0)
(15.7256 0 0)
(15.7254 0 0)
(15.7252 0 0)
(15.7249 0 0)
(15.7247 0 0)
(15.7245 0 0)
(15.7242 0 0)
(15.724 0 0)
(15.7237 0 0)
(15.7235 0 0)
(15.7232 0 0)
(15.7229 0 0)
(15.7227 0 0)
(15.7224 0 0)
(15.7221 0 0)
(15.7218 0 0)
(15.7215 0 0)
(15.7212 0 0)
(15.721 0 0)
(15.7207 0 0)
(15.7204 0 0)
(15.7201 0 0)
(15.7198 0 0)
(15.7195 0 0)
(15.7192 0 0)
(15.7189 0 0)
(15.7186 0 0)
(15.7183 0 0)
(15.718 0 0)
(15.7177 0 0)
(15.7174 0 0)
(15.7171 0 0)
(15.7168 0 0)
(15.7164 0 0)
(15.7161 0 0)
(15.7158 0 0)
(15.7155 0 0)
(15.7152 0 0)
(15.7148 0 0)
(15.7144 0 0)
)
;

boundaryField
{
    boundary
    {
        type            empty;
    }
    inlet
    {
        type            fixedValue;
        value           uniform (2.34893 0 0);
    }
    outlet
    {
        type            zeroGradient;
    }
}


// ************************************************************************* //
