/*--------------------------------*- C++ -*----------------------------------*\
  =========                 |
  \\      /  F ield         | OpenFOAM: The Open Source CFD Toolbox
   \\    /   O peration     | Website:  https://openfoam.org
    \\  /    A nd           | Version:  7
     \\/     M anipulation  |
\*---------------------------------------------------------------------------*/
FoamFile
{
    version     2.0;
    format      ascii;
    class       volScalarField;
    location    "0.00031";
    object      H2O;
}
// * * * * * * * * * * * * * * * * * * * * * * * * * * * * * * * * * * * * * //

dimensions      [0 0 0 0 0 0 0];

internalField   nonuniform List<scalar> 
126
(
8.70044e-46
8.70038e-46
8.70018e-46
8.69975e-46
8.699e-46
8.69786e-46
8.69629e-46
8.69431e-46
8.69197e-46
8.68936e-46
8.68662e-46
8.68388e-46
8.68133e-46
8.67913e-46
8.67744e-46
8.67639e-46
8.67606e-46
8.6765e-46
8.67767e-46
8.6795e-46
8.68186e-46
8.68462e-46
8.68761e-46
8.6907e-46
8.69375e-46
8.69665e-46
8.69935e-46
8.70178e-46
8.70395e-46
8.70584e-46
8.70747e-46
8.70887e-46
8.71007e-46
8.71109e-46
8.71198e-46
8.71274e-46
8.7134e-46
8.71398e-46
8.7145e-46
8.71494e-46
8.71534e-46
8.71568e-46
8.71597e-46
8.71621e-46
8.7164e-46
8.71654e-46
8.71662e-46
8.71665e-46
8.71661e-46
8.71652e-46
8.71635e-46
8.71612e-46
8.71581e-46
8.71543e-46
8.71497e-46
8.71442e-46
8.71379e-46
8.71307e-46
8.71225e-46
8.71134e-46
8.71032e-46
8.7092e-46
8.70797e-46
8.70662e-46
8.70516e-46
8.70358e-46
8.70187e-46
8.70003e-46
8.69806e-46
8.69595e-46
8.6937e-46
8.6913e-46
8.68876e-46
8.68607e-46
8.68321e-46
8.6802e-46
8.67703e-46
8.67369e-46
8.67019e-46
8.66651e-46
8.66265e-46
8.65862e-46
8.65441e-46
8.65002e-46
8.64547e-46
8.64093e-46
8.63729e-46
8.63988e-46
8.67959e-46
8.93401e-46
1.04164e-45
1.88632e-45
6.65188e-45
3.33478e-44
1.8202e-43
1.00613e-42
5.55934e-42
3.06765e-41
1.69285e-40
9.36144e-40
5.19917e-39
2.9061e-38
1.63775e-37
9.31684e-37
5.35243e-36
3.10375e-35
1.81426e-34
1.0669e-33
6.29658e-33
3.71969e-32
2.19389e-31
1.28884e-30
7.52565e-30
4.35981e-29
2.50218e-28
1.42089e-27
7.9755e-27
4.42135e-26
2.41917e-25
1.30574e-24
6.94914e-24
3.64531e-23
1.88423e-22
9.5946e-22
4.81208e-21
2.37683e-20
)
;

boundaryField
{
    boundary
    {
        type            empty;
    }
    inlet
    {
        type            fixedValue;
        value           nonuniform 0();
    }
    outlet
    {
        type            zeroGradient;
    }
    procBoundary3to1
    {
        type            processor;
        value           uniform 1.14968e-19;
    }
    procBoundary3to2
    {
        type            processor;
        value           uniform 8.6931e-46;
    }
}


// ************************************************************************* //
