/*--------------------------------*- C++ -*----------------------------------*\
  =========                 |
  \\      /  F ield         | OpenFOAM: The Open Source CFD Toolbox
   \\    /   O peration     | Website:  https://openfoam.org
    \\  /    A nd           | Version:  7
     \\/     M anipulation  |
\*---------------------------------------------------------------------------*/
FoamFile
{
    version     2.0;
    format      ascii;
    class       volVectorField;
    location    "0.00031";
    object      U;
}
// * * * * * * * * * * * * * * * * * * * * * * * * * * * * * * * * * * * * * //

dimensions      [0 1 -1 0 0 0 0];

internalField   nonuniform List<vector> 
126
(
(2.33696 0 0)
(2.33686 0 0)
(2.33677 0 0)
(2.33668 0 0)
(2.33658 0 0)
(2.33649 0 0)
(2.3364 0 0)
(2.3363 0 0)
(2.33621 0 0)
(2.33612 0 0)
(2.33602 0 0)
(2.33593 0 0)
(2.33584 0 0)
(2.33575 0 0)
(2.33565 0 0)
(2.33556 0 0)
(2.33547 0 0)
(2.33537 0 0)
(2.33528 0 0)
(2.33519 0 0)
(2.3351 0 0)
(2.335 0 0)
(2.33491 0 0)
(2.33482 0 0)
(2.33473 0 0)
(2.33463 0 0)
(2.33454 0 0)
(2.33445 0 0)
(2.33436 0 0)
(2.33426 0 0)
(2.33417 0 0)
(2.33408 0 0)
(2.33399 0 0)
(2.3339 0 0)
(2.3338 0 0)
(2.33371 0 0)
(2.33362 0 0)
(2.33353 0 0)
(2.33343 0 0)
(2.33334 0 0)
(2.33325 0 0)
(2.33316 0 0)
(2.33307 0 0)
(2.33297 0 0)
(2.33288 0 0)
(2.33279 0 0)
(2.3327 0 0)
(2.33261 0 0)
(2.33251 0 0)
(2.33242 0 0)
(2.33233 0 0)
(2.33224 0 0)
(2.33215 0 0)
(2.33205 0 0)
(2.33196 0 0)
(2.33187 0 0)
(2.33178 0 0)
(2.33169 0 0)
(2.3316 0 0)
(2.3315 0 0)
(2.33141 0 0)
(2.33132 0 0)
(2.33123 0 0)
(2.33114 0 0)
(2.33105 0 0)
(2.33095 0 0)
(2.33086 0 0)
(2.33077 0 0)
(2.33068 0 0)
(2.33059 0 0)
(2.3305 0 0)
(2.33041 0 0)
(2.33031 0 0)
(2.33022 0 0)
(2.33013 0 0)
(2.33004 0 0)
(2.32995 0 0)
(2.32986 0 0)
(2.32977 0 0)
(2.32967 0 0)
(2.32958 0 0)
(2.32949 0 0)
(2.3294 0 0)
(2.32931 0 0)
(2.32922 0 0)
(2.32913 0 0)
(2.32904 0 0)
(2.32895 0 0)
(2.32885 0 0)
(2.32876 0 0)
(2.32867 0 0)
(2.32858 0 0)
(2.32849 0 0)
(2.3284 0 0)
(2.32831 0 0)
(2.32822 0 0)
(2.32813 0 0)
(2.32804 0 0)
(2.32795 0 0)
(2.32786 0 0)
(2.32777 0 0)
(2.32768 0 0)
(2.32759 0 0)
(2.3275 0 0)
(2.32741 0 0)
(2.32731 0 0)
(2.32722 0 0)
(2.32713 0 0)
(2.32704 0 0)
(2.32695 0 0)
(2.32686 0 0)
(2.32678 0 0)
(2.32669 0 0)
(2.3266 0 0)
(2.32651 0 0)
(2.32642 0 0)
(2.32633 0 0)
(2.32624 0 0)
(2.32615 0 0)
(2.32606 0 0)
(2.32597 0 0)
(2.32588 0 0)
(2.32579 0 0)
(2.3257 0 0)
(2.32561 0 0)
(2.32552 0 0)
)
;

boundaryField
{
    boundary
    {
        type            empty;
    }
    inlet
    {
        type            fixedValue;
        value           nonuniform 0();
    }
    outlet
    {
        type            zeroGradient;
    }
    procBoundary3to1
    {
        type            processor;
        value           uniform (2.32544 0 0);
    }
    procBoundary3to2
    {
        type            processor;
        value           uniform (2.33705 0 0);
    }
}


// ************************************************************************* //
