/*--------------------------------*- C++ -*----------------------------------*\
  =========                 |
  \\      /  F ield         | OpenFOAM: The Open Source CFD Toolbox
   \\    /   O peration     | Website:  https://openfoam.org
    \\  /    A nd           | Version:  7
     \\/     M anipulation  |
\*---------------------------------------------------------------------------*/
FoamFile
{
    version     2.0;
    format      ascii;
    class       volScalarField;
    location    "0.00021";
    object      HO2;
}
// * * * * * * * * * * * * * * * * * * * * * * * * * * * * * * * * * * * * * //

dimensions      [0 0 0 0 0 0 0];

internalField   nonuniform List<scalar> 
126
(
1.54544e-36
1.54202e-36
1.54047e-36
1.54004e-36
1.5401e-36
1.54039e-36
1.54084e-36
1.54142e-36
1.54216e-36
1.54304e-36
1.54407e-36
1.54522e-36
1.54644e-36
1.54768e-36
1.54889e-36
1.55002e-36
1.55105e-36
1.55194e-36
1.5527e-36
1.55332e-36
1.55381e-36
1.5542e-36
1.55451e-36
1.55474e-36
1.55493e-36
1.55507e-36
1.55519e-36
1.55529e-36
1.55538e-36
1.55546e-36
1.55552e-36
1.55559e-36
1.55564e-36
1.55569e-36
1.55573e-36
1.55577e-36
1.5558e-36
1.55583e-36
1.55585e-36
1.55586e-36
1.55586e-36
1.55586e-36
1.55584e-36
1.55582e-36
1.55579e-36
1.55575e-36
1.5557e-36
1.55564e-36
1.55556e-36
1.55548e-36
1.55538e-36
1.55527e-36
1.55515e-36
1.55501e-36
1.55486e-36
1.5547e-36
1.55452e-36
1.55432e-36
1.55411e-36
1.55388e-36
1.55363e-36
1.55336e-36
1.55308e-36
1.55278e-36
1.55245e-36
1.55211e-36
1.55174e-36
1.55136e-36
1.55095e-36
1.55052e-36
1.55007e-36
1.5496e-36
1.5491e-36
1.54857e-36
1.54803e-36
1.54746e-36
1.54686e-36
1.54624e-36
1.54559e-36
1.54492e-36
1.54422e-36
1.54349e-36
1.54274e-36
1.54196e-36
1.54115e-36
1.54032e-36
1.53946e-36
1.53857e-36
1.53766e-36
1.53672e-36
1.53576e-36
1.53477e-36
1.53375e-36
1.53271e-36
1.53164e-36
1.53055e-36
1.52943e-36
1.52829e-36
1.52713e-36
1.52595e-36
1.52475e-36
1.52356e-36
1.52256e-36
1.52272e-36
1.52996e-36
1.57924e-36
1.87752e-36
3.6464e-36
1.40789e-35
7.54207e-35
4.35141e-34
2.53919e-33
1.4816e-32
8.62914e-32
5.01652e-31
2.91205e-30
1.68877e-29
9.78915e-29
5.67453e-28
3.29072e-27
1.90962e-26
1.10919e-25
6.45139e-25
3.76001e-24
2.19665e-23
1.28341e-22
)
;

boundaryField
{
    boundary
    {
        type            empty;
    }
    inlet
    {
        type            fixedValue;
        value           nonuniform 0();
    }
    outlet
    {
        type            zeroGradient;
    }
    procBoundary3to1
    {
        type            processor;
        value           uniform 7.4e-22;
    }
    procBoundary3to2
    {
        type            processor;
        value           uniform 1.54919e-36;
    }
}


// ************************************************************************* //
