/*--------------------------------*- C++ -*----------------------------------*\
  =========                 |
  \\      /  F ield         | OpenFOAM: The Open Source CFD Toolbox
   \\    /   O peration     | Website:  https://openfoam.org
    \\  /    A nd           | Version:  7
     \\/     M anipulation  |
\*---------------------------------------------------------------------------*/
FoamFile
{
    version     2.0;
    format      ascii;
    class       volScalarField;
    location    "0.00059";
    object      T;
}
// * * * * * * * * * * * * * * * * * * * * * * * * * * * * * * * * * * * * * //

dimensions      [0 0 0 1 0 0 0];

internalField   nonuniform List<scalar> 
125
(
301.503
301.5
301.497
301.494
301.492
301.489
301.486
301.483
301.48
301.477
301.474
301.471
301.468
301.465
301.463
301.461
301.461
301.467
301.489
301.558
301.761
302.34
303.99
308.67
321.743
355.997
431.342
555.555
707.461
861.313
1007.52
1143.05
1262.77
1361.38
1444.64
1515.61
1572.21
1617.5
1656.31
1689.97
1719.58
1745.95
1769.66
1791.16
1810.8
1828.85
1845.51
1860.97
1875.37
1888.83
1901.45
1913.32
1924.51
1935.09
1945.1
1954.6
1963.64
1972.24
1980.44
1988.26
1995.73
2002.67
2009.2
2015.52
2021.62
2027.53
2033.25
2038.8
2044.17
2049.38
2054.45
2059.37
2064.15
2068.8
2073.32
2077.73
2082.02
2086.21
2090.29
2094.27
2098.15
2101.94
2105.65
2109.27
2112.81
2116.27
2119.65
2122.96
2126.21
2129.38
2132.49
2135.54
2138.53
2141.46
2144.33
2147.15
2149.91
2152.63
2155.29
2157.91
2160.48
2163.01
2165.5
2167.94
2170.34
2172.7
2175.02
2177.31
2179.56
2181.77
2183.95
2186.1
2188.21
2190.29
2192.34
2194.36
2196.35
2198.31
2200.24
2202.15
2204.03
2205.88
2207.7
2209.5
2211.28
)
;

boundaryField
{
    boundary
    {
        type            empty;
    }
    inlet
    {
        type            fixedValue;
        value           nonuniform 0();
    }
    outlet
    {
        type            zeroGradient;
    }
    procBoundary1to0
    {
        type            processor;
        value           uniform 2213.03;
    }
    procBoundary1to3
    {
        type            processor;
        value           uniform 301.505;
    }
}


// ************************************************************************* //
