/*--------------------------------*- C++ -*----------------------------------*\
  =========                 |
  \\      /  F ield         | OpenFOAM: The Open Source CFD Toolbox
   \\    /   O peration     | Website:  https://openfoam.org
    \\  /    A nd           | Version:  7
     \\/     M anipulation  |
\*---------------------------------------------------------------------------*/
FoamFile
{
    version     2.0;
    format      ascii;
    class       volScalarField;
    location    "0.0001";
    object      H2O2;
}
// * * * * * * * * * * * * * * * * * * * * * * * * * * * * * * * * * * * * * //

dimensions      [0 0 0 0 0 0 0];

internalField   nonuniform List<scalar> 
125
(
9.81603e-29
1.11034e-27
1.22234e-26
1.31819e-25
1.39185e-24
1.43775e-23
1.45171e-22
1.43145e-21
1.37706e-20
1.29105e-19
1.1783e-18
1.04556e-17
9.00787e-17
7.52355e-16
6.08166e-15
4.7491e-14
3.5751e-13
2.58853e-12
1.79805e-11
1.1949e-10
7.5745e-10
4.56563e-09
2.60812e-08
1.40668e-07
7.12305e-07
3.34364e-06
1.40122e-05
4.69675e-05
9.99458e-05
0.000129058
0.000111318
6.15062e-05
2.58464e-05
1.03994e-05
5.42644e-06
4.403e-06
4.65427e-06
5.36183e-06
5.91089e-06
6.31697e-06
6.55871e-06
6.65982e-06
6.65419e-06
6.57277e-06
6.43992e-06
6.27354e-06
6.08625e-06
5.88678e-06
5.68094e-06
5.4726e-06
5.26424e-06
5.05736e-06
4.85284e-06
4.65116e-06
4.45251e-06
4.25695e-06
4.06448e-06
3.8751e-06
3.68887e-06
3.50593e-06
3.32658e-06
3.15648e-06
2.99249e-06
2.8316e-06
2.67419e-06
2.52067e-06
2.3715e-06
2.22713e-06
2.08801e-06
1.95454e-06
1.82705e-06
1.70584e-06
1.59111e-06
1.48297e-06
1.38145e-06
1.28652e-06
1.19806e-06
1.11589e-06
1.03978e-06
9.69468e-07
9.04643e-07
8.44988e-07
7.90171e-07
7.39859e-07
6.93721e-07
6.51437e-07
6.12697e-07
5.77211e-07
5.44704e-07
5.1492e-07
4.87622e-07
4.62592e-07
4.3963e-07
4.18555e-07
3.99201e-07
3.81417e-07
3.65068e-07
3.50029e-07
3.36193e-07
3.23457e-07
3.11733e-07
3.00938e-07
2.91e-07
2.81851e-07
2.73431e-07
2.65685e-07
2.58564e-07
2.52021e-07
2.46015e-07
2.40507e-07
2.35462e-07
2.30846e-07
2.26629e-07
2.22781e-07
2.19276e-07
2.16088e-07
2.13194e-07
2.10571e-07
2.08199e-07
2.06057e-07
2.04128e-07
2.02393e-07
2.00836e-07
1.99434e-07
1.98158e-07
)
;

boundaryField
{
    boundary
    {
        type            empty;
    }
    inlet
    {
        type            fixedValue;
        value           nonuniform 0();
    }
    outlet
    {
        type            zeroGradient;
    }
    procBoundary1to0
    {
        type            processor;
        value           uniform 1.97083e-07;
    }
    procBoundary1to3
    {
        type            processor;
        value           uniform 7.57316e-30;
    }
}


// ************************************************************************* //
