/*--------------------------------*- C++ -*----------------------------------*\
  =========                 |
  \\      /  F ield         | OpenFOAM: The Open Source CFD Toolbox
   \\    /   O peration     | Website:  https://openfoam.org
    \\  /    A nd           | Version:  7
     \\/     M anipulation  |
\*---------------------------------------------------------------------------*/
FoamFile
{
    version     2.0;
    format      ascii;
    class       volScalarField;
    location    "0.0001";
    object      T;
}
// * * * * * * * * * * * * * * * * * * * * * * * * * * * * * * * * * * * * * //

dimensions      [0 0 0 1 0 0 0];

internalField   nonuniform List<scalar> 
125
(
301.173
301.169
301.166
301.162
301.159
301.155
301.152
301.148
301.145
301.141
301.137
301.133
301.129
301.124
301.12
301.116
301.111
301.106
301.102
301.098
301.098
301.112
301.172
301.394
302.144
304.561
312.005
333.413
386.838
489.805
633.943
790.073
940.83
1082.03
1209.91
1318.89
1404.35
1487.47
1543.75
1591.54
1632.2
1667.12
1697.47
1724.13
1747.77
1768.92
1787.98
1805.29
1821.14
1835.76
1849.38
1862.19
1874.35
1886.05
1897.41
1908.58
1919.69
1930.84
1942.12
1953.61
1965.37
1977.11
1988.96
2001.26
2013.97
2027.12
2040.67
2054.61
2068.9
2083.48
2098.3
2113.29
2128.38
2143.5
2158.57
2173.51
2188.24
2202.68
2216.78
2230.45
2243.64
2256.31
2268.39
2279.87
2290.7
2300.88
2310.38
2319.22
2327.38
2334.88
2341.74
2347.98
2353.63
2358.71
2363.26
2367.32
2370.91
2374.08
2376.86
2379.29
2381.4
2383.23
2384.81
2386.16
2387.31
2388.3
2389.13
2389.84
2390.44
2390.94
2391.37
2391.73
2392.03
2392.28
2392.5
2392.68
2392.84
2392.98
2393.09
2393.2
2393.29
2393.39
2393.48
2393.59
2393.72
)
;

boundaryField
{
    boundary
    {
        type            empty;
    }
    inlet
    {
        type            fixedValue;
        value           nonuniform 0();
    }
    outlet
    {
        type            zeroGradient;
    }
    procBoundary1to0
    {
        type            processor;
        value           uniform 2393.8;
    }
    procBoundary1to3
    {
        type            processor;
        value           uniform 301.177;
    }
}


// ************************************************************************* //
