/*--------------------------------*- C++ -*----------------------------------*\
  =========                 |
  \\      /  F ield         | OpenFOAM: The Open Source CFD Toolbox
   \\    /   O peration     | Website:  https://openfoam.org
    \\  /    A nd           | Version:  7
     \\/     M anipulation  |
\*---------------------------------------------------------------------------*/
FoamFile
{
    version     2.0;
    format      ascii;
    class       volVectorField;
    location    "0.0001";
    object      U;
}
// * * * * * * * * * * * * * * * * * * * * * * * * * * * * * * * * * * * * * //

dimensions      [0 1 -1 0 0 0 0];

internalField   nonuniform List<vector> 
125
(
(2.20333 0 0)
(2.20228 0 0)
(2.20124 0 0)
(2.20018 0 0)
(2.19912 0 0)
(2.19809 0 0)
(2.19708 0 0)
(2.19607 0 0)
(2.19507 0 0)
(2.1941 0 0)
(2.19313 0 0)
(2.19219 0 0)
(2.19125 0 0)
(2.19033 0 0)
(2.18943 0 0)
(2.18856 0 0)
(2.1877 0 0)
(2.18686 0 0)
(2.18603 0 0)
(2.18523 0 0)
(2.18448 0 0)
(2.18377 0 0)
(2.18355 0 0)
(2.18474 0 0)
(2.19084 0 0)
(2.21118 0 0)
(2.26576 0 0)
(2.39753 0 0)
(2.69601 0 0)
(3.31948 0 0)
(4.34125 0 0)
(5.56213 0 0)
(6.76462 0 0)
(7.84883 0 0)
(8.79267 0 0)
(9.57017 0 0)
(10.1475 0 0)
(10.6688 0 0)
(11.1653 0 0)
(11.5317 0 0)
(11.8186 0 0)
(12.0632 0 0)
(12.2741 0 0)
(12.4589 0 0)
(12.6228 0 0)
(12.7696 0 0)
(12.9024 0 0)
(13.0234 0 0)
(13.1343 0 0)
(13.2366 0 0)
(13.3315 0 0)
(13.4198 0 0)
(13.5024 0 0)
(13.5798 0 0)
(13.6527 0 0)
(13.7214 0 0)
(13.7862 0 0)
(13.8473 0 0)
(13.9049 0 0)
(13.9591 0 0)
(14.01 0 0)
(14.0563 0 0)
(14.099 0 0)
(14.1393 0 0)
(14.1771 0 0)
(14.2122 0 0)
(14.2445 0 0)
(14.2741 0 0)
(14.3009 0 0)
(14.325 0 0)
(14.3464 0 0)
(14.365 0 0)
(14.3809 0 0)
(14.3943 0 0)
(14.4052 0 0)
(14.4137 0 0)
(14.42 0 0)
(14.4243 0 0)
(14.4267 0 0)
(14.4273 0 0)
(14.4266 0 0)
(14.4245 0 0)
(14.4214 0 0)
(14.4173 0 0)
(14.4126 0 0)
(14.4074 0 0)
(14.4018 0 0)
(14.3961 0 0)
(14.3904 0 0)
(14.3847 0 0)
(14.3793 0 0)
(14.3742 0 0)
(14.3695 0 0)
(14.3652 0 0)
(14.3614 0 0)
(14.3581 0 0)
(14.3553 0 0)
(14.353 0 0)
(14.3512 0 0)
(14.3499 0 0)
(14.3491 0 0)
(14.3487 0 0)
(14.3486 0 0)
(14.3489 0 0)
(14.3495 0 0)
(14.3503 0 0)
(14.3513 0 0)
(14.3525 0 0)
(14.3538 0 0)
(14.3552 0 0)
(14.3566 0 0)
(14.358 0 0)
(14.3595 0 0)
(14.3609 0 0)
(14.3623 0 0)
(14.3636 0 0)
(14.3648 0 0)
(14.3659 0 0)
(14.3669 0 0)
(14.3679 0 0)
(14.3687 0 0)
(14.3695 0 0)
(14.3704 0 0)
(14.3713 0 0)
(14.3721 0 0)
)
;

boundaryField
{
    boundary
    {
        type            empty;
    }
    inlet
    {
        type            fixedValue;
        value           nonuniform 0();
    }
    outlet
    {
        type            zeroGradient;
    }
    procBoundary1to0
    {
        type            processor;
        value           uniform (14.3726 0 0);
    }
    procBoundary1to3
    {
        type            processor;
        value           uniform (2.20443 0 0);
    }
}


// ************************************************************************* //
