/*--------------------------------*- C++ -*----------------------------------*\
  =========                 |
  \\      /  F ield         | OpenFOAM: The Open Source CFD Toolbox
   \\    /   O peration     | Website:  https://openfoam.org
    \\  /    A nd           | Version:  7
     \\/     M anipulation  |
\*---------------------------------------------------------------------------*/
FoamFile
{
    version     2.0;
    format      ascii;
    class       surfaceScalarField;
    location    "0.00039";
    object      phi;
}
// * * * * * * * * * * * * * * * * * * * * * * * * * * * * * * * * * * * * * //

dimensions      [1 0 -1 0 0 0 0];

internalField   nonuniform List<scalar> 
125
(
6.86552e-06
6.86524e-06
6.86497e-06
6.86469e-06
6.86441e-06
6.86413e-06
6.86385e-06
6.86357e-06
6.86328e-06
6.863e-06
6.86271e-06
6.86243e-06
6.86214e-06
6.86185e-06
6.86156e-06
6.86127e-06
6.86098e-06
6.86069e-06
6.86039e-06
6.8601e-06
6.8598e-06
6.8595e-06
6.8592e-06
6.8589e-06
6.8586e-06
6.85829e-06
6.85799e-06
6.85768e-06
6.85738e-06
6.85707e-06
6.85676e-06
6.85645e-06
6.85614e-06
6.85582e-06
6.85551e-06
6.85519e-06
6.85488e-06
6.85456e-06
6.85424e-06
6.85393e-06
6.85361e-06
6.85329e-06
6.85297e-06
6.85265e-06
6.85233e-06
6.85201e-06
6.85169e-06
6.85136e-06
6.85104e-06
6.85072e-06
6.8504e-06
6.85008e-06
6.84976e-06
6.84944e-06
6.84912e-06
6.8488e-06
6.84849e-06
6.84817e-06
6.84785e-06
6.84754e-06
6.84723e-06
6.84692e-06
6.84661e-06
6.8463e-06
6.84599e-06
6.84569e-06
6.84539e-06
6.84509e-06
6.84479e-06
6.8445e-06
6.84421e-06
6.84392e-06
6.84364e-06
6.84336e-06
6.84308e-06
6.84281e-06
6.84253e-06
6.84227e-06
6.842e-06
6.84174e-06
6.84149e-06
6.84123e-06
6.84098e-06
6.84074e-06
6.8405e-06
6.84026e-06
6.84003e-06
6.8398e-06
6.83957e-06
6.83935e-06
6.83913e-06
6.83891e-06
6.8387e-06
6.83849e-06
6.83828e-06
6.83807e-06
6.83787e-06
6.83767e-06
6.83747e-06
6.83728e-06
6.83708e-06
6.83689e-06
6.8367e-06
6.83651e-06
6.83632e-06
6.83613e-06
6.83594e-06
6.83574e-06
6.83555e-06
6.83536e-06
6.83517e-06
6.83497e-06
6.83478e-06
6.83458e-06
6.83438e-06
6.83418e-06
6.83397e-06
6.83377e-06
6.83356e-06
6.83335e-06
6.83313e-06
6.83291e-06
6.8327e-06
6.83247e-06
6.83225e-06
)
;

boundaryField
{
    boundary
    {
        type            empty;
        value           nonuniform 0();
    }
    inlet
    {
        type            calculated;
        value           nonuniform 0();
    }
    outlet
    {
        type            calculated;
        value           nonuniform 0();
    }
    procBoundary3to1
    {
        type            processor;
        value           uniform 6.83202e-06;
    }
    procBoundary3to2
    {
        type            processor;
        value           uniform -6.86579e-06;
    }
}


// ************************************************************************* //
