/*--------------------------------*- C++ -*----------------------------------*\
  =========                 |
  \\      /  F ield         | OpenFOAM: The Open Source CFD Toolbox
   \\    /   O peration     | Website:  https://openfoam.org
    \\  /    A nd           | Version:  7
     \\/     M anipulation  |
\*---------------------------------------------------------------------------*/
FoamFile
{
    version     2.0;
    format      ascii;
    class       volScalarField;
    location    "0.00039";
    object      Qdot;
}
// * * * * * * * * * * * * * * * * * * * * * * * * * * * * * * * * * * * * * //

dimensions      [1 -1 -3 0 0 0 0];

internalField   nonuniform List<scalar> 
126
(
-2.70564e-27
-2.70581e-27
-2.70597e-27
-2.70613e-27
-2.70629e-27
-2.70645e-27
-2.70661e-27
-2.70677e-27
-2.70694e-27
-2.7071e-27
-2.70727e-27
-2.70743e-27
-2.7076e-27
-2.70777e-27
-2.70793e-27
-2.7081e-27
-2.70827e-27
-2.70844e-27
-2.70862e-27
-2.70879e-27
-2.70897e-27
-2.70916e-27
-2.70935e-27
-2.70954e-27
-2.70974e-27
-2.70994e-27
-2.71015e-27
-2.71036e-27
-2.71057e-27
-2.71078e-27
-2.71099e-27
-2.7112e-27
-2.71141e-27
-2.71162e-27
-2.71182e-27
-2.71201e-27
-2.7122e-27
-2.71238e-27
-2.71256e-27
-2.71273e-27
-2.71289e-27
-2.71305e-27
-2.71319e-27
-2.71333e-27
-2.71346e-27
-2.71358e-27
-2.71369e-27
-2.71379e-27
-2.71388e-27
-2.71396e-27
-2.71402e-27
-2.71408e-27
-2.71412e-27
-2.71414e-27
-2.71415e-27
-2.71415e-27
-2.71413e-27
-2.71409e-27
-2.71404e-27
-2.71397e-27
-2.71387e-27
-2.71376e-27
-2.71363e-27
-2.71347e-27
-2.71329e-27
-2.71309e-27
-2.71286e-27
-2.71261e-27
-2.71233e-27
-2.71202e-27
-2.71168e-27
-2.71131e-27
-2.71092e-27
-2.71049e-27
-2.71003e-27
-2.70953e-27
-2.70901e-27
-2.70844e-27
-2.70784e-27
-2.70721e-27
-2.70653e-27
-2.70582e-27
-2.70507e-27
-2.70427e-27
-2.70344e-27
-2.70257e-27
-2.70165e-27
-2.70069e-27
-2.69968e-27
-2.69862e-27
-2.69749e-27
-2.69614e-27
-2.69399e-27
-2.68829e-27
-2.66652e-27
-2.57228e-27
-2.15391e-27
-3.00608e-28
7.83874e-27
4.32223e-26
1.95415e-25
8.43007e-25
3.5687e-24
1.49159e-23
6.16368e-23
2.51885e-22
1.018e-21
4.06891e-21
1.60836e-20
6.2874e-20
2.4308e-19
9.29497e-19
3.51565e-18
1.31549e-17
4.87054e-17
1.78485e-16
6.47625e-16
2.32794e-15
8.29575e-15
2.93351e-14
1.03067e-13
3.60393e-13
1.25682e-12
4.38294e-12
1.53347e-11
5.4048e-11
)
;

boundaryField
{
    boundary
    {
        type            empty;
    }
    inlet
    {
        type            calculated;
        value           nonuniform 0();
    }
    outlet
    {
        type            calculated;
        value           nonuniform 0();
    }
    procBoundary3to1
    {
        type            processor;
        value           uniform 0;
    }
    procBoundary3to2
    {
        type            processor;
        value           uniform 0;
    }
}


// ************************************************************************* //
