/*--------------------------------*- C++ -*----------------------------------*\
  =========                 |
  \\      /  F ield         | OpenFOAM: The Open Source CFD Toolbox
   \\    /   O peration     | Website:  https://openfoam.org
    \\  /    A nd           | Version:  7
     \\/     M anipulation  |
\*---------------------------------------------------------------------------*/
FoamFile
{
    version     2.0;
    format      ascii;
    class       volScalarField;
    location    "0.00016";
    object      cellCpuTimes;
}
// * * * * * * * * * * * * * * * * * * * * * * * * * * * * * * * * * * * * * //

dimensions      [0 0 0 0 0 0 0];

internalField   nonuniform List<scalar> 
500
(
8.7e-05
5.2e-05
4.9e-05
4.9e-05
4.9e-05
4.8e-05
4.7e-05
4.9e-05
4.9e-05
4.9e-05
4.8e-05
4.7e-05
4.9e-05
4.8e-05
4.8e-05
4.8e-05
4.8e-05
4.9e-05
4.8e-05
4.8e-05
4.8e-05
4.8e-05
4.8e-05
4.8e-05
4.8e-05
4.7e-05
4.8e-05
4.8e-05
4.8e-05
4.8e-05
4.8e-05
4.8e-05
4.8e-05
4.8e-05
4.9e-05
4.9e-05
4.8e-05
4.8e-05
4.8e-05
4.8e-05
4.8e-05
4.9e-05
4.9e-05
4.8e-05
4.8e-05
4.8e-05
4.9e-05
4.8e-05
4.8e-05
4.8e-05
4.8e-05
4.9e-05
4.8e-05
4.8e-05
4.8e-05
4.9e-05
4.8e-05
4.8e-05
4.8e-05
4.8e-05
4.8e-05
4.8e-05
4.8e-05
4.8e-05
4.8e-05
4.8e-05
4.8e-05
4.8e-05
4.8e-05
4.8e-05
4.8e-05
4.8e-05
4.9e-05
4.8e-05
4.8e-05
4.9e-05
4.9e-05
5.4e-05
4.8e-05
4.8e-05
4.8e-05
4.8e-05
4.8e-05
4.8e-05
4.8e-05
4.8e-05
4.8e-05
4.8e-05
4.9e-05
4.8e-05
4.8e-05
4.8e-05
4.8e-05
4.7e-05
4.8e-05
4.8e-05
4.8e-05
4.8e-05
4.8e-05
4.8e-05
4.8e-05
4.8e-05
4.8e-05
4.8e-05
4.9e-05
4.6e-05
4.8e-05
4.8e-05
4.8e-05
4.8e-05
4.8e-05
4.8e-05
4.8e-05
4.8e-05
4.8e-05
4.8e-05
4.9e-05
4.8e-05
4.8e-05
4.8e-05
4.8e-05
4.8e-05
4.8e-05
4.9e-05
4.9e-05
8.5e-05
5.6e-05
4.9e-05
4.8e-05
4.8e-05
4.7e-05
4.7e-05
4.8e-05
4.7e-05
4.6e-05
4.7e-05
4.7e-05
4.7e-05
4.7e-05
4.7e-05
4.6e-05
4.8e-05
4.7e-05
4.7e-05
4.6e-05
4.7e-05
4.6e-05
4.7e-05
4.6e-05
4.7e-05
4.7e-05
4.6e-05
4.7e-05
4.6e-05
4.7e-05
4.6e-05
4.7e-05
4.7e-05
4.7e-05
4.7e-05
4.6e-05
4.6e-05
4.6e-05
4.7e-05
4.7e-05
4.7e-05
4.7e-05
4.7e-05
4.7e-05
4.7e-05
4.6e-05
4.7e-05
4.7e-05
4.7e-05
4.6e-05
4.7e-05
4.7e-05
4.7e-05
4.6e-05
4.7e-05
4.7e-05
4.6e-05
4.7e-05
4.6e-05
4.7e-05
4.7e-05
4.6e-05
4.7e-05
4.7e-05
4.7e-05
4.6e-05
4.7e-05
4.7e-05
4.6e-05
4.6e-05
4.7e-05
4.6e-05
4.6e-05
4.6e-05
4.6e-05
4.7e-05
4.7e-05
4.6e-05
4.7e-05
5.1e-05
4.7e-05
4.7e-05
4.7e-05
4.6e-05
4.7e-05
4.7e-05
4.6e-05
4.6e-05
4.6e-05
4.7e-05
4.7e-05
4.6e-05
4.6e-05
4.7e-05
4.6e-05
4.6e-05
4.7e-05
4.6e-05
4.6e-05
4.7e-05
4.6e-05
4.7e-05
4.7e-05
4.6e-05
4.6e-05
4.6e-05
4.6e-05
4.6e-05
4.7e-05
4.7e-05
4.6e-05
4.6e-05
4.6e-05
4.7e-05
4.6e-05
4.7e-05
4.6e-05
4.6e-05
4.7e-05
4.7e-05
4.6e-05
4.6e-05
4.6e-05
4.6e-05
4.6e-05
4.7e-05
4.6e-05
4.6e-05
4.7e-05
4.6e-05
4.6e-05
4.6e-05
4.7e-05
4.7e-05
4.7e-05
4.6e-05
4.7e-05
4.6e-05
4.7e-05
4.6e-05
4.6e-05
4.6e-05
4.7e-05
4.6e-05
4.6e-05
4.6e-05
4.6e-05
5e-05
5.6e-05
7.1e-05
8.7e-05
0.000126
0.000133
0.000163
0.000166
0.000167
0.000175
0.000203
0.000251
0.000261
0.000274
0.000247
0.000255
0.000253
0.000222
0.000207
0.000212
0.000203
0.000176
0.000185
0.000168
0.000157
0.000153
0.000151
0.000197
0.000153
0.000147
0.000146
0.000142
0.000139
0.000137
0.000146
0.000145
0.000147
0.000139
0.00014
0.00013
0.000126
0.000126
0.000127
0.000124
0.000124
0.000124
0.00013
0.000126
0.000126
0.000126
0.000122
0.000122
0.000121
0.000126
0.000125
0.000137
0.000127
0.000123
0.000123
0.000119
0.00012
0.000119
0.000115
0.000114
0.000116
0.000119
0.000119
0.000119
0.000119
0.000119
0.000119
0.000116
0.000117
0.000116
0.000115
0.000117
0.000114
0.000115
0.000115
0.000115
0.000114
0.000115
0.000115
0.000114
0.000114
0.000114
0.000114
0.000114
0.000114
0.00012
0.000117
0.000116
0.000117
0.000118
0.000119
0.000119
0.000119
0.000119
0.000119
0.000118
0.000119
0.000119
0.000119
0.000115
0.00012
0.000118
0.00012
0.00012
0.000121
0.000116
0.000159
0.000122
0.000116
0.000119
0.000128
0.000127
0.000126
0.000127
0.000127
0.000126
0.000127
0.000124
0.000123
0.000125
0.000109
0.000108
0.000108
0.000108
0.000106
0.000107
0.000106
0.000106
0.000106
0.000106
0.000105
0.000106
0.000101
0.000101
9.5e-05
9.6e-05
9.5e-05
9.6e-05
9.2e-05
9.5e-05
9.2e-05
8.9e-05
8.9e-05
9e-05
8.8e-05
8.7e-05
8.7e-05
8.5e-05
8.2e-05
8.4e-05
8.4e-05
7.9e-05
8.1e-05
7.8e-05
7.8e-05
7.3e-05
7.7e-05
7e-05
7e-05
6.6e-05
6.3e-05
6.4e-05
6.9e-05
6.9e-05
6.2e-05
6.6e-05
6.1e-05
6.3e-05
6e-05
6e-05
6e-05
6e-05
6.1e-05
6e-05
6e-05
6.4e-05
6.4e-05
6.4e-05
6.5e-05
6.4e-05
6.6e-05
6.7e-05
6.6e-05
6.5e-05
6.6e-05
6.6e-05
6.6e-05
6.6e-05
6.6e-05
6.6e-05
6.6e-05
6.5e-05
6.6e-05
6.6e-05
6.6e-05
7e-05
6.6e-05
6.6e-05
6.6e-05
6.6e-05
6.6e-05
6.6e-05
6.6e-05
6.6e-05
6.6e-05
6.5e-05
6.7e-05
6.6e-05
6.6e-05
6.6e-05
6.5e-05
6.6e-05
6.5e-05
6.6e-05
6.4e-05
6.5e-05
6.5e-05
6.4e-05
6.4e-05
6.4e-05
6.4e-05
6.5e-05
6.3e-05
6.4e-05
)
;

boundaryField
{
    boundary
    {
        type            empty;
    }
    inlet
    {
        type            calculated;
        value           uniform 0;
    }
    outlet
    {
        type            calculated;
        value           uniform 0;
    }
}


// ************************************************************************* //
