/*--------------------------------*- C++ -*----------------------------------*\
  =========                 |
  \\      /  F ield         | OpenFOAM: The Open Source CFD Toolbox
   \\    /   O peration     | Website:  https://openfoam.org
    \\  /    A nd           | Version:  7
     \\/     M anipulation  |
\*---------------------------------------------------------------------------*/
FoamFile
{
    version     2.0;
    format      ascii;
    class       volScalarField;
    location    "0.00016";
    object      H;
}
// * * * * * * * * * * * * * * * * * * * * * * * * * * * * * * * * * * * * * //

dimensions      [0 0 0 0 0 0 0];

internalField   nonuniform List<scalar> 
500
(
1.49885e-41
2.05298e-41
2.20065e-41
2.26689e-41
2.32293e-41
2.38528e-41
2.45804e-41
2.5417e-41
2.63478e-41
2.73423e-41
2.83597e-41
2.93544e-41
3.02837e-41
3.11139e-41
3.18238e-41
3.24056e-41
3.28637e-41
3.32106e-41
3.3464e-41
3.36427e-41
3.37647e-41
3.38454e-41
3.38971e-41
3.39294e-41
3.39489e-41
3.39604e-41
3.39669e-41
3.39705e-41
3.39724e-41
3.39733e-41
3.39737e-41
3.39737e-41
3.39737e-41
3.39735e-41
3.39733e-41
3.39731e-41
3.39728e-41
3.39726e-41
3.39723e-41
3.39721e-41
3.39718e-41
3.39715e-41
3.39713e-41
3.3971e-41
3.39708e-41
3.39705e-41
3.39703e-41
3.397e-41
3.39698e-41
3.39695e-41
3.39693e-41
3.3969e-41
3.39688e-41
3.39686e-41
3.39684e-41
3.39681e-41
3.39679e-41
3.39677e-41
3.39676e-41
3.39674e-41
3.39672e-41
3.39671e-41
3.39669e-41
3.39668e-41
3.39667e-41
3.39666e-41
3.39665e-41
3.39664e-41
3.39663e-41
3.39663e-41
3.39663e-41
3.39663e-41
3.39663e-41
3.39663e-41
3.39664e-41
3.39665e-41
3.39666e-41
3.39667e-41
3.39669e-41
3.3967e-41
3.39672e-41
3.39675e-41
3.39677e-41
3.3968e-41
3.39683e-41
3.39687e-41
3.39691e-41
3.39695e-41
3.39699e-41
3.39704e-41
3.39709e-41
3.39714e-41
3.3972e-41
3.39726e-41
3.39733e-41
3.39739e-41
3.39746e-41
3.39754e-41
3.39762e-41
3.3977e-41
3.39779e-41
3.39788e-41
3.39797e-41
3.39807e-41
3.39817e-41
3.39827e-41
3.39838e-41
3.39849e-41
3.39861e-41
3.39873e-41
3.39885e-41
3.39898e-41
3.39911e-41
3.39924e-41
3.39938e-41
3.39952e-41
3.39966e-41
3.39981e-41
3.39995e-41
3.40011e-41
3.40026e-41
3.40041e-41
3.40055e-41
3.40067e-41
3.40074e-41
3.40079e-41
3.40095e-41
3.40107e-41
3.40118e-41
3.40129e-41
3.40141e-41
3.40154e-41
3.4017e-41
3.40189e-41
3.4021e-41
3.40233e-41
3.40257e-41
3.40281e-41
3.40305e-41
3.40328e-41
3.40349e-41
3.40369e-41
3.40388e-41
3.40406e-41
3.40422e-41
3.40437e-41
3.40451e-41
3.40465e-41
3.40477e-41
3.40489e-41
3.405e-41
3.4051e-41
3.40519e-41
3.40526e-41
3.40533e-41
3.40538e-41
3.40543e-41
3.40545e-41
3.40547e-41
3.40547e-41
3.40545e-41
3.40541e-41
3.40536e-41
3.40528e-41
3.40519e-41
3.40507e-41
3.40494e-41
3.40478e-41
3.40459e-41
3.40438e-41
3.40414e-41
3.40387e-41
3.40358e-41
3.40325e-41
3.4029e-41
3.40251e-41
3.40208e-41
3.40163e-41
3.40113e-41
3.4006e-41
3.40003e-41
3.39941e-41
3.39876e-41
3.39806e-41
3.39732e-41
3.39654e-41
3.39571e-41
3.39483e-41
3.3939e-41
3.39292e-41
3.3919e-41
3.39082e-41
3.38968e-41
3.3885e-41
3.38725e-41
3.38596e-41
3.3846e-41
3.38319e-41
3.38172e-41
3.38019e-41
3.3786e-41
3.37696e-41
3.37525e-41
3.37348e-41
3.37165e-41
3.36976e-41
3.36781e-41
3.3658e-41
3.36372e-41
3.36159e-41
3.3594e-41
3.35714e-41
3.35483e-41
3.35246e-41
3.35003e-41
3.34754e-41
3.345e-41
3.34241e-41
3.33976e-41
3.33706e-41
3.3343e-41
3.3315e-41
3.32866e-41
3.32576e-41
3.32283e-41
3.31985e-41
3.31684e-41
3.31383e-41
3.3111e-41
3.31047e-41
3.32436e-41
3.43696e-41
4.21341e-41
9.41343e-41
4.38142e-40
2.69107e-39
1.72977e-38
1.11022e-37
7.06011e-37
4.4417e-36
2.76314e-35
1.69911e-34
1.03245e-33
6.19756e-33
3.67407e-32
2.15048e-31
1.24243e-30
7.0835e-30
3.98442e-29
2.21066e-28
1.20954e-27
6.59669e-27
3.51837e-26
1.8511e-25
9.60926e-25
4.92275e-24
2.4895e-23
1.24333e-22
6.13596e-22
2.99458e-21
1.44676e-20
6.92883e-20
3.29539e-19
1.56011e-18
7.37417e-18
3.49346e-17
1.66681e-16
8.05741e-16
3.97445e-15
2.01656e-14
1.06112e-13
5.88871e-13
3.76378e-12
3.18966e-11
3.25437e-10
3.04743e-09
2.86327e-08
2.62244e-07
2.21177e-06
1.53682e-05
7.49331e-05
0.000227002
0.000473844
0.000796367
0.00115845
0.00149416
0.00174048
0.00187776
0.00192487
0.00190849
0.00185716
0.00178861
0.00171366
0.00163843
0.00156608
0.00149807
0.00143491
0.00137659
0.00132285
0.00127335
0.00122769
0.00118549
0.00114641
0.00111011
0.00107632
0.00104479
0.0010153
0.000987653
0.000961674
0.000937215
0.00091414
0.000892329
0.000872281
0.000853661
0.000835839
0.000818755
0.000802355
0.000786589
0.000771409
0.000756768
0.000742626
0.000728941
0.000715677
0.000702797
0.000690268
0.000678056
0.000666133
0.000654469
0.000643035
0.000631807
0.000620758
0.000609867
0.000599112
0.000588471
0.000577926
0.00056746
0.000557056
0.000546702
0.000536383
0.000526089
0.000515811
0.000505541
0.000495272
0.000485001
0.000474724
0.000464441
0.000454151
0.000443856
0.00043356
0.000423267
0.000412984
0.000402716
0.000392472
0.000382261
0.000372092
0.000361977
0.000351926
0.000341951
0.000332063
0.000322275
0.000312598
0.000303045
0.000293627
0.000284357
0.000275244
0.000266301
0.000257537
0.000248962
0.000240585
0.000232414
0.000224456
0.000216718
0.000209206
0.000201923
0.000194875
0.000188067
0.000181506
0.000175192
0.000169128
0.000163313
0.000157745
0.000152422
0.00014734
0.000142497
0.000137889
0.000133511
0.000129359
0.000125427
0.00012171
0.000118202
0.000114897
0.000111788
0.000108869
0.000106133
0.000103573
0.000101181
9.89513e-05
9.68756e-05
9.49471e-05
9.31586e-05
9.15029e-05
8.9973e-05
8.8562e-05
8.72632e-05
8.60699e-05
8.49757e-05
8.39744e-05
8.30598e-05
8.22261e-05
8.14678e-05
8.07795e-05
8.01559e-05
7.95923e-05
7.90839e-05
7.86263e-05
7.82154e-05
7.78471e-05
7.7518e-05
7.72243e-05
7.6963e-05
7.67309e-05
7.65254e-05
7.63438e-05
7.61837e-05
7.60428e-05
7.59192e-05
7.58111e-05
7.57167e-05
7.56345e-05
7.55632e-05
7.55013e-05
7.54479e-05
7.54019e-05
7.53623e-05
7.53284e-05
7.52994e-05
7.52747e-05
7.52537e-05
7.52359e-05
7.52209e-05
7.52083e-05
7.51976e-05
7.51888e-05
7.51814e-05
7.51753e-05
7.51702e-05
7.51661e-05
7.51627e-05
7.51599e-05
7.51577e-05
7.51559e-05
7.51545e-05
7.51534e-05
7.51525e-05
7.51519e-05
7.51514e-05
7.51511e-05
7.51509e-05
7.51508e-05
7.51507e-05
7.51507e-05
7.51508e-05
7.51508e-05
7.5151e-05
7.51511e-05
7.51512e-05
7.51514e-05
7.51516e-05
7.51518e-05
7.51519e-05
7.51521e-05
7.51523e-05
7.51525e-05
7.51526e-05
7.51528e-05
7.5153e-05
7.51532e-05
7.51533e-05
7.51535e-05
7.51536e-05
7.51538e-05
7.51539e-05
7.5154e-05
7.51541e-05
7.51543e-05
7.51544e-05
7.51545e-05
7.51546e-05
7.51546e-05
7.51547e-05
7.51548e-05
7.51549e-05
7.51549e-05
7.5155e-05
7.5155e-05
7.5155e-05
7.51551e-05
7.51551e-05
7.51551e-05
7.51551e-05
)
;

boundaryField
{
    boundary
    {
        type            empty;
    }
    inlet
    {
        type            fixedValue;
        value           uniform 0;
    }
    outlet
    {
        type            zeroGradient;
    }
}


// ************************************************************************* //
