/*--------------------------------*- C++ -*----------------------------------*\
  =========                 |
  \\      /  F ield         | OpenFOAM: The Open Source CFD Toolbox
   \\    /   O peration     | Website:  https://openfoam.org
    \\  /    A nd           | Version:  7
     \\/     M anipulation  |
\*---------------------------------------------------------------------------*/
FoamFile
{
    version     2.0;
    format      ascii;
    class       volScalarField;
    location    "0.00016";
    object      H2;
}
// * * * * * * * * * * * * * * * * * * * * * * * * * * * * * * * * * * * * * //

dimensions      [0 0 0 0 0 0 0];

internalField   nonuniform List<scalar> 
500
(
0.0285116
0.0285116
0.0285116
0.0285116
0.0285116
0.0285116
0.0285116
0.0285116
0.0285116
0.0285116
0.0285116
0.0285116
0.0285116
0.0285116
0.0285116
0.0285116
0.0285116
0.0285116
0.0285116
0.0285116
0.0285116
0.0285116
0.0285116
0.0285116
0.0285116
0.0285116
0.0285116
0.0285116
0.0285116
0.0285116
0.0285116
0.0285116
0.0285116
0.0285116
0.0285116
0.0285116
0.0285116
0.0285116
0.0285116
0.0285116
0.0285116
0.0285116
0.0285116
0.0285116
0.0285116
0.0285116
0.0285116
0.0285116
0.0285116
0.0285116
0.0285116
0.0285116
0.0285116
0.0285116
0.0285116
0.0285116
0.0285116
0.0285116
0.0285116
0.0285116
0.0285116
0.0285116
0.0285116
0.0285116
0.0285116
0.0285116
0.0285116
0.0285116
0.0285116
0.0285116
0.0285116
0.0285116
0.0285116
0.0285116
0.0285116
0.0285116
0.0285116
0.0285116
0.0285116
0.0285116
0.0285116
0.0285116
0.0285116
0.0285116
0.0285116
0.0285116
0.0285116
0.0285116
0.0285116
0.0285116
0.0285116
0.0285116
0.0285116
0.0285116
0.0285116
0.0285116
0.0285116
0.0285116
0.0285116
0.0285116
0.0285116
0.0285116
0.0285116
0.0285116
0.0285116
0.0285116
0.0285116
0.0285116
0.0285116
0.0285116
0.0285116
0.0285116
0.0285116
0.0285116
0.0285116
0.0285116
0.0285116
0.0285116
0.0285116
0.0285116
0.0285116
0.0285116
0.0285116
0.0285116
0.0285116
0.0285116
0.0285116
0.0285116
0.0285116
0.0285116
0.0285116
0.0285116
0.0285116
0.0285116
0.0285116
0.0285116
0.0285116
0.0285116
0.0285116
0.0285116
0.0285116
0.0285116
0.0285116
0.0285116
0.0285116
0.0285116
0.0285116
0.0285116
0.0285116
0.0285116
0.0285116
0.0285116
0.0285116
0.0285116
0.0285116
0.0285116
0.0285116
0.0285116
0.0285116
0.0285116
0.0285116
0.0285116
0.0285116
0.0285116
0.0285116
0.0285116
0.0285116
0.0285116
0.0285116
0.0285116
0.0285116
0.0285116
0.0285116
0.0285116
0.0285116
0.0285116
0.0285116
0.0285116
0.0285116
0.0285116
0.0285116
0.0285116
0.0285116
0.0285116
0.0285116
0.0285116
0.0285116
0.0285116
0.0285116
0.0285116
0.0285116
0.0285116
0.0285116
0.0285116
0.0285116
0.0285116
0.0285116
0.0285116
0.0285116
0.0285116
0.0285116
0.0285116
0.0285116
0.0285116
0.0285116
0.0285116
0.0285116
0.0285116
0.0285116
0.0285116
0.0285116
0.0285116
0.0285116
0.0285116
0.0285116
0.0285116
0.0285116
0.0285116
0.0285116
0.0285116
0.0285116
0.0285116
0.0285116
0.0285116
0.0285116
0.0285116
0.0285116
0.0285116
0.0285116
0.0285116
0.0285116
0.0285116
0.0285116
0.0285116
0.0285116
0.0285116
0.0285116
0.0285116
0.0285116
0.0285116
0.0285116
0.0285116
0.0285116
0.0285116
0.0285116
0.0285116
0.0285116
0.0285116
0.0285116
0.0285116
0.0285116
0.0285116
0.0285116
0.0285116
0.0285116
0.0285116
0.0285116
0.0285116
0.0285116
0.0285116
0.0285116
0.0285116
0.0285116
0.0285116
0.0285116
0.0285115
0.0285115
0.0285114
0.028511
0.0285103
0.0285087
0.0285051
0.0284971
0.0284799
0.0284429
0.0283644
0.0282001
0.0278642
0.0272135
0.0260694
0.0243105
0.0220099
0.0193397
0.0163863
0.0133157
0.0104729
0.00818637
0.00655817
0.00540197
0.0047285
0.00431313
0.00405792
0.00389931
0.00379796
0.00373017
0.00368192
0.00364501
0.0036147
0.00358827
0.00356418
0.00354161
0.00352009
0.00349941
0.00347946
0.00346021
0.00344166
0.00342384
0.00340677
0.00339047
0.00337497
0.00336028
0.00334642
0.0033338
0.00332225
0.00331146
0.00330141
0.0032921
0.00328353
0.00327568
0.00326855
0.00326212
0.00325635
0.00325122
0.0032467
0.00324273
0.00323929
0.0032363
0.00323371
0.00323146
0.00322947
0.00322766
0.00322596
0.00322427
0.0032225
0.00322055
0.00321832
0.00321572
0.00321263
0.00320896
0.00320459
0.00319943
0.00319337
0.00318632
0.00317818
0.00316887
0.00315829
0.00314639
0.00313307
0.0031183
0.00310201
0.00308416
0.00306472
0.00304366
0.00302098
0.00299668
0.00297075
0.00294323
0.00291413
0.00288349
0.00285137
0.00281781
0.0027829
0.00274669
0.00270927
0.00267074
0.00263118
0.0025907
0.0025494
0.0025074
0.00246482
0.00242177
0.00237839
0.00233479
0.00229111
0.00224746
0.00220395
0.00216066
0.00211766
0.00207509
0.00203307
0.00199171
0.00195113
0.0019114
0.00187262
0.00183486
0.00179821
0.00176271
0.00172843
0.0016954
0.00166366
0.00163325
0.00160418
0.00157646
0.00155009
0.00152508
0.00150142
0.00147908
0.00145805
0.0014383
0.00141979
0.0014025
0.00138639
0.0013714
0.0013575
0.00134464
0.00133278
0.00132185
0.00131182
0.00130263
0.00129423
0.00128657
0.00127961
0.0012733
0.00126759
0.00126243
0.00125779
0.00125362
0.00124989
0.00124655
0.00124358
0.00124093
0.00123859
0.00123652
0.00123469
0.00123308
0.00123166
0.00123042
0.00122934
0.0012284
0.00122759
0.00122688
0.00122627
0.00122574
0.00122529
0.0012249
0.00122457
0.00122429
0.00122405
0.00122385
0.00122368
0.00122353
0.00122341
0.00122331
0.00122323
0.00122316
0.00122311
0.00122306
0.00122302
0.00122299
0.00122297
0.00122295
0.00122294
0.00122293
0.00122292
0.00122291
0.00122291
0.00122291
0.0012229
0.00122291
0.00122291
0.00122291
0.00122291
0.00122291
0.00122292
0.00122292
0.00122292
0.00122293
0.00122293
0.00122293
0.00122294
0.00122294
0.00122295
0.00122295
0.00122295
0.00122296
0.00122296
0.00122296
0.00122297
0.00122297
0.00122297
0.00122298
0.00122298
0.00122298
0.00122299
0.00122299
0.00122299
0.00122299
0.001223
0.001223
0.001223
0.001223
0.00122301
0.00122301
0.00122301
0.00122301
0.00122301
0.00122301
0.00122302
0.00122302
0.00122302
)
;

boundaryField
{
    boundary
    {
        type            empty;
    }
    inlet
    {
        type            fixedValue;
        value           uniform 0.0285116;
    }
    outlet
    {
        type            zeroGradient;
    }
}


// ************************************************************************* //
