/*--------------------------------*- C++ -*----------------------------------*\
  =========                 |
  \\      /  F ield         | OpenFOAM: The Open Source CFD Toolbox
   \\    /   O peration     | Website:  https://openfoam.org
    \\  /    A nd           | Version:  7
     \\/     M anipulation  |
\*---------------------------------------------------------------------------*/
FoamFile
{
    version     2.0;
    format      ascii;
    class       volScalarField;
    location    "0.00016";
    object      HO2;
}
// * * * * * * * * * * * * * * * * * * * * * * * * * * * * * * * * * * * * * //

dimensions      [0 0 0 0 0 0 0];

internalField   nonuniform List<scalar> 
500
(
5.67055e-38
1.30344e-37
2.0588e-37
2.83419e-37
3.63108e-37
4.44828e-37
5.27985e-37
6.11388e-37
6.93294e-37
7.71615e-37
8.44227e-37
9.09305e-37
9.65588e-37
1.01252e-36
1.05024e-36
1.07947e-36
1.10133e-36
1.1171e-36
1.12811e-36
1.13554e-36
1.1404e-36
1.14348e-36
1.14538e-36
1.14651e-36
1.14717e-36
1.14754e-36
1.14775e-36
1.14786e-36
1.14791e-36
1.14794e-36
1.14795e-36
1.14796e-36
1.14796e-36
1.14796e-36
1.14796e-36
1.14795e-36
1.14795e-36
1.14795e-36
1.14795e-36
1.14794e-36
1.14794e-36
1.14794e-36
1.14794e-36
1.14793e-36
1.14793e-36
1.14793e-36
1.14793e-36
1.14793e-36
1.14793e-36
1.14793e-36
1.14793e-36
1.14793e-36
1.14793e-36
1.14793e-36
1.14793e-36
1.14793e-36
1.14793e-36
1.14793e-36
1.14793e-36
1.14793e-36
1.14794e-36
1.14794e-36
1.14795e-36
1.14795e-36
1.14796e-36
1.14796e-36
1.14797e-36
1.14797e-36
1.14798e-36
1.14799e-36
1.148e-36
1.14801e-36
1.14802e-36
1.14803e-36
1.14804e-36
1.14805e-36
1.14807e-36
1.14808e-36
1.1481e-36
1.14811e-36
1.14813e-36
1.14815e-36
1.14817e-36
1.14819e-36
1.14821e-36
1.14823e-36
1.14825e-36
1.14827e-36
1.1483e-36
1.14832e-36
1.14835e-36
1.14838e-36
1.14841e-36
1.14844e-36
1.14847e-36
1.1485e-36
1.14853e-36
1.14857e-36
1.1486e-36
1.14864e-36
1.14868e-36
1.14872e-36
1.14876e-36
1.1488e-36
1.14884e-36
1.14889e-36
1.14893e-36
1.14898e-36
1.14902e-36
1.14907e-36
1.14912e-36
1.14917e-36
1.14922e-36
1.14928e-36
1.14933e-36
1.14938e-36
1.14944e-36
1.1495e-36
1.14955e-36
1.14961e-36
1.14965e-36
1.14963e-36
1.14942e-36
1.14841e-36
1.14435e-36
1.13648e-36
1.1367e-36
1.137e-36
1.13741e-36
1.13797e-36
1.13874e-36
1.13972e-36
1.14091e-36
1.14226e-36
1.14367e-36
1.14507e-36
1.14637e-36
1.14752e-36
1.14848e-36
1.14925e-36
1.14984e-36
1.15029e-36
1.15061e-36
1.15085e-36
1.15102e-36
1.15114e-36
1.15124e-36
1.15131e-36
1.15138e-36
1.15143e-36
1.15148e-36
1.15153e-36
1.15157e-36
1.15161e-36
1.15164e-36
1.15167e-36
1.15169e-36
1.15171e-36
1.15173e-36
1.15174e-36
1.15175e-36
1.15175e-36
1.15175e-36
1.15174e-36
1.15172e-36
1.1517e-36
1.15167e-36
1.15163e-36
1.15159e-36
1.15153e-36
1.15147e-36
1.1514e-36
1.15132e-36
1.15124e-36
1.15114e-36
1.15103e-36
1.15091e-36
1.15078e-36
1.15064e-36
1.15049e-36
1.15032e-36
1.15014e-36
1.14995e-36
1.14975e-36
1.14953e-36
1.1493e-36
1.14905e-36
1.14879e-36
1.14851e-36
1.14822e-36
1.14791e-36
1.14758e-36
1.14724e-36
1.14688e-36
1.1465e-36
1.1461e-36
1.14569e-36
1.14526e-36
1.14481e-36
1.14434e-36
1.14385e-36
1.14334e-36
1.14282e-36
1.14227e-36
1.14171e-36
1.14112e-36
1.14052e-36
1.13989e-36
1.13925e-36
1.13858e-36
1.1379e-36
1.13719e-36
1.13647e-36
1.13573e-36
1.13497e-36
1.13419e-36
1.13339e-36
1.13258e-36
1.13174e-36
1.13089e-36
1.13002e-36
1.12914e-36
1.12824e-36
1.12732e-36
1.12639e-36
1.12545e-36
1.12449e-36
1.12354e-36
1.12269e-36
1.12243e-36
1.12576e-36
1.15006e-36
1.29614e-36
2.14617e-36
7.05376e-36
3.5312e-35
1.97907e-34
1.13399e-33
6.53192e-33
3.7734e-32
2.18629e-31
1.27083e-30
7.41252e-30
4.3391e-29
2.54942e-28
1.50367e-27
8.90452e-27
5.29529e-26
3.16251e-25
1.89669e-24
1.1419e-23
7.26716e-23
4.44572e-22
2.69553e-21
1.62984e-20
9.81374e-20
5.87083e-19
3.48051e-18
2.03967e-17
1.17861e-16
6.69967e-16
3.73824e-15
2.04347e-14
1.09249e-13
5.70448e-13
2.90606e-12
1.44352e-11
6.9911e-11
3.30331e-10
1.52503e-09
6.89579e-09
3.06386e-08
1.34179e-07
5.79904e-07
2.46271e-06
1.01751e-05
3.96511e-05
0.000135808
0.000348486
0.000514812
0.000490029
0.000385811
0.000277709
0.00019499
0.000136401
9.51981e-05
6.69066e-05
4.84292e-05
3.42473e-05
2.65044e-05
2.14909e-05
1.81462e-05
1.58283e-05
1.41517e-05
1.2886e-05
1.18922e-05
1.10852e-05
1.04113e-05
9.83576e-06
9.33543e-06
8.89423e-06
8.50069e-06
8.14633e-06
7.82472e-06
7.53087e-06
7.26078e-06
7.01122e-06
6.77955e-06
6.56356e-06
6.3614e-06
6.17153e-06
5.99275e-06
5.82908e-06
5.67554e-06
5.52826e-06
5.38659e-06
5.24996e-06
5.11783e-06
4.98975e-06
4.8653e-06
4.74409e-06
4.62582e-06
4.51018e-06
4.39694e-06
4.28589e-06
4.17685e-06
4.06968e-06
3.96428e-06
3.86057e-06
3.75851e-06
3.65807e-06
3.55927e-06
3.46213e-06
3.36672e-06
3.27311e-06
3.1814e-06
3.09168e-06
3.00408e-06
2.91872e-06
2.83575e-06
2.7553e-06
2.67751e-06
2.6025e-06
2.53042e-06
2.46139e-06
2.39551e-06
2.33289e-06
2.27361e-06
2.21773e-06
2.1653e-06
2.11635e-06
2.07089e-06
2.02888e-06
1.9903e-06
1.95506e-06
1.92309e-06
1.89427e-06
1.86846e-06
1.84552e-06
1.82526e-06
1.80752e-06
1.7921e-06
1.77879e-06
1.7674e-06
1.75771e-06
1.74953e-06
1.74268e-06
1.73695e-06
1.7322e-06
1.72824e-06
1.72494e-06
1.72215e-06
1.71971e-06
1.71744e-06
1.7151e-06
1.71244e-06
1.70996e-06
1.70889e-06
1.70844e-06
1.70824e-06
1.70818e-06
1.7082e-06
1.70829e-06
1.70846e-06
1.70871e-06
1.70906e-06
1.7095e-06
1.71004e-06
1.71068e-06
1.71142e-06
1.71226e-06
1.71319e-06
1.7142e-06
1.71529e-06
1.71644e-06
1.71764e-06
1.71888e-06
1.72014e-06
1.72142e-06
1.7227e-06
1.72398e-06
1.72524e-06
1.72647e-06
1.72767e-06
1.72882e-06
1.72993e-06
1.73099e-06
1.732e-06
1.73295e-06
1.73384e-06
1.73468e-06
1.73546e-06
1.73618e-06
1.73685e-06
1.73747e-06
1.73804e-06
1.73856e-06
1.73903e-06
1.73946e-06
1.73985e-06
1.74021e-06
1.74053e-06
1.74083e-06
1.74109e-06
1.74133e-06
1.74154e-06
1.74174e-06
1.74191e-06
1.74207e-06
1.74222e-06
1.74235e-06
1.74247e-06
1.74258e-06
1.74267e-06
1.74277e-06
1.74285e-06
1.74293e-06
1.743e-06
1.74307e-06
1.74313e-06
1.74319e-06
1.74325e-06
1.7433e-06
1.74336e-06
1.74341e-06
1.74346e-06
1.7435e-06
1.74355e-06
1.74359e-06
1.74364e-06
1.74368e-06
1.74372e-06
1.74377e-06
1.74381e-06
1.74385e-06
1.74389e-06
1.74393e-06
1.74397e-06
1.74401e-06
1.74404e-06
1.74408e-06
1.74412e-06
1.74416e-06
1.74419e-06
1.74423e-06
1.74427e-06
1.7443e-06
1.74434e-06
1.74437e-06
1.74441e-06
1.74444e-06
1.74448e-06
1.74451e-06
1.74454e-06
1.74457e-06
1.74461e-06
1.74464e-06
1.74467e-06
1.7447e-06
1.74473e-06
1.74476e-06
1.74479e-06
1.74481e-06
1.74484e-06
1.74487e-06
1.74489e-06
1.74492e-06
1.74495e-06
1.74497e-06
1.74499e-06
1.74502e-06
1.74504e-06
1.74506e-06
1.74508e-06
1.7451e-06
1.74512e-06
1.74514e-06
1.74516e-06
1.74517e-06
1.74518e-06
)
;

boundaryField
{
    boundary
    {
        type            empty;
    }
    inlet
    {
        type            fixedValue;
        value           uniform 0;
    }
    outlet
    {
        type            zeroGradient;
    }
}


// ************************************************************************* //
