/*--------------------------------*- C++ -*----------------------------------*\
  =========                 |
  \\      /  F ield         | OpenFOAM: The Open Source CFD Toolbox
   \\    /   O peration     | Website:  https://openfoam.org
    \\  /    A nd           | Version:  7
     \\/     M anipulation  |
\*---------------------------------------------------------------------------*/
FoamFile
{
    version     2.0;
    format      ascii;
    class       volScalarField;
    location    "0.00016";
    object      OH;
}
// * * * * * * * * * * * * * * * * * * * * * * * * * * * * * * * * * * * * * //

dimensions      [0 0 0 0 0 0 0];

internalField   nonuniform List<scalar> 
500
(
9.53901e-48
1.88336e-47
2.54927e-47
3.03793e-47
3.41476e-47
3.72601e-47
4.00282e-47
4.26431e-47
4.5199e-47
4.77158e-47
5.01612e-47
5.24749e-47
5.45904e-47
5.64525e-47
5.80281e-47
5.93095e-47
6.0312e-47
6.10673e-47
6.16162e-47
6.20016e-47
6.22634e-47
6.24357e-47
6.25456e-47
6.26138e-47
6.26549e-47
6.2679e-47
6.26927e-47
6.27003e-47
6.27043e-47
6.27064e-47
6.27073e-47
6.27077e-47
6.27078e-47
6.27077e-47
6.27075e-47
6.27073e-47
6.27071e-47
6.27069e-47
6.27066e-47
6.27064e-47
6.27062e-47
6.2706e-47
6.27058e-47
6.27056e-47
6.27054e-47
6.27052e-47
6.2705e-47
6.27048e-47
6.27047e-47
6.27045e-47
6.27044e-47
6.27043e-47
6.27042e-47
6.27041e-47
6.27041e-47
6.2704e-47
6.2704e-47
6.2704e-47
6.27041e-47
6.27041e-47
6.27042e-47
6.27043e-47
6.27045e-47
6.27047e-47
6.27049e-47
6.27052e-47
6.27054e-47
6.27058e-47
6.27062e-47
6.27066e-47
6.2707e-47
6.27075e-47
6.27081e-47
6.27087e-47
6.27094e-47
6.27101e-47
6.27108e-47
6.27117e-47
6.27125e-47
6.27135e-47
6.27145e-47
6.27155e-47
6.27166e-47
6.27178e-47
6.27191e-47
6.27204e-47
6.27218e-47
6.27233e-47
6.27248e-47
6.27264e-47
6.27281e-47
6.27299e-47
6.27317e-47
6.27336e-47
6.27356e-47
6.27377e-47
6.27398e-47
6.27421e-47
6.27444e-47
6.27468e-47
6.27493e-47
6.27518e-47
6.27545e-47
6.27572e-47
6.276e-47
6.27629e-47
6.27659e-47
6.27689e-47
6.27721e-47
6.27753e-47
6.27786e-47
6.2782e-47
6.27854e-47
6.27889e-47
6.27925e-47
6.27962e-47
6.27999e-47
6.28037e-47
6.28076e-47
6.28115e-47
6.28154e-47
6.28192e-47
6.28229e-47
6.28261e-47
6.28282e-47
6.2829e-47
6.28319e-47
6.28344e-47
6.28367e-47
6.2839e-47
6.28415e-47
6.28446e-47
6.28485e-47
6.28533e-47
6.28588e-47
6.28651e-47
6.28716e-47
6.28783e-47
6.28848e-47
6.2891e-47
6.28968e-47
6.29021e-47
6.29071e-47
6.29116e-47
6.29159e-47
6.29199e-47
6.29236e-47
6.29271e-47
6.29304e-47
6.29335e-47
6.29364e-47
6.29391e-47
6.29415e-47
6.29437e-47
6.29457e-47
6.29473e-47
6.29487e-47
6.29498e-47
6.29506e-47
6.2951e-47
6.2951e-47
6.29507e-47
6.29499e-47
6.29487e-47
6.29471e-47
6.2945e-47
6.29424e-47
6.29392e-47
6.29355e-47
6.29313e-47
6.29264e-47
6.29209e-47
6.29148e-47
6.2908e-47
6.29005e-47
6.28923e-47
6.28833e-47
6.28735e-47
6.28629e-47
6.28515e-47
6.28391e-47
6.2826e-47
6.28118e-47
6.27968e-47
6.27807e-47
6.27637e-47
6.27456e-47
6.27265e-47
6.27063e-47
6.26849e-47
6.26625e-47
6.26389e-47
6.26141e-47
6.25881e-47
6.25609e-47
6.25325e-47
6.25028e-47
6.24718e-47
6.24396e-47
6.2406e-47
6.23711e-47
6.23349e-47
6.22974e-47
6.22585e-47
6.22182e-47
6.21766e-47
6.21337e-47
6.20894e-47
6.20438e-47
6.19968e-47
6.19485e-47
6.18989e-47
6.18479e-47
6.17957e-47
6.17422e-47
6.16874e-47
6.16315e-47
6.15743e-47
6.15164e-47
6.14604e-47
6.14293e-47
6.16117e-47
6.35471e-47
7.96617e-47
2.0913e-46
1.23448e-45
9.25913e-45
7.13336e-44
5.45902e-43
4.1313e-42
3.08971e-41
2.28311e-40
1.66671e-39
1.20188e-38
8.56e-38
6.02043e-37
4.18073e-36
2.86594e-35
1.93904e-34
1.29457e-33
8.52689e-33
5.53972e-32
3.54917e-31
2.2419e-30
1.39596e-29
8.5666e-29
5.18025e-28
3.08623e-27
1.81124e-26
1.04699e-25
5.96048e-25
3.34851e-24
1.84898e-23
1.00524e-22
5.38233e-22
2.83853e-21
1.47475e-20
7.55011e-20
3.81024e-19
1.89635e-18
9.31351e-18
4.51734e-17
2.16602e-16
1.028e-15
4.83646e-15
2.25959e-14
1.05033e-13
4.86711e-13
2.25242e-12
1.04256e-11
4.83117e-11
2.24844e-10
1.06112e-09
5.05328e-09
2.41729e-08
1.17075e-07
5.95397e-07
3.44789e-06
2.33711e-05
0.000145409
0.000488
0.000772484
0.000924263
0.00123126
0.00193142
0.00305599
0.00441588
0.00577241
0.00713054
0.0081323
0.00892143
0.0095364
0.0100145
0.0103879
0.0106815
0.0109141
0.0110993
0.0112471
0.0113649
0.0114582
0.0115313
0.0115872
0.0116285
0.0116572
0.0116748
0.0116826
0.0116817
0.0116729
0.0116569
0.0116344
0.0116058
0.0115716
0.0115337
0.0114922
0.0114465
0.0113968
0.0113435
0.0112866
0.0112264
0.0111632
0.0110972
0.0110287
0.0109581
0.0108855
0.0108113
0.0107359
0.0106595
0.0105826
0.0105056
0.0104286
0.0103522
0.0102766
0.0102022
0.0101293
0.0100581
0.00998884
0.00992178
0.00985704
0.00979474
0.00973493
0.00967764
0.00962282
0.00957038
0.00952017
0.00947203
0.0094257
0.00938093
0.00933742
0.00929483
0.00925283
0.00921105
0.00916912
0.00912668
0.00908338
0.00903888
0.00899286
0.00894503
0.00889514
0.00884298
0.00878837
0.00873117
0.00867131
0.00860875
0.00854349
0.00847557
0.00840511
0.00833221
0.00825705
0.00817983
0.00810077
0.0080201
0.00793808
0.00785495
0.00777098
0.0076864
0.00760148
0.00751666
0.00743278
0.00735
0.00726848
0.00718837
0.00710985
0.00703308
0.00695823
0.00688543
0.00681483
0.00674655
0.00668068
0.00661731
0.0065565
0.0064983
0.00644274
0.00638985
0.00633962
0.00629204
0.00624708
0.00620471
0.00616488
0.00612753
0.0060926
0.00606001
0.00602968
0.00600153
0.00597546
0.00595139
0.00592921
0.00590883
0.00589015
0.00587307
0.0058575
0.00584333
0.00583048
0.00581885
0.00580836
0.00579891
0.00579042
0.00578282
0.00577603
0.00576998
0.00576461
0.00575985
0.00575564
0.00575193
0.00574867
0.00574582
0.00574332
0.00574115
0.00573926
0.00573763
0.00573622
0.00573501
0.00573397
0.00573309
0.00573234
0.0057317
0.00573117
0.00573072
0.00573035
0.00573004
0.00572979
0.00572959
0.00572943
0.0057293
0.00572921
0.00572914
0.00572908
0.00572905
0.00572903
0.00572903
0.00572903
0.00572905
0.00572907
0.00572909
0.00572912
0.00572916
0.00572919
0.00572923
0.00572928
0.00572932
0.00572936
0.00572941
0.00572945
0.0057295
0.00572955
0.00572959
0.00572964
0.00572968
0.00572973
0.00572977
0.00572982
0.00572986
0.00572991
0.00572995
0.00572999
0.00573003
0.00573007
0.00573011
0.00573015
0.00573019
0.00573023
0.00573027
0.0057303
0.00573034
0.00573037
0.00573041
0.00573044
0.00573047
0.0057305
0.00573053
0.00573056
0.00573059
0.00573062
0.00573064
0.00573067
0.00573069
0.00573072
0.00573074
0.00573076
0.00573077
0.00573078
)
;

boundaryField
{
    boundary
    {
        type            empty;
    }
    inlet
    {
        type            fixedValue;
        value           uniform 0;
    }
    outlet
    {
        type            zeroGradient;
    }
}


// ************************************************************************* //
