/*--------------------------------*- C++ -*----------------------------------*\
  =========                 |
  \\      /  F ield         | OpenFOAM: The Open Source CFD Toolbox
   \\    /   O peration     | Website:  https://openfoam.org
    \\  /    A nd           | Version:  7
     \\/     M anipulation  |
\*---------------------------------------------------------------------------*/
FoamFile
{
    version     2.0;
    format      ascii;
    class       surfaceScalarField;
    location    "0.00016";
    object      phi;
}
// * * * * * * * * * * * * * * * * * * * * * * * * * * * * * * * * * * * * * //

dimensions      [1 0 -1 0 0 0 0];

internalField   nonuniform List<scalar> 
499
(
6.92551e-06
6.92471e-06
6.92367e-06
6.92242e-06
6.92091e-06
6.91912e-06
6.91701e-06
6.91459e-06
6.91191e-06
6.90908e-06
6.90621e-06
6.90344e-06
6.90088e-06
6.89861e-06
6.89668e-06
6.89509e-06
6.89383e-06
6.89286e-06
6.89213e-06
6.89159e-06
6.8912e-06
6.89091e-06
6.89069e-06
6.89053e-06
6.89039e-06
6.89027e-06
6.89016e-06
6.89006e-06
6.88996e-06
6.88986e-06
6.88975e-06
6.88965e-06
6.88954e-06
6.88943e-06
6.88931e-06
6.8892e-06
6.88907e-06
6.88895e-06
6.88882e-06
6.88869e-06
6.88855e-06
6.88841e-06
6.88827e-06
6.88812e-06
6.88797e-06
6.88781e-06
6.88765e-06
6.88748e-06
6.88731e-06
6.88714e-06
6.88696e-06
6.88677e-06
6.88658e-06
6.88639e-06
6.88619e-06
6.88598e-06
6.88577e-06
6.88556e-06
6.88534e-06
6.88511e-06
6.88488e-06
6.88464e-06
6.8844e-06
6.88415e-06
6.8839e-06
6.88364e-06
6.88337e-06
6.8831e-06
6.88282e-06
6.88253e-06
6.88224e-06
6.88195e-06
6.88164e-06
6.88133e-06
6.88102e-06
6.88069e-06
6.88037e-06
6.88003e-06
6.87969e-06
6.87934e-06
6.87898e-06
6.87862e-06
6.87825e-06
6.87787e-06
6.87749e-06
6.8771e-06
6.8767e-06
6.8763e-06
6.87588e-06
6.87546e-06
6.87504e-06
6.8746e-06
6.87416e-06
6.87371e-06
6.87326e-06
6.8728e-06
6.87233e-06
6.87185e-06
6.87136e-06
6.87087e-06
6.87037e-06
6.86986e-06
6.86934e-06
6.86882e-06
6.86829e-06
6.86775e-06
6.8672e-06
6.86665e-06
6.86609e-06
6.86552e-06
6.86494e-06
6.86436e-06
6.86376e-06
6.86316e-06
6.86256e-06
6.86194e-06
6.86132e-06
6.86068e-06
6.86005e-06
6.8594e-06
6.85874e-06
6.85808e-06
6.85741e-06
6.85673e-06
6.85605e-06
6.85536e-06
6.85466e-06
6.85395e-06
6.85324e-06
6.85252e-06
6.85179e-06
6.85105e-06
6.8503e-06
6.84955e-06
6.84879e-06
6.84802e-06
6.84724e-06
6.84646e-06
6.84566e-06
6.84487e-06
6.84406e-06
6.84325e-06
6.84242e-06
6.8416e-06
6.84076e-06
6.83992e-06
6.83907e-06
6.83822e-06
6.83736e-06
6.83649e-06
6.83561e-06
6.83473e-06
6.83384e-06
6.83295e-06
6.83204e-06
6.83113e-06
6.83022e-06
6.8293e-06
6.82837e-06
6.82744e-06
6.8265e-06
6.82555e-06
6.8246e-06
6.82364e-06
6.82267e-06
6.8217e-06
6.82073e-06
6.81975e-06
6.81876e-06
6.81777e-06
6.81677e-06
6.81576e-06
6.81476e-06
6.81374e-06
6.81272e-06
6.8117e-06
6.81067e-06
6.80964e-06
6.8086e-06
6.80756e-06
6.80651e-06
6.80546e-06
6.8044e-06
6.80334e-06
6.80227e-06
6.80121e-06
6.80013e-06
6.79906e-06
6.79798e-06
6.79689e-06
6.79581e-06
6.79472e-06
6.79362e-06
6.79253e-06
6.79143e-06
6.79032e-06
6.78922e-06
6.78811e-06
6.787e-06
6.78588e-06
6.78477e-06
6.78365e-06
6.78253e-06
6.78141e-06
6.78028e-06
6.77915e-06
6.77803e-06
6.7769e-06
6.77576e-06
6.77463e-06
6.77349e-06
6.77236e-06
6.77122e-06
6.77008e-06
6.76894e-06
6.7678e-06
6.76666e-06
6.76551e-06
6.76437e-06
6.76323e-06
6.76208e-06
6.76093e-06
6.75979e-06
6.75864e-06
6.75749e-06
6.75634e-06
6.7552e-06
6.75405e-06
6.7529e-06
6.75175e-06
6.7506e-06
6.74945e-06
6.7483e-06
6.74715e-06
6.746e-06
6.74485e-06
6.7437e-06
6.74256e-06
6.74141e-06
6.74026e-06
6.73911e-06
6.73796e-06
6.73682e-06
6.73567e-06
6.73452e-06
6.73338e-06
6.73223e-06
6.73109e-06
6.72995e-06
6.7288e-06
6.72766e-06
6.72653e-06
6.72539e-06
6.72425e-06
6.72312e-06
6.72199e-06
6.72086e-06
6.71973e-06
6.7186e-06
6.71747e-06
6.71634e-06
6.71522e-06
6.71409e-06
6.71297e-06
6.71186e-06
6.71074e-06
6.70963e-06
6.70852e-06
6.70741e-06
6.70631e-06
6.70523e-06
6.70419e-06
6.70331e-06
6.70286e-06
6.70366e-06
6.70798e-06
6.72186e-06
6.75858e-06
6.83239e-06
6.92702e-06
7.00437e-06
7.05432e-06
7.0861e-06
7.10765e-06
7.12278e-06
7.13339e-06
7.14082e-06
7.14602e-06
7.14979e-06
7.15261e-06
7.1548e-06
7.15656e-06
7.15802e-06
7.15927e-06
7.16036e-06
7.16135e-06
7.16226e-06
7.16312e-06
7.16395e-06
7.16477e-06
7.1656e-06
7.16644e-06
7.16732e-06
7.16824e-06
7.1692e-06
7.17022e-06
7.17131e-06
7.17247e-06
7.1737e-06
7.17501e-06
7.1764e-06
7.17787e-06
7.17931e-06
7.18081e-06
7.18236e-06
7.18395e-06
7.18557e-06
7.18719e-06
7.18878e-06
7.19032e-06
7.19177e-06
7.19309e-06
7.19423e-06
7.19514e-06
7.19577e-06
7.19606e-06
7.19593e-06
7.19532e-06
7.19416e-06
7.19238e-06
7.1899e-06
7.18665e-06
7.18255e-06
7.17755e-06
7.17157e-06
7.16456e-06
7.15648e-06
7.14728e-06
7.13694e-06
7.12544e-06
7.11278e-06
7.09897e-06
7.08404e-06
7.06802e-06
7.05096e-06
7.03293e-06
7.01401e-06
6.99429e-06
6.97386e-06
6.95283e-06
6.93132e-06
6.90945e-06
6.88734e-06
6.86511e-06
6.84289e-06
6.82081e-06
6.79898e-06
6.77752e-06
6.75654e-06
6.73614e-06
6.71641e-06
6.69743e-06
6.67929e-06
6.66205e-06
6.64575e-06
6.63045e-06
6.61617e-06
6.60293e-06
6.59075e-06
6.57963e-06
6.56957e-06
6.56053e-06
6.5525e-06
6.54543e-06
6.53919e-06
6.53344e-06
6.52917e-06
6.52566e-06
6.52287e-06
6.52077e-06
6.5193e-06
6.51839e-06
6.518e-06
6.51806e-06
6.51852e-06
6.51932e-06
6.52042e-06
6.52177e-06
6.52331e-06
6.52502e-06
6.52685e-06
6.52876e-06
6.53073e-06
6.53272e-06
6.53472e-06
6.5367e-06
6.53863e-06
6.54052e-06
6.54234e-06
6.54408e-06
6.54574e-06
6.54731e-06
6.54878e-06
6.55016e-06
6.55143e-06
6.5526e-06
6.55368e-06
6.55465e-06
6.55554e-06
6.55632e-06
6.55702e-06
6.55764e-06
6.55818e-06
6.55863e-06
6.55902e-06
6.55934e-06
6.5596e-06
6.55981e-06
6.55996e-06
6.56006e-06
6.56011e-06
6.56013e-06
6.5601e-06
6.56005e-06
6.55996e-06
6.55985e-06
6.55971e-06
6.55955e-06
6.55937e-06
6.55917e-06
6.55896e-06
6.55873e-06
6.55849e-06
6.55823e-06
6.55797e-06
6.5577e-06
6.55742e-06
6.55714e-06
6.55685e-06
6.55655e-06
6.55625e-06
6.55594e-06
6.55564e-06
6.55532e-06
6.55501e-06
6.55469e-06
6.55437e-06
6.55404e-06
6.55372e-06
6.55339e-06
6.55306e-06
6.55273e-06
6.5524e-06
6.55206e-06
6.55173e-06
6.55139e-06
6.55105e-06
6.55071e-06
6.55037e-06
6.55003e-06
6.54968e-06
6.54934e-06
6.54899e-06
6.54864e-06
6.54829e-06
6.54794e-06
6.54759e-06
6.54724e-06
6.54688e-06
6.54653e-06
6.54617e-06
6.54581e-06
6.54545e-06
6.54509e-06
6.54473e-06
6.54437e-06
6.544e-06
6.54364e-06
6.54327e-06
6.5429e-06
6.54253e-06
6.54216e-06
6.54179e-06
6.54141e-06
6.54104e-06
6.54066e-06
6.54029e-06
6.53991e-06
6.53953e-06
6.53914e-06
6.53876e-06
6.53838e-06
6.53799e-06
6.5376e-06
6.53721e-06
6.53682e-06
6.53643e-06
6.53604e-06
6.53564e-06
)
;

boundaryField
{
    boundary
    {
        type            empty;
        value           nonuniform 0();
    }
    inlet
    {
        type            calculated;
        value           uniform -6.92598e-06;
    }
    outlet
    {
        type            calculated;
        value           uniform 6.53525e-06;
    }
}


// ************************************************************************* //
