/*--------------------------------*- C++ -*----------------------------------*\
  =========                 |
  \\      /  F ield         | OpenFOAM: The Open Source CFD Toolbox
   \\    /   O peration     | Website:  https://openfoam.org
    \\  /    A nd           | Version:  7
     \\/     M anipulation  |
\*---------------------------------------------------------------------------*/
FoamFile
{
    version     2.0;
    format      ascii;
    class       volScalarField;
    location    "0.00016";
    object      Qdot;
}
// * * * * * * * * * * * * * * * * * * * * * * * * * * * * * * * * * * * * * //

dimensions      [1 -1 -3 0 0 0 0];

internalField   nonuniform List<scalar> 
500
(
-2.45991e-27
-1.88979e-27
-1.78814e-27
-1.7921e-27
-1.82445e-27
-1.86948e-27
-1.92432e-27
-1.98805e-27
-2.05917e-27
-2.13516e-27
-2.21271e-27
-2.28819e-27
-2.35825e-27
-2.4203e-27
-2.47283e-27
-2.51539e-27
-2.54847e-27
-2.57318e-27
-2.59098e-27
-2.60334e-27
-2.61165e-27
-2.61707e-27
-2.62048e-27
-2.62258e-27
-2.62382e-27
-2.62454e-27
-2.62495e-27
-2.62516e-27
-2.62528e-27
-2.62533e-27
-2.62535e-27
-2.62535e-27
-2.62534e-27
-2.62533e-27
-2.62532e-27
-2.62531e-27
-2.62529e-27
-2.62528e-27
-2.62526e-27
-2.62525e-27
-2.62523e-27
-2.62521e-27
-2.6252e-27
-2.62518e-27
-2.62517e-27
-2.62515e-27
-2.62514e-27
-2.62513e-27
-2.62511e-27
-2.6251e-27
-2.62509e-27
-2.62507e-27
-2.62506e-27
-2.62505e-27
-2.62504e-27
-2.62503e-27
-2.62502e-27
-2.62501e-27
-2.625e-27
-2.62499e-27
-2.62499e-27
-2.62498e-27
-2.62498e-27
-2.62497e-27
-2.62497e-27
-2.62497e-27
-2.62497e-27
-2.62497e-27
-2.62497e-27
-2.62498e-27
-2.62498e-27
-2.62499e-27
-2.625e-27
-2.62501e-27
-2.62502e-27
-2.62503e-27
-2.62505e-27
-2.62507e-27
-2.62508e-27
-2.62511e-27
-2.62513e-27
-2.62515e-27
-2.62518e-27
-2.62521e-27
-2.62524e-27
-2.62528e-27
-2.62532e-27
-2.62535e-27
-2.6254e-27
-2.62544e-27
-2.62549e-27
-2.62554e-27
-2.62559e-27
-2.62564e-27
-2.6257e-27
-2.62576e-27
-2.62582e-27
-2.62589e-27
-2.62595e-27
-2.62603e-27
-2.6261e-27
-2.62618e-27
-2.62626e-27
-2.62634e-27
-2.62642e-27
-2.62651e-27
-2.6266e-27
-2.62669e-27
-2.62679e-27
-2.62689e-27
-2.62699e-27
-2.6271e-27
-2.6272e-27
-2.62731e-27
-2.62742e-27
-2.62754e-27
-2.62766e-27
-2.62777e-27
-2.6279e-27
-2.62802e-27
-2.62814e-27
-2.62827e-27
-2.62839e-27
-2.6285e-27
-2.6286e-27
-2.62866e-27
-2.62873e-27
-2.62882e-27
-2.62891e-27
-2.629e-27
-2.6291e-27
-2.62921e-27
-2.62934e-27
-2.62949e-27
-2.62966e-27
-2.62984e-27
-2.63003e-27
-2.63023e-27
-2.63042e-27
-2.63059e-27
-2.63076e-27
-2.63092e-27
-2.63107e-27
-2.63121e-27
-2.63134e-27
-2.63146e-27
-2.63158e-27
-2.63169e-27
-2.63179e-27
-2.63189e-27
-2.63198e-27
-2.63206e-27
-2.63213e-27
-2.6322e-27
-2.63226e-27
-2.63231e-27
-2.63235e-27
-2.63238e-27
-2.6324e-27
-2.6324e-27
-2.6324e-27
-2.63238e-27
-2.63235e-27
-2.6323e-27
-2.63224e-27
-2.63216e-27
-2.63206e-27
-2.63195e-27
-2.63182e-27
-2.63167e-27
-2.6315e-27
-2.63131e-27
-2.6311e-27
-2.63086e-27
-2.6306e-27
-2.63032e-27
-2.63001e-27
-2.62967e-27
-2.62931e-27
-2.62892e-27
-2.6285e-27
-2.62805e-27
-2.62756e-27
-2.62705e-27
-2.6265e-27
-2.62592e-27
-2.62531e-27
-2.62466e-27
-2.62397e-27
-2.62325e-27
-2.62249e-27
-2.62169e-27
-2.62085e-27
-2.61996e-27
-2.61904e-27
-2.61808e-27
-2.61707e-27
-2.61602e-27
-2.61493e-27
-2.6138e-27
-2.61262e-27
-2.61139e-27
-2.61012e-27
-2.6088e-27
-2.60744e-27
-2.60604e-27
-2.60458e-27
-2.60309e-27
-2.60154e-27
-2.59996e-27
-2.59832e-27
-2.59664e-27
-2.59492e-27
-2.59316e-27
-2.59135e-27
-2.58949e-27
-2.5876e-27
-2.58567e-27
-2.58369e-27
-2.58168e-27
-2.57963e-27
-2.57754e-27
-2.57542e-27
-2.57327e-27
-2.57108e-27
-2.56885e-27
-2.56659e-27
-2.56423e-27
-2.56133e-27
-2.55471e-27
-2.52185e-27
-2.30416e-27
-7.953e-28
9.65101e-27
8.1364e-26
5.68825e-25
3.84787e-24
2.5667e-23
1.6923e-22
1.1029e-21
7.10265e-21
4.51837e-20
2.83839e-19
1.76017e-18
1.0772e-17
6.50392e-17
3.87325e-16
2.27454e-15
1.31684e-14
7.51467e-14
4.22618e-13
2.35327e-12
1.28609e-11
6.92531e-11
3.67514e-10
1.92234e-09
9.91268e-09
5.04051e-08
2.5284e-07
1.25179e-06
6.12103e-06
2.95874e-05
0.000141549
0.000671195
0.00316039
0.0148111
0.0692758
0.324438
1.52708
7.25542
35.4256
189.34
1181.76
8922.01
69870
620660
5.87809e+06
5.59493e+07
4.75836e+08
2.74138e+09
8.13554e+09
1.26148e+10
1.38039e+10
1.38843e+10
1.38604e+10
1.3324e+10
1.19886e+10
1.01101e+10
8.17467e+09
6.65065e+09
5.52736e+09
4.66968e+09
4.01351e+09
3.50301e+09
3.09788e+09
2.76995e+09
2.49961e+09
2.27317e+09
2.08083e+09
1.91549e+09
1.77188e+09
1.64605e+09
1.53493e+09
1.43613e+09
1.34774e+09
1.26825e+09
1.1964e+09
1.13117e+09
1.07171e+09
1.0173e+09
9.67357e+08
9.21464e+08
8.8024e+08
8.42593e+08
8.07204e+08
7.73972e+08
7.4266e+08
7.13089e+08
6.85095e+08
6.58514e+08
6.33223e+08
6.09105e+08
5.86049e+08
5.63964e+08
5.4276e+08
5.22363e+08
5.027e+08
4.83711e+08
4.65342e+08
4.47546e+08
4.30278e+08
4.13505e+08
3.97193e+08
3.81318e+08
3.65859e+08
3.50797e+08
3.36119e+08
3.21815e+08
3.07878e+08
2.94302e+08
2.81085e+08
2.68226e+08
2.55725e+08
2.43582e+08
2.31799e+08
2.20378e+08
2.0932e+08
1.98625e+08
1.88296e+08
1.7833e+08
1.68728e+08
1.59487e+08
1.50605e+08
1.42077e+08
1.33898e+08
1.26063e+08
1.18567e+08
1.11401e+08
1.04558e+08
9.80318e+07
9.18127e+07
8.5893e+07
8.02641e+07
7.49178e+07
6.98453e+07
6.50384e+07
6.04889e+07
5.6188e+07
5.21277e+07
4.82995e+07
4.46948e+07
4.13048e+07
3.81198e+07
3.5129e+07
3.23129e+07
2.97205e+07
2.74109e+07
2.50731e+07
2.29143e+07
2.09223e+07
1.90815e+07
1.73799e+07
1.58074e+07
1.43548e+07
1.3014e+07
1.17812e+07
1.06387e+07
9.59044e+06
8.62681e+06
7.74208e+06
6.93059e+06
6.18728e+06
5.50728e+06
4.88601e+06
4.31918e+06
3.80266e+06
3.33294e+06
2.90605e+06
2.51883e+06
2.16816e+06
1.85098e+06
1.56476e+06
1.3068e+06
1.07503e+06
866670
679970
512998
363966
231121
113155
8821.7
-84026.1
-165480
-237461
-300621
-355998
-404267
-446257
-483093
-514815
-542281
-566012
-586435
-602960
-619101
-631839
-642634
-651936
-660122
-666628
-672151
-677043
-681060
-684669
-687764
-690440
-692776
-694881
-696892
-698405
-699690
-701239
-702652
-703951
-705020
-706099
-707182
-708252
-709301
-710324
-711300
-712501
-713463
-714452
-715448
-716446
-717249
-718248
-719245
-720241
-721233
-722222
-723205
-724184
-725156
-726121
-727080
-728030
-728972
-729905
-730826
-731736
-732638
-733532
-734420
-735307
-736177
-737030
-737867
-738689
-739499
-740294
-741076
-741845
-742599
-743340
-744066
-744777
-745474
-746154
-747020
-747687
-748341
-748970
-749569
-750102
-750654
-751193
-751693
-752080
)
;

boundaryField
{
    boundary
    {
        type            empty;
    }
    inlet
    {
        type            calculated;
        value           uniform 0;
    }
    outlet
    {
        type            calculated;
        value           uniform 0;
    }
}


// ************************************************************************* //
