/*--------------------------------*- C++ -*----------------------------------*\
  =========                 |
  \\      /  F ield         | OpenFOAM: The Open Source CFD Toolbox
   \\    /   O peration     | Website:  https://openfoam.org
    \\  /    A nd           | Version:  7
     \\/     M anipulation  |
\*---------------------------------------------------------------------------*/
FoamFile
{
    version     2.0;
    format      ascii;
    class       volScalarField;
    location    "0.00092";
    object      H;
}
// * * * * * * * * * * * * * * * * * * * * * * * * * * * * * * * * * * * * * //

dimensions      [0 0 0 0 0 0 0];

internalField   nonuniform List<scalar> 
126
(
3.46216e-41
3.46223e-41
3.4623e-41
3.46238e-41
3.46246e-41
3.46255e-41
3.46265e-41
3.46275e-41
3.46286e-41
3.46299e-41
3.46312e-41
3.46326e-41
3.46341e-41
3.46356e-41
3.46373e-41
3.46389e-41
3.46405e-41
3.46421e-41
3.46437e-41
3.46452e-41
3.46466e-41
3.46479e-41
3.46492e-41
3.46503e-41
3.46514e-41
3.46524e-41
3.46534e-41
3.46544e-41
3.46554e-41
3.46564e-41
3.46575e-41
3.46586e-41
3.46597e-41
3.4661e-41
3.46623e-41
3.46637e-41
3.46653e-41
3.46668e-41
3.46685e-41
3.46703e-41
3.46721e-41
3.46739e-41
3.46759e-41
3.46778e-41
3.46798e-41
3.46819e-41
3.46839e-41
3.4686e-41
3.46881e-41
3.46903e-41
3.46924e-41
3.46946e-41
3.46968e-41
3.4699e-41
3.47013e-41
3.47036e-41
3.47058e-41
3.47081e-41
3.47105e-41
3.47128e-41
3.47152e-41
3.47175e-41
3.47199e-41
3.47223e-41
3.47246e-41
3.4727e-41
3.47294e-41
3.47317e-41
3.47341e-41
3.47364e-41
3.47386e-41
3.47409e-41
3.47431e-41
3.47452e-41
3.47473e-41
3.47493e-41
3.47512e-41
3.47531e-41
3.47548e-41
3.47565e-41
3.47581e-41
3.47597e-41
3.47617e-41
3.4765e-41
3.47729e-41
3.47956e-41
3.48658e-41
3.50863e-41
3.5782e-41
3.79742e-41
4.48675e-41
6.64943e-41
1.34196e-40
3.45697e-40
1.00517e-39
3.05781e-39
9.43642e-39
2.92286e-38
9.05586e-38
2.80368e-37
8.67155e-37
2.67935e-36
8.27091e-36
2.55097e-35
7.86172e-35
2.42116e-34
7.45163e-34
2.29207e-33
7.04652e-33
2.16531e-32
6.65106e-32
2.04231e-31
6.2699e-31
1.92476e-30
5.90975e-30
1.81547e-29
5.58286e-29
1.71989e-28
5.31374e-28
1.64908e-27
5.15233e-27
1.62566e-26
5.20125e-26
1.69623e-25
5.67249e-25
1.95738e-24
)
;

boundaryField
{
    boundary
    {
        type            empty;
    }
    inlet
    {
        type            fixedValue;
        value           nonuniform 0();
    }
    outlet
    {
        type            zeroGradient;
    }
    procBoundary3to1
    {
        type            processor;
        value           uniform 7.04422e-24;
    }
    procBoundary3to2
    {
        type            processor;
        value           uniform 3.46218e-41;
    }
}


// ************************************************************************* //
