/*--------------------------------*- C++ -*----------------------------------*\
  =========                 |
  \\      /  F ield         | OpenFOAM: The Open Source CFD Toolbox
   \\    /   O peration     | Website:  https://openfoam.org
    \\  /    A nd           | Version:  7
     \\/     M anipulation  |
\*---------------------------------------------------------------------------*/
FoamFile
{
    version     2.0;
    format      ascii;
    class       volScalarField;
    location    "0.00097";
    object      O;
}
// * * * * * * * * * * * * * * * * * * * * * * * * * * * * * * * * * * * * * //

dimensions      [0 0 0 0 0 0 0];

internalField   nonuniform List<scalar> 
126
(
2.63765e-45
2.6377e-45
2.63775e-45
2.6378e-45
2.63786e-45
2.63792e-45
2.63798e-45
2.63805e-45
2.63812e-45
2.6382e-45
2.63828e-45
2.63837e-45
2.63846e-45
2.63856e-45
2.63866e-45
2.63877e-45
2.63888e-45
2.639e-45
2.63913e-45
2.63926e-45
2.6394e-45
2.63954e-45
2.6397e-45
2.63986e-45
2.64004e-45
2.64022e-45
2.64042e-45
2.64063e-45
2.64085e-45
2.6411e-45
2.64136e-45
2.64163e-45
2.64193e-45
2.64224e-45
2.64257e-45
2.64292e-45
2.64328e-45
2.64365e-45
2.64403e-45
2.64441e-45
2.6448e-45
2.64519e-45
2.64557e-45
2.64595e-45
2.64632e-45
2.64668e-45
2.64702e-45
2.64736e-45
2.64768e-45
2.64798e-45
2.64827e-45
2.64855e-45
2.64881e-45
2.64907e-45
2.64931e-45
2.64955e-45
2.64978e-45
2.65e-45
2.65022e-45
2.65044e-45
2.65066e-45
2.65088e-45
2.65112e-45
2.65138e-45
2.65175e-45
2.65246e-45
2.65431e-45
2.66001e-45
2.6786e-45
2.74013e-45
2.94429e-45
3.62002e-45
5.84874e-45
1.31709e-44
3.71333e-44
1.15249e-43
3.68947e-43
1.18987e-42
3.83679e-42
1.23421e-41
3.95815e-41
1.26542e-40
4.0331e-40
1.28161e-39
4.06106e-39
1.28336e-38
4.04523e-38
1.272e-37
3.99059e-37
1.24928e-36
3.90312e-36
1.21719e-35
3.78925e-35
1.17776e-34
3.6553e-34
1.13294e-33
3.50715e-33
1.08446e-32
3.34989e-32
1.03381e-31
3.18771e-31
9.8215e-31
3.02387e-30
9.30372e-30
2.86073e-29
8.79101e-29
2.69993e-28
8.28757e-28
2.54255e-27
7.79624e-27
2.38934e-26
7.31903e-26
2.24088e-25
6.85777e-25
2.09776e-24
6.41435e-24
1.96061e-23
5.99092e-23
1.83014e-22
5.58972e-22
1.70703e-21
5.21278e-21
1.59185e-20
4.86143e-20
1.48484e-19
4.53596e-19
)
;

boundaryField
{
    boundary
    {
        type            empty;
    }
    inlet
    {
        type            fixedValue;
        value           nonuniform 0();
    }
    outlet
    {
        type            zeroGradient;
    }
    procBoundary3to1
    {
        type            processor;
        value           uniform 1.39219e-18;
    }
    procBoundary3to2
    {
        type            processor;
        value           uniform 2.64028e-45;
    }
}


// ************************************************************************* //
