/*--------------------------------*- C++ -*----------------------------------*\
  =========                 |
  \\      /  F ield         | OpenFOAM: The Open Source CFD Toolbox
   \\    /   O peration     | Website:  https://openfoam.org
    \\  /    A nd           | Version:  7
     \\/     M anipulation  |
\*---------------------------------------------------------------------------*/
FoamFile
{
    version     2.0;
    format      ascii;
    class       volScalarField;
    location    "0.00031";
    object      Qdot;
}
// * * * * * * * * * * * * * * * * * * * * * * * * * * * * * * * * * * * * * //

dimensions      [1 -1 -3 0 0 0 0];

internalField   nonuniform List<scalar> 
124
(
1.61888e+08
1.58631e+08
1.55427e+08
1.52267e+08
1.49147e+08
1.4606e+08
1.43005e+08
1.39978e+08
1.36977e+08
1.34e+08
1.31044e+08
1.28109e+08
1.25192e+08
1.22294e+08
1.19413e+08
1.16548e+08
1.137e+08
1.10868e+08
1.08052e+08
1.05254e+08
1.02473e+08
9.97094e+07
9.69655e+07
9.42417e+07
9.15395e+07
8.88601e+07
8.62048e+07
8.3575e+07
8.0972e+07
7.83975e+07
7.58529e+07
7.33395e+07
7.08588e+07
6.84121e+07
6.60007e+07
6.36259e+07
6.12889e+07
5.89908e+07
5.67329e+07
5.45161e+07
5.23415e+07
5.02101e+07
4.81229e+07
4.60808e+07
4.40847e+07
4.21355e+07
4.02341e+07
3.83813e+07
3.65778e+07
3.48243e+07
3.31215e+07
3.147e+07
2.98702e+07
2.83225e+07
2.68275e+07
2.53848e+07
2.39947e+07
2.26571e+07
2.13718e+07
2.01384e+07
1.89563e+07
1.78249e+07
1.67435e+07
1.5711e+07
1.47265e+07
1.37888e+07
1.2897e+07
1.20494e+07
1.12448e+07
1.04819e+07
9.75906e+06
9.07497e+06
8.42812e+06
7.81703e+06
7.24027e+06
6.69613e+06
6.18363e+06
5.70113e+06
5.2471e+06
4.82054e+06
4.41995e+06
4.0441e+06
3.69179e+06
3.36201e+06
3.05331e+06
2.7648e+06
2.49545e+06
2.24423e+06
2.01022e+06
1.79247e+06
1.58997e+06
1.40215e+06
1.22796e+06
1.06671e+06
917629
780056
652891
536120
428762
330226
239930
157319
81850.1
13410.2
-49016.5
-106576
-158160
-204638
-246628
-284586
-318837
-349801
-376711
-402415
-424544
-444640
-462825
-479456
-494541
-508990
-522986
-537266
-551336
-563363
)
;

boundaryField
{
    boundary
    {
        type            empty;
    }
    inlet
    {
        type            calculated;
        value           nonuniform 0();
    }
    outlet
    {
        type            calculated;
        value           uniform 0;
    }
    procBoundary0to1
    {
        type            processor;
        value           uniform 0;
    }
}


// ************************************************************************* //
