/*--------------------------------*- C++ -*----------------------------------*\
  =========                 |
  \\      /  F ield         | OpenFOAM: The Open Source CFD Toolbox
   \\    /   O peration     | Website:  https://openfoam.org
    \\  /    A nd           | Version:  7
     \\/     M anipulation  |
\*---------------------------------------------------------------------------*/
FoamFile
{
    version     2.0;
    format      ascii;
    class       volScalarField;
    location    "3e-05";
    object      H;
}
// * * * * * * * * * * * * * * * * * * * * * * * * * * * * * * * * * * * * * //

dimensions      [0 0 0 0 0 0 0];

internalField   nonuniform List<scalar> 
500
(
1.56743e-41
2.36667e-41
2.63034e-41
2.71853e-41
2.74734e-41
2.75624e-41
2.7586e-41
2.75886e-41
2.75842e-41
2.75772e-41
2.75687e-41
2.75593e-41
2.7549e-41
2.75379e-41
2.75259e-41
2.75132e-41
2.74996e-41
2.74853e-41
2.74701e-41
2.74543e-41
2.74377e-41
2.74203e-41
2.74023e-41
2.73836e-41
2.73642e-41
2.73441e-41
2.73235e-41
2.73022e-41
2.72803e-41
2.72578e-41
2.72348e-41
2.72113e-41
2.71873e-41
2.71627e-41
2.71378e-41
2.71123e-41
2.70865e-41
2.70603e-41
2.70337e-41
2.70068e-41
2.69795e-41
2.6952e-41
2.69242e-41
2.68961e-41
2.68679e-41
2.68394e-41
2.68108e-41
2.6782e-41
2.67531e-41
2.67241e-41
2.66951e-41
2.6666e-41
2.66368e-41
2.66077e-41
2.65786e-41
2.65496e-41
2.65206e-41
2.64917e-41
2.6463e-41
2.64344e-41
2.64059e-41
2.63777e-41
2.63496e-41
2.63218e-41
2.62942e-41
2.62669e-41
2.62398e-41
2.62131e-41
2.61867e-41
2.61606e-41
2.61349e-41
2.61095e-41
2.60846e-41
2.606e-41
2.60358e-41
2.60121e-41
2.59889e-41
2.5966e-41
2.59437e-41
2.59218e-41
2.59004e-41
2.58795e-41
2.58591e-41
2.58392e-41
2.58198e-41
2.5801e-41
2.57827e-41
2.57649e-41
2.57477e-41
2.5731e-41
2.57149e-41
2.56993e-41
2.56842e-41
2.56698e-41
2.56558e-41
2.56424e-41
2.56296e-41
2.56173e-41
2.56056e-41
2.55944e-41
2.55837e-41
2.55736e-41
2.5564e-41
2.55549e-41
2.55463e-41
2.55383e-41
2.55307e-41
2.55237e-41
2.55171e-41
2.5511e-41
2.55054e-41
2.55003e-41
2.54956e-41
2.54913e-41
2.54875e-41
2.54841e-41
2.5481e-41
2.54784e-41
2.54762e-41
2.54743e-41
2.54728e-41
2.54714e-41
2.54691e-41
2.54587e-41
2.53957e-41
2.53751e-41
2.54513e-41
2.54675e-41
2.54716e-41
2.54735e-41
2.54751e-41
2.54768e-41
2.54787e-41
2.54808e-41
2.5483e-41
2.54854e-41
2.5488e-41
2.54907e-41
2.54936e-41
2.54965e-41
2.54996e-41
2.55028e-41
2.5506e-41
2.55093e-41
2.55127e-41
2.55161e-41
2.55196e-41
2.5523e-41
2.55265e-41
2.55299e-41
2.55334e-41
2.55368e-41
2.55402e-41
2.55435e-41
2.55468e-41
2.555e-41
2.55532e-41
2.55562e-41
2.55591e-41
2.5562e-41
2.55647e-41
2.55672e-41
2.55697e-41
2.55719e-41
2.5574e-41
2.5576e-41
2.55777e-41
2.55793e-41
2.55806e-41
2.55818e-41
2.55827e-41
2.55833e-41
2.55838e-41
2.55839e-41
2.55839e-41
2.55835e-41
2.55828e-41
2.55819e-41
2.55806e-41
2.55791e-41
2.55772e-41
2.5575e-41
2.55725e-41
2.55696e-41
2.55663e-41
2.55627e-41
2.55587e-41
2.55543e-41
2.55496e-41
2.55444e-41
2.55389e-41
2.55329e-41
2.55266e-41
2.55198e-41
2.55126e-41
2.55049e-41
2.54969e-41
2.54884e-41
2.54795e-41
2.54701e-41
2.54603e-41
2.54501e-41
2.54395e-41
2.54284e-41
2.54169e-41
2.5405e-41
2.53926e-41
2.53798e-41
2.53667e-41
2.53531e-41
2.53391e-41
2.53248e-41
2.53101e-41
2.5295e-41
2.52796e-41
2.52638e-41
2.52477e-41
2.52313e-41
2.52146e-41
2.51976e-41
2.51803e-41
2.51628e-41
2.5145e-41
2.5127e-41
2.51089e-41
2.50905e-41
2.50719e-41
2.50532e-41
2.50344e-41
2.50157e-41
2.49986e-41
2.49908e-41
2.50389e-41
2.54161e-41
2.77303e-41
4.1442e-41
1.22197e-40
5.97177e-40
3.38925e-39
1.9794e-38
1.16138e-37
6.81759e-37
4.00168e-36
2.3487e-35
1.37869e-34
8.09567e-34
4.7565e-33
2.79674e-32
1.64588e-31
9.69438e-31
5.71412e-30
4.02862e-29
2.39333e-28
1.40732e-27
8.2653e-27
4.84954e-26
2.84251e-25
1.66431e-24
9.7335e-24
5.68553e-23
3.31668e-22
1.93209e-21
1.12384e-20
6.52673e-20
3.78415e-19
2.19025e-18
1.26549e-17
7.29917e-17
4.20314e-16
2.41687e-15
1.38828e-14
7.97157e-14
4.6963e-13
3.02052e-12
2.33722e-11
1.90532e-10
1.37306e-09
9.82257e-09
7.02121e-08
4.97485e-07
3.38058e-06
1.99508e-05
8.72079e-05
0.000247633
0.000490803
0.000788211
0.00109845
0.00135766
0.00151916
0.00157848
0.00155843
0.00148725
0.00138791
0.00127607
0.00116146
0.00104972
0.000943973
0.000845758
0.000755705
0.0006739
0.000600118
0.000533956
0.000474918
0.000422463
0.000376041
0.000335107
0.000299136
0.000267632
0.000240128
0.000216191
0.000195421
0.000177454
0.000162412
0.000149712
0.000138683
0.000129134
0.000120892
0.000113799
0.000107711
0.000102503
9.80603e-05
9.42809e-05
9.10754e-05
8.83646e-05
8.60789e-05
8.41575e-05
8.25471e-05
8.12015e-05
8.00807e-05
7.91499e-05
7.83793e-05
7.77433e-05
7.72201e-05
7.67911e-05
7.64403e-05
7.61545e-05
7.59223e-05
7.57343e-05
7.55825e-05
7.54604e-05
7.53624e-05
7.52841e-05
7.52216e-05
7.51719e-05
7.51326e-05
7.51014e-05
7.50769e-05
7.50576e-05
7.50424e-05
7.50306e-05
7.50213e-05
7.5014e-05
7.50084e-05
7.5004e-05
7.50005e-05
7.49978e-05
7.49956e-05
7.49939e-05
7.49925e-05
7.49914e-05
7.49905e-05
7.49897e-05
7.49891e-05
7.49885e-05
7.4988e-05
7.49876e-05
7.49872e-05
7.49868e-05
7.49864e-05
7.4986e-05
7.49856e-05
7.49852e-05
7.49848e-05
7.49845e-05
7.49846e-05
7.49852e-05
7.4985e-05
7.49835e-05
7.49827e-05
7.49824e-05
7.49822e-05
7.49822e-05
7.49822e-05
7.49821e-05
7.49821e-05
7.49821e-05
7.4982e-05
7.49819e-05
7.49817e-05
7.49816e-05
7.49815e-05
7.49813e-05
7.49811e-05
7.4981e-05
7.49808e-05
7.49806e-05
7.49804e-05
7.49802e-05
7.498e-05
7.49798e-05
7.49796e-05
7.49794e-05
7.49791e-05
7.49789e-05
7.49787e-05
7.49785e-05
7.49783e-05
7.49781e-05
7.49779e-05
7.49777e-05
7.49775e-05
7.49773e-05
7.49771e-05
7.49769e-05
7.49766e-05
7.49764e-05
7.49762e-05
7.4976e-05
7.49758e-05
7.49756e-05
7.49754e-05
7.49752e-05
7.4975e-05
7.49748e-05
7.49746e-05
7.49744e-05
7.49742e-05
7.4974e-05
7.49738e-05
7.49736e-05
7.49734e-05
7.49732e-05
7.4973e-05
7.49728e-05
7.49726e-05
7.49724e-05
7.49723e-05
7.49721e-05
7.49719e-05
7.49717e-05
7.49716e-05
7.49714e-05
7.49712e-05
7.49711e-05
7.49709e-05
7.49708e-05
7.49706e-05
7.49705e-05
7.49703e-05
7.49702e-05
7.49701e-05
7.49699e-05
7.49698e-05
7.49697e-05
7.49696e-05
7.49695e-05
7.49694e-05
7.49693e-05
7.49692e-05
7.49691e-05
7.4969e-05
7.49689e-05
7.49688e-05
7.49687e-05
7.49687e-05
7.49686e-05
7.49686e-05
7.49685e-05
7.49685e-05
7.49684e-05
7.49684e-05
7.49684e-05
7.49683e-05
7.49683e-05
7.49683e-05
7.49683e-05
7.49683e-05
7.49683e-05
7.49683e-05
7.49683e-05
7.49683e-05
7.49684e-05
7.49684e-05
7.49684e-05
7.49685e-05
7.49685e-05
7.49686e-05
7.49686e-05
7.49687e-05
7.49688e-05
7.49688e-05
7.49689e-05
7.4969e-05
7.49691e-05
7.49692e-05
7.49692e-05
7.49693e-05
7.49694e-05
7.49694e-05
7.49695e-05
)
;

boundaryField
{
    boundary
    {
        type            empty;
    }
    inlet
    {
        type            fixedValue;
        value           uniform 0;
    }
    outlet
    {
        type            zeroGradient;
    }
}


// ************************************************************************* //
