/*--------------------------------*- C++ -*----------------------------------*\
  =========                 |
  \\      /  F ield         | OpenFOAM: The Open Source CFD Toolbox
   \\    /   O peration     | Website:  https://openfoam.org
    \\  /    A nd           | Version:  7
     \\/     M anipulation  |
\*---------------------------------------------------------------------------*/
FoamFile
{
    version     2.0;
    format      ascii;
    class       volScalarField;
    location    "3e-05";
    object      H2;
}
// * * * * * * * * * * * * * * * * * * * * * * * * * * * * * * * * * * * * * //

dimensions      [0 0 0 0 0 0 0];

internalField   nonuniform List<scalar> 
500
(
0.0285116
0.0285116
0.0285116
0.0285116
0.0285116
0.0285116
0.0285116
0.0285116
0.0285116
0.0285116
0.0285116
0.0285116
0.0285116
0.0285116
0.0285116
0.0285116
0.0285116
0.0285116
0.0285116
0.0285116
0.0285116
0.0285116
0.0285116
0.0285116
0.0285116
0.0285116
0.0285116
0.0285116
0.0285116
0.0285116
0.0285116
0.0285116
0.0285116
0.0285116
0.0285116
0.0285116
0.0285116
0.0285116
0.0285116
0.0285116
0.0285116
0.0285116
0.0285116
0.0285116
0.0285116
0.0285116
0.0285116
0.0285116
0.0285116
0.0285116
0.0285116
0.0285116
0.0285116
0.0285116
0.0285116
0.0285116
0.0285116
0.0285116
0.0285116
0.0285116
0.0285116
0.0285116
0.0285116
0.0285116
0.0285116
0.0285116
0.0285116
0.0285116
0.0285116
0.0285116
0.0285116
0.0285116
0.0285116
0.0285116
0.0285116
0.0285116
0.0285116
0.0285116
0.0285116
0.0285116
0.0285116
0.0285116
0.0285116
0.0285116
0.0285116
0.0285116
0.0285116
0.0285116
0.0285116
0.0285116
0.0285116
0.0285116
0.0285116
0.0285116
0.0285116
0.0285116
0.0285116
0.0285116
0.0285116
0.0285116
0.0285116
0.0285116
0.0285116
0.0285116
0.0285116
0.0285116
0.0285116
0.0285116
0.0285116
0.0285116
0.0285116
0.0285116
0.0285116
0.0285116
0.0285116
0.0285116
0.0285116
0.0285116
0.0285116
0.0285116
0.0285116
0.0285116
0.0285116
0.0285116
0.0285116
0.0285116
0.0285116
0.0285116
0.0285116
0.0285116
0.0285116
0.0285116
0.0285116
0.0285116
0.0285116
0.0285116
0.0285116
0.0285116
0.0285116
0.0285116
0.0285116
0.0285116
0.0285116
0.0285116
0.0285116
0.0285116
0.0285116
0.0285116
0.0285116
0.0285116
0.0285116
0.0285116
0.0285116
0.0285116
0.0285116
0.0285116
0.0285116
0.0285116
0.0285116
0.0285116
0.0285116
0.0285116
0.0285116
0.0285116
0.0285116
0.0285116
0.0285116
0.0285116
0.0285116
0.0285116
0.0285116
0.0285116
0.0285116
0.0285116
0.0285116
0.0285116
0.0285116
0.0285116
0.0285116
0.0285116
0.0285116
0.0285116
0.0285116
0.0285116
0.0285116
0.0285116
0.0285116
0.0285116
0.0285116
0.0285116
0.0285116
0.0285116
0.0285116
0.0285116
0.0285116
0.0285116
0.0285116
0.0285116
0.0285116
0.0285116
0.0285116
0.0285116
0.0285116
0.0285116
0.0285116
0.0285116
0.0285116
0.0285116
0.0285116
0.0285116
0.0285116
0.0285116
0.0285116
0.0285116
0.0285116
0.0285116
0.0285116
0.0285116
0.0285116
0.0285116
0.0285116
0.0285116
0.0285116
0.0285116
0.0285116
0.0285116
0.0285116
0.0285116
0.0285116
0.0285116
0.0285116
0.0285116
0.0285116
0.0285116
0.0285116
0.0285116
0.0285116
0.0285116
0.0285116
0.0285116
0.0285116
0.0285116
0.0285116
0.0285116
0.0285116
0.0285116
0.0285116
0.0285116
0.0285116
0.0285116
0.0285116
0.0285116
0.0285116
0.0285116
0.0285116
0.0285116
0.0285116
0.0285116
0.0285116
0.0285116
0.0285116
0.0285116
0.0285116
0.0285116
0.0285116
0.0285116
0.0285116
0.0285116
0.0285116
0.0285116
0.0285116
0.0285116
0.0285115
0.0285114
0.0285109
0.0285089
0.0285014
0.0284747
0.0283874
0.028128
0.0274532
0.0260519
0.0238827
0.0212141
0.018337
0.015363
0.0124792
0.00999887
0.00813254
0.00686932
0.0060689
0.00557396
0.00526042
0.00504461
0.00487496
0.00472185
0.00456948
0.00441046
0.0042423
0.00406533
0.00388136
0.00369293
0.0035028
0.00331372
0.00312819
0.00294841
0.00277622
0.00261306
0.00246001
0.00231776
0.00218671
0.00206698
0.00196164
0.0018687
0.00178476
0.00170941
0.0016422
0.0015826
0.00153004
0.00148396
0.00144377
0.0014089
0.00137881
0.00135297
0.00133089
0.00131211
0.00129622
0.00128282
0.00127159
0.0012622
0.0012544
0.00124794
0.00124261
0.00123824
0.00123466
0.00123174
0.00122938
0.00122747
0.00122593
0.00122469
0.0012237
0.00122292
0.00122229
0.0012218
0.00122141
0.00122111
0.00122087
0.00122068
0.00122054
0.00122043
0.00122034
0.00122028
0.00122023
0.00122019
0.00122016
0.00122014
0.00122012
0.00122011
0.0012201
0.00122009
0.00122009
0.00122008
0.00122008
0.00122008
0.00122008
0.00122008
0.00122008
0.00122008
0.00122008
0.00122007
0.00122007
0.00122007
0.00122007
0.00122007
0.00122007
0.00122006
0.00122006
0.00122007
0.00122007
0.00122007
0.00122007
0.00122007
0.00122008
0.00122008
0.00122008
0.00122008
0.00122008
0.00122009
0.00122009
0.00122009
0.00122009
0.00122009
0.00122009
0.00122009
0.00122009
0.00122009
0.0012201
0.0012201
0.0012201
0.0012201
0.0012201
0.0012201
0.0012201
0.0012201
0.0012201
0.0012201
0.0012201
0.0012201
0.0012201
0.0012201
0.0012201
0.00122011
0.00122011
0.00122011
0.00122011
0.00122011
0.00122011
0.00122011
0.00122011
0.00122011
0.00122011
0.00122011
0.00122011
0.00122011
0.00122011
0.00122011
0.00122011
0.00122011
0.00122011
0.00122011
0.00122011
0.00122011
0.00122011
0.00122011
0.00122011
0.00122011
0.00122011
0.00122011
0.00122011
0.00122011
0.00122011
0.00122012
0.00122012
0.00122012
0.00122012
0.00122012
0.00122012
0.00122012
0.00122012
0.00122012
0.00122012
0.00122012
0.00122012
0.00122012
0.00122012
0.00122012
0.00122012
0.00122012
0.00122012
0.00122012
0.00122012
0.00122012
0.00122012
0.00122012
0.00122012
0.00122012
0.00122012
0.00122012
0.00122012
0.00122012
0.00122012
0.00122012
0.00122012
0.00122012
0.00122012
0.00122012
0.00122011
0.00122011
0.00122011
0.00122011
0.00122011
0.00122011
0.00122011
0.00122011
0.00122011
0.00122011
0.00122011
0.00122011
0.00122011
0.00122011
0.00122011
0.00122011
0.00122011
0.00122011
0.00122011
0.00122011
0.00122011
0.00122011
0.00122011
0.00122011
)
;

boundaryField
{
    boundary
    {
        type            empty;
    }
    inlet
    {
        type            fixedValue;
        value           uniform 0.0285116;
    }
    outlet
    {
        type            zeroGradient;
    }
}


// ************************************************************************* //
