/*--------------------------------*- C++ -*----------------------------------*\
  =========                 |
  \\      /  F ield         | OpenFOAM: The Open Source CFD Toolbox
   \\    /   O peration     | Website:  https://openfoam.org
    \\  /    A nd           | Version:  7
     \\/     M anipulation  |
\*---------------------------------------------------------------------------*/
FoamFile
{
    version     2.0;
    format      ascii;
    class       volScalarField;
    location    "3e-05";
    object      H2O;
}
// * * * * * * * * * * * * * * * * * * * * * * * * * * * * * * * * * * * * * //

dimensions      [0 0 0 0 0 0 0];

internalField   nonuniform List<scalar> 
500
(
5.89294e-48
1.36429e-47
1.9569e-47
2.33195e-47
2.538e-47
2.63897e-47
2.68394e-47
2.7024e-47
2.70949e-47
2.71209e-47
2.71303e-47
2.71341e-47
2.71361e-47
2.71376e-47
2.71389e-47
2.71404e-47
2.71419e-47
2.71435e-47
2.71452e-47
2.7147e-47
2.71489e-47
2.71508e-47
2.71529e-47
2.71551e-47
2.71574e-47
2.71597e-47
2.71622e-47
2.71648e-47
2.71675e-47
2.71702e-47
2.71731e-47
2.71761e-47
2.71791e-47
2.71823e-47
2.71856e-47
2.71889e-47
2.71924e-47
2.7196e-47
2.71996e-47
2.72034e-47
2.72073e-47
2.72113e-47
2.72154e-47
2.72196e-47
2.72239e-47
2.72283e-47
2.72328e-47
2.72374e-47
2.72421e-47
2.72469e-47
2.72519e-47
2.72569e-47
2.7262e-47
2.72673e-47
2.72727e-47
2.72782e-47
2.72837e-47
2.72894e-47
2.72952e-47
2.73012e-47
2.73072e-47
2.73133e-47
2.73196e-47
2.7326e-47
2.73325e-47
2.7339e-47
2.73458e-47
2.73526e-47
2.73595e-47
2.73666e-47
2.73738e-47
2.7381e-47
2.73884e-47
2.7396e-47
2.74036e-47
2.74114e-47
2.74192e-47
2.74272e-47
2.74354e-47
2.74436e-47
2.74519e-47
2.74604e-47
2.7469e-47
2.74777e-47
2.74865e-47
2.74955e-47
2.75046e-47
2.75138e-47
2.75231e-47
2.75325e-47
2.75421e-47
2.75518e-47
2.75616e-47
2.75715e-47
2.75815e-47
2.75917e-47
2.7602e-47
2.76124e-47
2.7623e-47
2.76336e-47
2.76444e-47
2.76553e-47
2.76663e-47
2.76775e-47
2.76887e-47
2.77001e-47
2.77116e-47
2.77233e-47
2.7735e-47
2.77469e-47
2.77589e-47
2.7771e-47
2.77832e-47
2.77955e-47
2.7808e-47
2.78205e-47
2.78332e-47
2.7846e-47
2.78589e-47
2.78716e-47
2.78835e-47
2.78898e-47
2.78672e-47
2.77062e-47
2.6954e-47
2.60777e-47
2.69452e-47
2.74576e-47
2.77416e-47
2.78945e-47
2.7975e-47
2.80182e-47
2.8044e-47
2.80626e-47
2.80785e-47
2.80935e-47
2.81082e-47
2.81229e-47
2.81376e-47
2.81524e-47
2.81672e-47
2.81821e-47
2.8197e-47
2.8212e-47
2.8227e-47
2.8242e-47
2.82571e-47
2.82721e-47
2.82872e-47
2.83023e-47
2.83174e-47
2.83325e-47
2.83476e-47
2.83626e-47
2.83776e-47
2.83926e-47
2.84076e-47
2.84225e-47
2.84373e-47
2.84521e-47
2.84668e-47
2.84814e-47
2.84959e-47
2.85103e-47
2.85246e-47
2.85388e-47
2.85528e-47
2.85667e-47
2.85804e-47
2.8594e-47
2.86074e-47
2.86206e-47
2.86336e-47
2.86464e-47
2.8659e-47
2.86713e-47
2.86834e-47
2.86952e-47
2.87068e-47
2.8718e-47
2.8729e-47
2.87397e-47
2.875e-47
2.87601e-47
2.87697e-47
2.8779e-47
2.8788e-47
2.87965e-47
2.88047e-47
2.88125e-47
2.88198e-47
2.88267e-47
2.88332e-47
2.88392e-47
2.88448e-47
2.88499e-47
2.88545e-47
2.88586e-47
2.88622e-47
2.88653e-47
2.88679e-47
2.887e-47
2.88715e-47
2.88725e-47
2.8873e-47
2.88729e-47
2.88722e-47
2.8871e-47
2.88692e-47
2.88669e-47
2.88639e-47
2.88604e-47
2.88564e-47
2.88517e-47
2.88465e-47
2.88407e-47
2.88343e-47
2.88274e-47
2.88198e-47
2.88117e-47
2.88031e-47
2.87938e-47
2.8784e-47
2.87736e-47
2.87627e-47
2.87512e-47
2.87392e-47
2.87266e-47
2.87135e-47
2.87e-47
2.86872e-47
2.86813e-47
2.87222e-47
2.90637e-47
3.13191e-47
4.57441e-47
1.37496e-46
7.20193e-46
4.41656e-45
2.78333e-44
1.75922e-43
1.11017e-42
6.98337e-42
4.37222e-41
2.72148e-40
1.68642e-39
1.05037e-38
6.7711e-38
4.80496e-37
4.05818e-36
4.1913e-35
1.06555e-33
1.39579e-32
1.8433e-31
2.44566e-30
3.2469e-29
4.30636e-28
5.70105e-27
7.52747e-26
9.90202e-25
1.29583e-23
1.68397e-22
2.1685e-21
2.76058e-20
3.46557e-19
4.27931e-18
5.1841e-17
6.14544e-16
7.11026e-15
8.00807e-14
8.75576e-13
9.26661e-12
9.45931e-11
9.27985e-10
8.71612e-09
7.80141e-08
6.61635e-07
5.27953e-06
3.92523e-05
0.00026682
0.00157085
0.0069628
0.020049
0.0397263
0.0632043
0.0903951
0.119841
0.147724
0.170537
0.187269
0.198788
0.206536
0.211804
0.215531
0.218337
0.220603
0.222554
0.224312
0.22594
0.227466
0.228898
0.230235
0.231472
0.232607
0.233635
0.234558
0.235378
0.2361
0.236729
0.237275
0.237743
0.238144
0.238474
0.238749
0.238984
0.239184
0.239353
0.239495
0.239615
0.239715
0.239799
0.239868
0.239926
0.239974
0.240014
0.240047
0.240074
0.240096
0.240114
0.240128
0.24014
0.24015
0.240158
0.240165
0.24017
0.240174
0.240177
0.24018
0.240182
0.240184
0.240185
0.240186
0.240187
0.240188
0.240188
0.240189
0.240189
0.240189
0.240189
0.240189
0.240189
0.24019
0.24019
0.24019
0.24019
0.24019
0.24019
0.24019
0.24019
0.24019
0.24019
0.24019
0.24019
0.24019
0.24019
0.240189
0.240189
0.240189
0.240189
0.240189
0.240189
0.240189
0.240189
0.240189
0.24019
0.24019
0.24019
0.24019
0.24019
0.24019
0.240189
0.240189
0.240189
0.240189
0.240189
0.240189
0.240189
0.240189
0.240189
0.240189
0.240189
0.240189
0.240189
0.240189
0.240189
0.240189
0.240189
0.240189
0.240189
0.240189
0.240189
0.240189
0.240189
0.240189
0.240189
0.240189
0.240189
0.240189
0.240189
0.240189
0.240189
0.240189
0.240189
0.240189
0.240189
0.240189
0.240189
0.240189
0.240189
0.240189
0.240189
0.240189
0.240189
0.240189
0.240189
0.240189
0.240189
0.240189
0.240189
0.240189
0.240189
0.240189
0.240189
0.240189
0.240189
0.240188
0.240188
0.240188
0.240188
0.240188
0.240188
0.240188
0.240188
0.240188
0.240188
0.240188
0.240188
0.240188
0.240188
0.240188
0.240188
0.240188
0.240188
0.240188
0.240188
0.240188
0.240188
0.240188
0.240188
0.240188
0.240188
0.240188
0.240188
0.240188
0.240188
0.240188
0.240188
0.240188
0.240188
0.240188
0.240188
0.240188
0.240188
0.240188
0.240188
0.240188
0.240188
0.240188
0.240188
0.240188
0.240188
0.240188
0.240188
0.240188
0.240188
0.240188
0.240188
0.240188
0.240189
0.240189
0.240189
0.240189
0.240189
0.240189
0.240189
0.240189
0.240189
0.240189
0.240189
0.240189
)
;

boundaryField
{
    boundary
    {
        type            empty;
    }
    inlet
    {
        type            fixedValue;
        value           uniform 0;
    }
    outlet
    {
        type            zeroGradient;
    }
}


// ************************************************************************* //
