/*--------------------------------*- C++ -*----------------------------------*\
  =========                 |
  \\      /  F ield         | OpenFOAM: The Open Source CFD Toolbox
   \\    /   O peration     | Website:  https://openfoam.org
    \\  /    A nd           | Version:  7
     \\/     M anipulation  |
\*---------------------------------------------------------------------------*/
FoamFile
{
    version     2.0;
    format      ascii;
    class       volScalarField;
    location    "3e-05";
    object      H2O2;
}
// * * * * * * * * * * * * * * * * * * * * * * * * * * * * * * * * * * * * * //

dimensions      [0 0 0 0 0 0 0];

internalField   nonuniform List<scalar> 
500
(
1.16814e-52
2.77015e-52
4.02125e-52
4.81218e-52
5.24033e-52
5.44524e-52
5.53381e-52
5.56893e-52
5.58189e-52
5.58641e-52
5.58796e-52
5.58853e-52
5.58879e-52
5.58898e-52
5.58914e-52
5.58932e-52
5.5895e-52
5.58969e-52
5.5899e-52
5.59011e-52
5.59034e-52
5.59058e-52
5.59084e-52
5.5911e-52
5.59138e-52
5.59167e-52
5.59198e-52
5.5923e-52
5.59263e-52
5.59298e-52
5.59334e-52
5.59371e-52
5.5941e-52
5.5945e-52
5.59492e-52
5.59536e-52
5.5958e-52
5.59627e-52
5.59675e-52
5.59725e-52
5.59776e-52
5.59829e-52
5.59883e-52
5.5994e-52
5.59998e-52
5.60058e-52
5.6012e-52
5.60183e-52
5.60249e-52
5.60316e-52
5.60385e-52
5.60456e-52
5.6053e-52
5.60605e-52
5.60682e-52
5.60761e-52
5.60843e-52
5.60926e-52
5.61012e-52
5.611e-52
5.6119e-52
5.61283e-52
5.61377e-52
5.61475e-52
5.61574e-52
5.61676e-52
5.6178e-52
5.61887e-52
5.61996e-52
5.62108e-52
5.62222e-52
5.62339e-52
5.62458e-52
5.6258e-52
5.62705e-52
5.62832e-52
5.62962e-52
5.63095e-52
5.63231e-52
5.63369e-52
5.6351e-52
5.63654e-52
5.63801e-52
5.63951e-52
5.64104e-52
5.64259e-52
5.64418e-52
5.6458e-52
5.64744e-52
5.64912e-52
5.65082e-52
5.65256e-52
5.65433e-52
5.65612e-52
5.65795e-52
5.65981e-52
5.6617e-52
5.66363e-52
5.66558e-52
5.66756e-52
5.66958e-52
5.67163e-52
5.67371e-52
5.67582e-52
5.67796e-52
5.68013e-52
5.68234e-52
5.68457e-52
5.68684e-52
5.68914e-52
5.69147e-52
5.69383e-52
5.69622e-52
5.69864e-52
5.70109e-52
5.70357e-52
5.70608e-52
5.70863e-52
5.71119e-52
5.71378e-52
5.7163e-52
5.71823e-52
5.7162e-52
5.69029e-52
5.53989e-52
5.34453e-52
5.5497e-52
5.65363e-52
5.70226e-52
5.72581e-52
5.73795e-52
5.74478e-52
5.74925e-52
5.75276e-52
5.75592e-52
5.75897e-52
5.76201e-52
5.76505e-52
5.76811e-52
5.77118e-52
5.77426e-52
5.77736e-52
5.78047e-52
5.7836e-52
5.78673e-52
5.78987e-52
5.79302e-52
5.79617e-52
5.79933e-52
5.80249e-52
5.80566e-52
5.80882e-52
5.81198e-52
5.81514e-52
5.8183e-52
5.82144e-52
5.82458e-52
5.82771e-52
5.83082e-52
5.83392e-52
5.83701e-52
5.84007e-52
5.84311e-52
5.84613e-52
5.84912e-52
5.85209e-52
5.85502e-52
5.85792e-52
5.86079e-52
5.86361e-52
5.8664e-52
5.86914e-52
5.87184e-52
5.87449e-52
5.87709e-52
5.87963e-52
5.88212e-52
5.88455e-52
5.88691e-52
5.88921e-52
5.89144e-52
5.8936e-52
5.89569e-52
5.8977e-52
5.89963e-52
5.90148e-52
5.90324e-52
5.90491e-52
5.9065e-52
5.90799e-52
5.90939e-52
5.91069e-52
5.91189e-52
5.91299e-52
5.91398e-52
5.91486e-52
5.91563e-52
5.9163e-52
5.91685e-52
5.91728e-52
5.9176e-52
5.9178e-52
5.91788e-52
5.91783e-52
5.91767e-52
5.91738e-52
5.91697e-52
5.91643e-52
5.91577e-52
5.91498e-52
5.91407e-52
5.91302e-52
5.91186e-52
5.91056e-52
5.90914e-52
5.9076e-52
5.90593e-52
5.90413e-52
5.90222e-52
5.90018e-52
5.89801e-52
5.89573e-52
5.89333e-52
5.89081e-52
5.88818e-52
5.88543e-52
5.88256e-52
5.87958e-52
5.87649e-52
5.8733e-52
5.87005e-52
5.86704e-52
5.86611e-52
5.87881e-52
5.97823e-52
6.62591e-52
1.07379e-51
3.67356e-51
2.00943e-50
1.23753e-49
7.7782e-49
4.9039e-48
3.09319e-47
1.95081e-46
1.2288e-45
7.71697e-45
4.8384e-44
3.08944e-43
2.17356e-42
1.99283e-41
2.64241e-40
1.0662e-38
2.00976e-37
3.79907e-36
7.15167e-35
1.33644e-33
2.47636e-32
4.54701e-31
8.26871e-30
1.4882e-28
2.64879e-27
4.65785e-26
8.08327e-25
1.38258e-23
2.32732e-22
3.84909e-21
6.24297e-20
9.90963e-19
1.53589e-17
2.3184e-16
3.39866e-15
4.82311e-14
6.60196e-13
8.68036e-12
1.09096e-10
1.30291e-09
1.46701e-08
1.53702e-07
1.45431e-06
1.14115e-05
5.82104e-05
0.000122572
0.000130758
8.20497e-05
3.55174e-05
1.39611e-05
6.46511e-06
4.35384e-06
4.08176e-06
4.32903e-06
4.56123e-06
4.57349e-06
4.33514e-06
3.90837e-06
3.38753e-06
2.85641e-06
2.36931e-06
1.95131e-06
1.60719e-06
1.3308e-06
1.11168e-06
9.38774e-07
8.0221e-07
6.9382e-07
6.07152e-07
5.37238e-07
4.80308e-07
4.33523e-07
3.94746e-07
3.6237e-07
3.3518e-07
3.12246e-07
2.93428e-07
2.77686e-07
2.64173e-07
2.52582e-07
2.42654e-07
2.34167e-07
2.26931e-07
2.20779e-07
2.15565e-07
2.11161e-07
2.07454e-07
2.04344e-07
2.01743e-07
1.99577e-07
1.97777e-07
1.96287e-07
1.95057e-07
1.94045e-07
1.93216e-07
1.92537e-07
1.91983e-07
1.91533e-07
1.91168e-07
1.90872e-07
1.90633e-07
1.9044e-07
1.90285e-07
1.9016e-07
1.90059e-07
1.89979e-07
1.89914e-07
1.89861e-07
1.89819e-07
1.89785e-07
1.89757e-07
1.89734e-07
1.89715e-07
1.89699e-07
1.89685e-07
1.89674e-07
1.89663e-07
1.89655e-07
1.89647e-07
1.89639e-07
1.89633e-07
1.89626e-07
1.8962e-07
1.89615e-07
1.8961e-07
1.89604e-07
1.89599e-07
1.89595e-07
1.8959e-07
1.89585e-07
1.8958e-07
1.89576e-07
1.89571e-07
1.89566e-07
1.89562e-07
1.89557e-07
1.89551e-07
1.89545e-07
1.89538e-07
1.89532e-07
1.89526e-07
1.89521e-07
1.8952e-07
1.89518e-07
1.89516e-07
1.89514e-07
1.89512e-07
1.89509e-07
1.89505e-07
1.89502e-07
1.89498e-07
1.89495e-07
1.89491e-07
1.89487e-07
1.89483e-07
1.89479e-07
1.89475e-07
1.89471e-07
1.89468e-07
1.89464e-07
1.8946e-07
1.89456e-07
1.89452e-07
1.89449e-07
1.89445e-07
1.89441e-07
1.89437e-07
1.89433e-07
1.8943e-07
1.89426e-07
1.89422e-07
1.89418e-07
1.89415e-07
1.89411e-07
1.89407e-07
1.89403e-07
1.894e-07
1.89396e-07
1.89392e-07
1.89388e-07
1.89385e-07
1.89381e-07
1.89377e-07
1.89374e-07
1.8937e-07
1.89366e-07
1.89363e-07
1.89359e-07
1.89355e-07
1.89352e-07
1.89348e-07
1.89345e-07
1.89341e-07
1.89338e-07
1.89334e-07
1.89331e-07
1.89327e-07
1.89324e-07
1.89321e-07
1.89317e-07
1.89314e-07
1.89311e-07
1.89308e-07
1.89304e-07
1.89301e-07
1.89298e-07
1.89295e-07
1.89292e-07
1.89289e-07
1.89286e-07
1.89283e-07
1.89281e-07
1.89278e-07
1.89275e-07
1.89273e-07
1.8927e-07
1.89267e-07
1.89265e-07
1.89262e-07
1.8926e-07
1.89258e-07
1.89255e-07
1.89253e-07
1.89251e-07
1.89249e-07
1.89247e-07
1.89245e-07
1.89243e-07
1.89241e-07
1.8924e-07
1.89238e-07
1.89236e-07
1.89235e-07
1.89233e-07
1.89232e-07
1.8923e-07
1.89229e-07
1.89228e-07
1.89227e-07
1.89226e-07
1.89225e-07
1.89224e-07
1.89223e-07
1.89222e-07
1.89221e-07
1.8922e-07
1.8922e-07
1.89219e-07
1.89219e-07
1.89218e-07
1.89218e-07
1.89217e-07
1.89217e-07
1.89217e-07
1.89217e-07
1.89217e-07
1.89217e-07
1.89217e-07
1.89217e-07
1.89217e-07
1.89216e-07
1.89216e-07
1.89216e-07
1.89215e-07
)
;

boundaryField
{
    boundary
    {
        type            empty;
    }
    inlet
    {
        type            fixedValue;
        value           uniform 0;
    }
    outlet
    {
        type            zeroGradient;
    }
}


// ************************************************************************* //
