/*--------------------------------*- C++ -*----------------------------------*\
  =========                 |
  \\      /  F ield         | OpenFOAM: The Open Source CFD Toolbox
   \\    /   O peration     | Website:  https://openfoam.org
    \\  /    A nd           | Version:  7
     \\/     M anipulation  |
\*---------------------------------------------------------------------------*/
FoamFile
{
    version     2.0;
    format      ascii;
    class       volScalarField;
    location    "3e-05";
    object      HO2;
}
// * * * * * * * * * * * * * * * * * * * * * * * * * * * * * * * * * * * * * //

dimensions      [0 0 0 0 0 0 0];

internalField   nonuniform List<scalar> 
500
(
4.94951e-38
9.75323e-38
1.28711e-37
1.46326e-37
1.55183e-37
1.59209e-37
1.60885e-37
1.61531e-37
1.61763e-37
1.61842e-37
1.61868e-37
1.61877e-37
1.6188e-37
1.61881e-37
1.61883e-37
1.61884e-37
1.61885e-37
1.61887e-37
1.61888e-37
1.6189e-37
1.61891e-37
1.61893e-37
1.61895e-37
1.61897e-37
1.61899e-37
1.61901e-37
1.61904e-37
1.61906e-37
1.61909e-37
1.61912e-37
1.61915e-37
1.61918e-37
1.61921e-37
1.61925e-37
1.61928e-37
1.61932e-37
1.61936e-37
1.61941e-37
1.61945e-37
1.6195e-37
1.61955e-37
1.6196e-37
1.61966e-37
1.61972e-37
1.61978e-37
1.61984e-37
1.6199e-37
1.61997e-37
1.62005e-37
1.62012e-37
1.6202e-37
1.62028e-37
1.62037e-37
1.62045e-37
1.62055e-37
1.62064e-37
1.62074e-37
1.62084e-37
1.62095e-37
1.62106e-37
1.62118e-37
1.6213e-37
1.62142e-37
1.62155e-37
1.62169e-37
1.62182e-37
1.62197e-37
1.62211e-37
1.62227e-37
1.62242e-37
1.62258e-37
1.62275e-37
1.62292e-37
1.6231e-37
1.62329e-37
1.62347e-37
1.62367e-37
1.62387e-37
1.62407e-37
1.62428e-37
1.6245e-37
1.62472e-37
1.62495e-37
1.62519e-37
1.62543e-37
1.62568e-37
1.62593e-37
1.62619e-37
1.62646e-37
1.62673e-37
1.62701e-37
1.62729e-37
1.62758e-37
1.62788e-37
1.62819e-37
1.6285e-37
1.62882e-37
1.62914e-37
1.62947e-37
1.62981e-37
1.63016e-37
1.63051e-37
1.63087e-37
1.63123e-37
1.6316e-37
1.63198e-37
1.63237e-37
1.63276e-37
1.63316e-37
1.63356e-37
1.63398e-37
1.63439e-37
1.63482e-37
1.63525e-37
1.63569e-37
1.63613e-37
1.63659e-37
1.63704e-37
1.63751e-37
1.63797e-37
1.63843e-37
1.63878e-37
1.63843e-37
1.63389e-37
1.60797e-37
1.57495e-37
1.60956e-37
1.62772e-37
1.63633e-37
1.64044e-37
1.64252e-37
1.64369e-37
1.64448e-37
1.64511e-37
1.64569e-37
1.64625e-37
1.64681e-37
1.64737e-37
1.64794e-37
1.6485e-37
1.64907e-37
1.64965e-37
1.65022e-37
1.6508e-37
1.65138e-37
1.65196e-37
1.65254e-37
1.65312e-37
1.65371e-37
1.65429e-37
1.65487e-37
1.65545e-37
1.65604e-37
1.65662e-37
1.6572e-37
1.65777e-37
1.65835e-37
1.65892e-37
1.65949e-37
1.66005e-37
1.66061e-37
1.66117e-37
1.66172e-37
1.66227e-37
1.6628e-37
1.66334e-37
1.66386e-37
1.66438e-37
1.66489e-37
1.66539e-37
1.66588e-37
1.66637e-37
1.66684e-37
1.6673e-37
1.66775e-37
1.66819e-37
1.66861e-37
1.66902e-37
1.66942e-37
1.6698e-37
1.67017e-37
1.67052e-37
1.67086e-37
1.67118e-37
1.67148e-37
1.67177e-37
1.67204e-37
1.67229e-37
1.67251e-37
1.67272e-37
1.67291e-37
1.67308e-37
1.67323e-37
1.67335e-37
1.67345e-37
1.67353e-37
1.67359e-37
1.67362e-37
1.67363e-37
1.67361e-37
1.67357e-37
1.67351e-37
1.67342e-37
1.67331e-37
1.67317e-37
1.673e-37
1.67281e-37
1.6726e-37
1.67235e-37
1.67209e-37
1.67179e-37
1.67147e-37
1.67113e-37
1.67076e-37
1.67036e-37
1.66994e-37
1.6695e-37
1.66903e-37
1.66854e-37
1.66802e-37
1.66748e-37
1.66691e-37
1.66632e-37
1.66571e-37
1.66508e-37
1.66443e-37
1.66375e-37
1.66305e-37
1.66233e-37
1.6616e-37
1.66085e-37
1.6602e-37
1.66015e-37
1.66397e-37
1.69174e-37
1.86751e-37
2.95856e-37
9.71408e-37
5.15441e-36
3.10619e-35
1.91549e-34
1.18586e-33
7.3465e-33
4.54973e-32
2.81181e-31
1.72753e-30
1.04811e-29
6.22293e-29
3.58265e-28
1.99047e-27
1.07229e-26
6.49119e-26
3.52971e-25
1.89939e-24
1.02306e-23
5.52105e-23
2.9856e-22
1.61763e-21
8.77967e-21
4.77273e-20
2.59886e-19
1.41793e-18
7.75479e-18
4.25471e-17
2.34536e-16
1.30255e-15
7.32165e-15
4.19281e-14
2.46646e-13
1.50359e-12
9.5677e-12
6.37439e-11
4.40921e-10
3.09527e-09
2.1297e-08
1.40515e-07
8.95487e-07
5.33825e-06
2.83504e-05
0.000122597
0.000360139
0.000532286
0.000485206
0.000380583
0.000267604
0.00018224
0.000121582
7.929e-05
5.08302e-05
3.25365e-05
2.1161e-05
1.41797e-05
9.87193e-06
7.16173e-06
5.40914e-06
4.24253e-06
3.44639e-06
2.89336e-06
2.50548e-06
2.23277e-06
2.04166e-06
1.90875e-06
1.81729e-06
1.75524e-06
1.71391e-06
1.68711e-06
1.67049e-06
1.66097e-06
1.65642e-06
1.65532e-06
1.65659e-06
1.65944e-06
1.66318e-06
1.66736e-06
1.67181e-06
1.67631e-06
1.68071e-06
1.68491e-06
1.68882e-06
1.69241e-06
1.69564e-06
1.69852e-06
1.70106e-06
1.70327e-06
1.70519e-06
1.70683e-06
1.70822e-06
1.70941e-06
1.71041e-06
1.71125e-06
1.71195e-06
1.71254e-06
1.71303e-06
1.71343e-06
1.71377e-06
1.71406e-06
1.7143e-06
1.7145e-06
1.71467e-06
1.71481e-06
1.71493e-06
1.71504e-06
1.71514e-06
1.71522e-06
1.71529e-06
1.71536e-06
1.71542e-06
1.71548e-06
1.71553e-06
1.71558e-06
1.71563e-06
1.71567e-06
1.71571e-06
1.71575e-06
1.71579e-06
1.71583e-06
1.71587e-06
1.71591e-06
1.71595e-06
1.71598e-06
1.71602e-06
1.71605e-06
1.71609e-06
1.71613e-06
1.71616e-06
1.71619e-06
1.71622e-06
1.71625e-06
1.71629e-06
1.71632e-06
1.71635e-06
1.71639e-06
1.71642e-06
1.71645e-06
1.71645e-06
1.71634e-06
1.71633e-06
1.71651e-06
1.71659e-06
1.71663e-06
1.71666e-06
1.71668e-06
1.7167e-06
1.71672e-06
1.71674e-06
1.71676e-06
1.71678e-06
1.7168e-06
1.71682e-06
1.71684e-06
1.71687e-06
1.71689e-06
1.71691e-06
1.71693e-06
1.71696e-06
1.71698e-06
1.717e-06
1.71703e-06
1.71705e-06
1.71708e-06
1.7171e-06
1.71712e-06
1.71715e-06
1.71717e-06
1.71719e-06
1.71722e-06
1.71724e-06
1.71726e-06
1.71728e-06
1.71731e-06
1.71733e-06
1.71735e-06
1.71737e-06
1.71739e-06
1.71741e-06
1.71743e-06
1.71745e-06
1.71747e-06
1.7175e-06
1.71752e-06
1.71754e-06
1.71755e-06
1.71757e-06
1.71759e-06
1.71761e-06
1.71763e-06
1.71765e-06
1.71767e-06
1.71768e-06
1.7177e-06
1.71772e-06
1.71774e-06
1.71775e-06
1.71777e-06
1.71779e-06
1.7178e-06
1.71782e-06
1.71783e-06
1.71785e-06
1.71786e-06
1.71787e-06
1.71789e-06
1.7179e-06
1.71791e-06
1.71793e-06
1.71794e-06
1.71795e-06
1.71796e-06
1.71797e-06
1.71798e-06
1.71799e-06
1.718e-06
1.718e-06
1.71801e-06
1.71802e-06
1.71802e-06
1.71803e-06
1.71803e-06
1.71804e-06
1.71804e-06
1.71804e-06
1.71805e-06
1.71805e-06
1.71805e-06
1.71805e-06
1.71805e-06
1.71805e-06
1.71804e-06
1.71804e-06
1.71804e-06
1.71804e-06
1.71803e-06
1.71803e-06
1.71802e-06
1.71801e-06
1.71801e-06
1.718e-06
1.71799e-06
1.71798e-06
1.71797e-06
1.71796e-06
1.71795e-06
1.71793e-06
1.71792e-06
1.71791e-06
1.7179e-06
1.71788e-06
1.71787e-06
1.71785e-06
1.71783e-06
1.71782e-06
1.7178e-06
1.71778e-06
1.71777e-06
1.71775e-06
1.71773e-06
1.71772e-06
1.7177e-06
1.71769e-06
1.71768e-06
)
;

boundaryField
{
    boundary
    {
        type            empty;
    }
    inlet
    {
        type            fixedValue;
        value           uniform 0;
    }
    outlet
    {
        type            zeroGradient;
    }
}


// ************************************************************************* //
