/*--------------------------------*- C++ -*----------------------------------*\
  =========                 |
  \\      /  F ield         | OpenFOAM: The Open Source CFD Toolbox
   \\    /   O peration     | Website:  https://openfoam.org
    \\  /    A nd           | Version:  7
     \\/     M anipulation  |
\*---------------------------------------------------------------------------*/
FoamFile
{
    version     2.0;
    format      ascii;
    class       volScalarField;
    location    "3e-05";
    object      O;
}
// * * * * * * * * * * * * * * * * * * * * * * * * * * * * * * * * * * * * * //

dimensions      [0 0 0 0 0 0 0];

internalField   nonuniform List<scalar> 
500
(
1.40341e-47
2.91222e-47
3.92844e-47
4.53122e-47
4.85318e-47
5.01017e-47
5.08078e-47
5.11033e-47
5.12192e-47
5.12623e-47
5.12776e-47
5.12829e-47
5.12849e-47
5.12857e-47
5.12863e-47
5.12867e-47
5.12872e-47
5.12877e-47
5.12882e-47
5.12887e-47
5.12893e-47
5.12899e-47
5.12906e-47
5.12913e-47
5.1292e-47
5.12928e-47
5.12937e-47
5.12946e-47
5.12956e-47
5.12966e-47
5.12977e-47
5.12988e-47
5.13e-47
5.13013e-47
5.13027e-47
5.13041e-47
5.13057e-47
5.13073e-47
5.1309e-47
5.13107e-47
5.13126e-47
5.13146e-47
5.13167e-47
5.13189e-47
5.13212e-47
5.13236e-47
5.13261e-47
5.13287e-47
5.13315e-47
5.13344e-47
5.13374e-47
5.13406e-47
5.13439e-47
5.13473e-47
5.13509e-47
5.13546e-47
5.13585e-47
5.13626e-47
5.13668e-47
5.13711e-47
5.13757e-47
5.13804e-47
5.13853e-47
5.13904e-47
5.13956e-47
5.1401e-47
5.14067e-47
5.14125e-47
5.14185e-47
5.14247e-47
5.14312e-47
5.14378e-47
5.14446e-47
5.14517e-47
5.1459e-47
5.14665e-47
5.14742e-47
5.14822e-47
5.14903e-47
5.14988e-47
5.15074e-47
5.15163e-47
5.15254e-47
5.15348e-47
5.15444e-47
5.15543e-47
5.15644e-47
5.15748e-47
5.15854e-47
5.15963e-47
5.16074e-47
5.16189e-47
5.16305e-47
5.16425e-47
5.16547e-47
5.16671e-47
5.16799e-47
5.16929e-47
5.17061e-47
5.17197e-47
5.17335e-47
5.17476e-47
5.1762e-47
5.17766e-47
5.17915e-47
5.18067e-47
5.18221e-47
5.18379e-47
5.18539e-47
5.18701e-47
5.18867e-47
5.19035e-47
5.19205e-47
5.19378e-47
5.19554e-47
5.19733e-47
5.19914e-47
5.20097e-47
5.20282e-47
5.20466e-47
5.20635e-47
5.2073e-47
5.20491e-47
5.18735e-47
5.10218e-47
5.0244e-47
5.12964e-47
5.17679e-47
5.19977e-47
5.21315e-47
5.2215e-47
5.22681e-47
5.23042e-47
5.2332e-47
5.23562e-47
5.23792e-47
5.24018e-47
5.24244e-47
5.24471e-47
5.24699e-47
5.24928e-47
5.25158e-47
5.25389e-47
5.2562e-47
5.25853e-47
5.26086e-47
5.26319e-47
5.26553e-47
5.26787e-47
5.27021e-47
5.27254e-47
5.27488e-47
5.27721e-47
5.27954e-47
5.28185e-47
5.28416e-47
5.28646e-47
5.28875e-47
5.29102e-47
5.29328e-47
5.29552e-47
5.29774e-47
5.29994e-47
5.30211e-47
5.30426e-47
5.30638e-47
5.30847e-47
5.31053e-47
5.31255e-47
5.31454e-47
5.31648e-47
5.31839e-47
5.32025e-47
5.32207e-47
5.32384e-47
5.32556e-47
5.32722e-47
5.32883e-47
5.33039e-47
5.33188e-47
5.33331e-47
5.33467e-47
5.33597e-47
5.33719e-47
5.33835e-47
5.33943e-47
5.34043e-47
5.34136e-47
5.3422e-47
5.34296e-47
5.34364e-47
5.34423e-47
5.34472e-47
5.34513e-47
5.34545e-47
5.34567e-47
5.34579e-47
5.34581e-47
5.34574e-47
5.34557e-47
5.34529e-47
5.34491e-47
5.34443e-47
5.34384e-47
5.34315e-47
5.34235e-47
5.34145e-47
5.34044e-47
5.33932e-47
5.3381e-47
5.33677e-47
5.33533e-47
5.33379e-47
5.33215e-47
5.3304e-47
5.32854e-47
5.32659e-47
5.32453e-47
5.32237e-47
5.32011e-47
5.31776e-47
5.31531e-47
5.31276e-47
5.31012e-47
5.30739e-47
5.30457e-47
5.30166e-47
5.29866e-47
5.29559e-47
5.29249e-47
5.28973e-47
5.28948e-47
5.30568e-47
5.42665e-47
6.21315e-47
1.12246e-46
4.30434e-46
2.44818e-45
1.52271e-44
9.60038e-44
6.05029e-43
3.79717e-42
2.36688e-41
1.46105e-40
8.909e-40
5.36653e-39
3.21826e-38
1.97059e-37
1.30107e-36
9.9753e-36
9.21541e-35
2.06763e-33
2.4436e-32
2.89491e-31
3.41599e-30
3.98858e-29
4.59263e-28
5.20445e-27
5.79599e-26
6.33545e-25
6.78875e-24
7.1221e-23
7.30508e-22
7.3143e-21
7.13681e-20
6.7729e-19
6.2377e-18
5.56096e-17
4.78488e-16
3.95997e-15
3.13938e-14
2.37252e-13
1.69913e-12
1.14484e-11
7.19185e-11
4.16422e-10
2.1903e-09
1.02878e-08
4.28109e-08
1.70385e-07
8.90742e-07
6.79752e-06
4.48444e-05
0.000199079
0.000669313
0.00155378
0.00259376
0.00341165
0.00384428
0.00395406
0.00386818
0.00368269
0.00345248
0.00320611
0.00295815
0.0027162
0.00248449
0.00226556
0.00206099
0.00187171
0.00169815
0.00154029
0.00139775
0.00126986
0.00115574
0.00105439
0.000964752
0.000885749
0.000816355
0.000755595
0.000702567
0.000656442
0.000617651
0.000584648
0.000555898
0.000530947
0.000509376
0.000490803
0.000474875
0.000461272
0.0004497
0.000439897
0.000431625
0.000424673
0.000418851
0.000413995
0.000409959
0.000406616
0.000403857
0.000401588
0.000399729
0.00039821
0.000396973
0.000395969
0.000395157
0.000394502
0.000393976
0.000393554
0.000393217
0.000392948
0.000392735
0.000392566
0.000392433
0.000392328
0.000392246
0.000392182
0.000392132
0.000392093
0.000392063
0.000392039
0.000392021
0.000392008
0.000391997
0.000391989
0.000391983
0.000391979
0.000391975
0.000391973
0.000391971
0.000391969
0.000391968
0.000391967
0.000391966
0.000391966
0.000391965
0.000391965
0.000391965
0.000391965
0.000391964
0.000391964
0.000391962
0.00039196
0.000391957
0.000391952
0.000391944
0.000391934
0.00039193
0.000391935
0.000391942
0.000391948
0.000391953
0.000391957
0.00039196
0.000391962
0.000391963
0.000391964
0.000391964
0.000391965
0.000391965
0.000391965
0.000391965
0.000391965
0.000391965
0.000391964
0.000391964
0.000391964
0.000391964
0.000391964
0.000391964
0.000391964
0.000391963
0.000391963
0.000391963
0.000391963
0.000391963
0.000391963
0.000391963
0.000391963
0.000391963
0.000391962
0.000391962
0.000391962
0.000391962
0.000391962
0.000391962
0.000391961
0.000391961
0.000391961
0.000391961
0.00039196
0.00039196
0.00039196
0.00039196
0.00039196
0.000391959
0.000391959
0.000391959
0.000391959
0.000391958
0.000391958
0.000391958
0.000391957
0.000391957
0.000391957
0.000391957
0.000391956
0.000391956
0.000391956
0.000391956
0.000391955
0.000391955
0.000391955
0.000391954
0.000391954
0.000391954
0.000391954
0.000391953
0.000391953
0.000391953
0.000391952
0.000391952
0.000391952
0.000391951
0.000391951
0.000391951
0.00039195
0.00039195
0.00039195
0.000391949
0.000391949
0.000391949
0.000391949
0.000391948
0.000391948
0.000391948
0.000391947
0.000391947
0.000391947
0.000391946
0.000391946
0.000391946
0.000391946
0.000391945
0.000391945
0.000391945
0.000391944
0.000391944
0.000391944
0.000391944
0.000391943
0.000391943
0.000391943
0.000391943
0.000391942
0.000391942
0.000391942
0.000391942
0.000391941
0.000391941
0.000391941
0.000391941
0.00039194
0.00039194
0.00039194
0.00039194
0.00039194
0.00039194
0.000391939
0.000391939
0.000391939
)
;

boundaryField
{
    boundary
    {
        type            empty;
    }
    inlet
    {
        type            fixedValue;
        value           uniform 0;
    }
    outlet
    {
        type            zeroGradient;
    }
}


// ************************************************************************* //
