/*--------------------------------*- C++ -*----------------------------------*\
  =========                 |
  \\      /  F ield         | OpenFOAM: The Open Source CFD Toolbox
   \\    /   O peration     | Website:  https://openfoam.org
    \\  /    A nd           | Version:  7
     \\/     M anipulation  |
\*---------------------------------------------------------------------------*/
FoamFile
{
    version     2.0;
    format      ascii;
    class       volScalarField;
    location    "3e-05";
    object      O2;
}
// * * * * * * * * * * * * * * * * * * * * * * * * * * * * * * * * * * * * * //

dimensions      [0 0 0 0 0 0 0];

internalField   nonuniform List<scalar> 
500
(
0.226269
0.226269
0.226269
0.226269
0.226269
0.226269
0.226269
0.226269
0.226269
0.226269
0.226269
0.226269
0.226269
0.226269
0.226269
0.226269
0.226269
0.226269
0.226269
0.226269
0.226269
0.226269
0.226269
0.226269
0.226269
0.226269
0.226269
0.226269
0.226269
0.226269
0.226269
0.226269
0.226269
0.226269
0.226269
0.226269
0.226269
0.226269
0.226269
0.226269
0.226269
0.226269
0.226269
0.226269
0.226269
0.226269
0.226269
0.226269
0.226269
0.226269
0.226269
0.226269
0.226269
0.226269
0.226269
0.226269
0.226269
0.226269
0.226269
0.226269
0.226269
0.226269
0.226269
0.226269
0.226269
0.226269
0.226269
0.226269
0.226269
0.226269
0.226269
0.226269
0.226269
0.226269
0.226269
0.226269
0.226269
0.226269
0.226269
0.226269
0.226269
0.226269
0.226269
0.226269
0.226269
0.226269
0.226269
0.226269
0.226269
0.226269
0.226269
0.226269
0.226269
0.226269
0.226269
0.226269
0.226269
0.226269
0.226269
0.226269
0.226269
0.226269
0.226269
0.226269
0.226269
0.226269
0.226269
0.226269
0.226269
0.226269
0.226269
0.226269
0.226269
0.226269
0.226269
0.226269
0.226269
0.226269
0.226269
0.226269
0.226269
0.226269
0.226269
0.226269
0.226269
0.226269
0.226269
0.226269
0.226269
0.226269
0.226269
0.226269
0.226269
0.226269
0.226269
0.226269
0.226269
0.226269
0.226269
0.226269
0.226269
0.226269
0.226269
0.226269
0.226269
0.226269
0.226269
0.226269
0.226269
0.226269
0.226269
0.226269
0.226269
0.226269
0.226269
0.226269
0.226269
0.226269
0.226269
0.226269
0.226269
0.226269
0.226269
0.226269
0.226269
0.226269
0.226269
0.226269
0.226269
0.226269
0.226269
0.226269
0.226269
0.226269
0.226269
0.226269
0.226269
0.226269
0.226269
0.226269
0.226269
0.226269
0.226269
0.226269
0.226269
0.226269
0.226269
0.226269
0.226269
0.226269
0.226269
0.226269
0.226269
0.226269
0.226269
0.226269
0.226269
0.226269
0.226269
0.226269
0.226269
0.226269
0.226269
0.226269
0.226269
0.226269
0.226269
0.226269
0.226269
0.226269
0.226269
0.226269
0.226269
0.226269
0.226269
0.226269
0.226269
0.226269
0.226269
0.226269
0.226269
0.226269
0.226269
0.226269
0.226269
0.226269
0.226269
0.226269
0.226269
0.226269
0.226269
0.226269
0.226269
0.226269
0.226269
0.226269
0.226269
0.226269
0.226269
0.226269
0.226269
0.226269
0.226269
0.226269
0.226269
0.226269
0.226269
0.226269
0.226269
0.226269
0.226269
0.226269
0.226269
0.226269
0.226269
0.226269
0.226269
0.226269
0.226269
0.226269
0.226269
0.226269
0.226269
0.226269
0.226269
0.226269
0.226269
0.226269
0.226269
0.226269
0.226269
0.226269
0.226269
0.226269
0.226269
0.226269
0.22627
0.22627
0.226244
0.226041
0.224949
0.220787
0.210157
0.193446
0.17275
0.147224
0.118161
0.0897741
0.066084
0.048437
0.0361372
0.0278266
0.0222461
0.0184544
0.0158141
0.0139144
0.0124976
0.0114039
0.0105345
0.00982794
0.00924564
0.00876263
0.00836219
0.00803236
0.00776393
0.00754917
0.00738118
0.00725351
0.00716005
0.00709502
0.00705306
0.0070293
0.00701971
0.00701953
0.00702598
0.00703693
0.00705067
0.00706585
0.00708145
0.00709676
0.00711126
0.00712465
0.00713676
0.00714753
0.00715695
0.00716511
0.00717209
0.007178
0.00718296
0.0071871
0.00719052
0.00719333
0.00719563
0.00719748
0.00719898
0.00720018
0.00720114
0.0072019
0.0072025
0.00720297
0.00720333
0.00720361
0.00720383
0.00720399
0.00720412
0.00720421
0.00720428
0.00720433
0.00720436
0.00720438
0.0072044
0.00720441
0.00720441
0.00720441
0.00720441
0.0072044
0.0072044
0.00720439
0.00720438
0.00720437
0.00720436
0.00720435
0.00720434
0.00720433
0.00720433
0.00720432
0.00720431
0.0072043
0.0072043
0.00720429
0.00720429
0.0072043
0.00720431
0.00720433
0.00720438
0.00720447
0.00720452
0.00720445
0.0072044
0.00720436
0.00720433
0.00720431
0.00720428
0.00720426
0.00720423
0.00720421
0.00720419
0.00720417
0.00720415
0.00720414
0.00720412
0.00720411
0.0072041
0.00720408
0.00720407
0.00720406
0.00720406
0.00720405
0.00720404
0.00720403
0.00720402
0.00720402
0.00720401
0.007204
0.00720399
0.00720398
0.00720398
0.00720397
0.00720396
0.00720395
0.00720395
0.00720394
0.00720393
0.00720392
0.00720392
0.00720391
0.0072039
0.00720389
0.00720389
0.00720388
0.00720387
0.00720387
0.00720386
0.00720385
0.00720385
0.00720384
0.00720383
0.00720383
0.00720382
0.00720381
0.00720381
0.0072038
0.00720379
0.00720379
0.00720378
0.00720377
0.00720377
0.00720376
0.00720376
0.00720375
0.00720375
0.00720374
0.00720374
0.00720373
0.00720373
0.00720372
0.00720372
0.00720371
0.00720371
0.00720371
0.0072037
0.0072037
0.00720369
0.00720369
0.00720369
0.00720369
0.00720368
0.00720368
0.00720368
0.00720368
0.00720367
0.00720367
0.00720367
0.00720367
0.00720367
0.00720367
0.00720367
0.00720367
0.00720367
0.00720367
0.00720367
0.00720367
0.00720367
0.00720367
0.00720367
0.00720367
0.00720367
0.00720367
0.00720368
0.00720368
0.00720368
0.00720368
0.00720369
0.00720369
0.00720369
0.0072037
0.0072037
0.0072037
0.00720371
0.00720371
0.00720372
0.00720372
0.00720372
0.00720373
0.00720373
0.00720374
0.00720374
0.00720374
0.00720375
0.00720375
)
;

boundaryField
{
    boundary
    {
        type            empty;
    }
    inlet
    {
        type            fixedValue;
        value           uniform 0.226269;
    }
    outlet
    {
        type            zeroGradient;
    }
}


// ************************************************************************* //
