/*--------------------------------*- C++ -*----------------------------------*\
  =========                 |
  \\      /  F ield         | OpenFOAM: The Open Source CFD Toolbox
   \\    /   O peration     | Website:  https://openfoam.org
    \\  /    A nd           | Version:  7
     \\/     M anipulation  |
\*---------------------------------------------------------------------------*/
FoamFile
{
    version     2.0;
    format      ascii;
    class       volScalarField;
    location    "3e-05";
    object      OH;
}
// * * * * * * * * * * * * * * * * * * * * * * * * * * * * * * * * * * * * * //

dimensions      [0 0 0 0 0 0 0];

internalField   nonuniform List<scalar> 
500
(
9.71405e-48
1.85655e-47
2.38049e-47
2.66045e-47
2.79797e-47
2.86068e-47
2.8874e-47
2.89808e-47
2.90209e-47
2.9035e-47
2.90394e-47
2.90404e-47
2.90402e-47
2.90396e-47
2.90388e-47
2.90379e-47
2.9037e-47
2.9036e-47
2.9035e-47
2.90338e-47
2.90327e-47
2.90315e-47
2.90302e-47
2.90289e-47
2.90276e-47
2.90262e-47
2.90248e-47
2.90234e-47
2.90219e-47
2.90204e-47
2.90188e-47
2.90173e-47
2.90157e-47
2.90141e-47
2.90125e-47
2.90108e-47
2.90092e-47
2.90076e-47
2.90059e-47
2.90043e-47
2.90026e-47
2.9001e-47
2.89993e-47
2.89977e-47
2.89961e-47
2.89946e-47
2.8993e-47
2.89915e-47
2.899e-47
2.89885e-47
2.89871e-47
2.89857e-47
2.89844e-47
2.89831e-47
2.89819e-47
2.89807e-47
2.89796e-47
2.89786e-47
2.89776e-47
2.89767e-47
2.89758e-47
2.89751e-47
2.89744e-47
2.89738e-47
2.89733e-47
2.89729e-47
2.89726e-47
2.89724e-47
2.89722e-47
2.89722e-47
2.89723e-47
2.89725e-47
2.89729e-47
2.89733e-47
2.89739e-47
2.89746e-47
2.89754e-47
2.89763e-47
2.89774e-47
2.89786e-47
2.898e-47
2.89815e-47
2.89831e-47
2.89849e-47
2.89868e-47
2.89889e-47
2.89912e-47
2.89936e-47
2.89961e-47
2.89988e-47
2.90017e-47
2.90047e-47
2.90079e-47
2.90113e-47
2.90148e-47
2.90185e-47
2.90224e-47
2.90265e-47
2.90307e-47
2.90351e-47
2.90396e-47
2.90444e-47
2.90493e-47
2.90544e-47
2.90597e-47
2.90651e-47
2.90707e-47
2.90765e-47
2.90825e-47
2.90887e-47
2.9095e-47
2.91015e-47
2.91082e-47
2.9115e-47
2.9122e-47
2.91292e-47
2.91366e-47
2.91441e-47
2.91517e-47
2.91594e-47
2.91667e-47
2.91716e-47
2.9165e-47
2.91047e-47
2.88097e-47
2.85445e-47
2.89131e-47
2.90843e-47
2.91665e-47
2.9212e-47
2.92401e-47
2.92587e-47
2.92725e-47
2.92839e-47
2.92944e-47
2.93047e-47
2.93148e-47
2.9325e-47
2.93353e-47
2.93457e-47
2.93561e-47
2.93666e-47
2.93771e-47
2.93877e-47
2.93983e-47
2.9409e-47
2.94196e-47
2.94303e-47
2.94411e-47
2.94518e-47
2.94624e-47
2.94731e-47
2.94838e-47
2.94943e-47
2.95049e-47
2.95154e-47
2.95258e-47
2.95361e-47
2.95464e-47
2.95565e-47
2.95665e-47
2.95764e-47
2.95861e-47
2.95957e-47
2.96052e-47
2.96144e-47
2.96234e-47
2.96323e-47
2.96409e-47
2.96493e-47
2.96574e-47
2.96653e-47
2.96729e-47
2.96802e-47
2.96872e-47
2.96939e-47
2.97003e-47
2.97063e-47
2.9712e-47
2.97173e-47
2.97222e-47
2.97266e-47
2.97307e-47
2.97344e-47
2.97376e-47
2.97403e-47
2.97426e-47
2.97444e-47
2.97457e-47
2.97465e-47
2.97468e-47
2.97466e-47
2.97458e-47
2.97445e-47
2.97426e-47
2.97402e-47
2.97372e-47
2.97336e-47
2.97294e-47
2.97247e-47
2.97193e-47
2.97133e-47
2.97068e-47
2.96996e-47
2.96918e-47
2.96835e-47
2.96745e-47
2.96649e-47
2.96547e-47
2.96439e-47
2.96325e-47
2.96206e-47
2.9608e-47
2.95949e-47
2.95812e-47
2.9567e-47
2.95521e-47
2.95368e-47
2.95209e-47
2.95046e-47
2.94877e-47
2.94703e-47
2.94524e-47
2.94341e-47
2.94153e-47
2.93961e-47
2.93765e-47
2.93564e-47
2.9336e-47
2.93156e-47
2.92966e-47
2.92889e-47
2.93533e-47
2.98699e-47
3.32094e-47
5.41738e-47
1.85185e-46
1.00313e-45
6.10653e-45
3.79164e-44
2.35904e-43
1.46603e-42
9.10003e-42
5.65859e-41
3.55885e-40
2.31785e-39
1.63521e-38
1.32389e-37
1.26775e-36
1.39572e-35
1.66601e-34
4.24451e-33
5.24918e-32
6.38749e-31
7.67517e-30
9.0912e-29
1.06024e-27
1.21618e-26
1.37086e-25
1.51696e-24
1.64627e-23
1.75032e-22
1.82107e-21
1.85183e-20
1.83809e-19
1.77831e-18
1.67438e-17
1.5317e-16
1.35882e-15
1.16667e-14
9.67288e-14
7.72544e-13
5.95175e-12
4.42236e-11
3.15223e-10
2.14413e-09
1.38555e-08
8.49253e-08
4.97929e-07
2.91709e-06
1.86115e-05
0.000122954
0.00046621
0.000751914
0.000909662
0.00125564
0.00197702
0.00304883
0.00430011
0.00555054
0.00668472
0.00765561
0.00845643
0.0090956
0.00958469
0.00993534
0.0101594
0.0102699
0.0102808
0.0102072
0.0100645
0.00986782
0.00963111
0.009367
0.00908648
0.00879874
0.00851133
0.00823023
0.00796002
0.00770413
0.00746496
0.00724407
0.0070483
0.00687427
0.0067167
0.00657521
0.00644917
0.00633777
0.00624004
0.00615491
0.00608126
0.00601796
0.00596388
0.00591796
0.00587918
0.0058466
0.00581937
0.00579671
0.00577795
0.00576248
0.00574978
0.0057394
0.00573094
0.00572408
0.00571853
0.00571407
0.00571049
0.00570763
0.00570535
0.00570354
0.00570212
0.005701
0.00570013
0.00569945
0.00569893
0.00569853
0.00569823
0.005698
0.00569783
0.00569771
0.00569763
0.00569757
0.00569754
0.00569752
0.00569751
0.00569752
0.00569753
0.00569754
0.00569756
0.00569759
0.00569761
0.00569764
0.00569767
0.0056977
0.00569772
0.00569775
0.00569778
0.00569781
0.00569784
0.00569786
0.00569788
0.00569789
0.00569789
0.00569786
0.00569779
0.0056976
0.00569756
0.00569776
0.0056979
0.005698
0.00569807
0.00569813
0.00569817
0.00569821
0.00569824
0.00569827
0.0056983
0.00569832
0.00569835
0.00569837
0.00569839
0.00569841
0.00569844
0.00569846
0.00569848
0.0056985
0.00569853
0.00569855
0.00569857
0.00569859
0.00569861
0.00569864
0.00569866
0.00569868
0.0056987
0.00569872
0.00569874
0.00569876
0.00569878
0.0056988
0.00569882
0.00569884
0.00569886
0.00569888
0.0056989
0.00569892
0.00569894
0.00569896
0.00569898
0.005699
0.00569902
0.00569904
0.00569905
0.00569907
0.00569909
0.00569911
0.00569912
0.00569914
0.00569916
0.00569917
0.00569919
0.0056992
0.00569922
0.00569923
0.00569925
0.00569926
0.00569928
0.00569929
0.0056993
0.00569932
0.00569933
0.00569934
0.00569935
0.00569937
0.00569938
0.00569939
0.0056994
0.00569941
0.00569941
0.00569942
0.00569943
0.00569944
0.00569945
0.00569945
0.00569946
0.00569946
0.00569947
0.00569947
0.00569948
0.00569948
0.00569948
0.00569949
0.00569949
0.00569949
0.00569949
0.00569949
0.00569949
0.00569949
0.00569949
0.00569949
0.00569948
0.00569948
0.00569948
0.00569947
0.00569947
0.00569946
0.00569946
0.00569945
0.00569945
0.00569944
0.00569943
0.00569942
0.00569941
0.0056994
0.00569939
0.00569938
0.00569937
0.00569936
0.00569935
0.00569933
0.00569932
0.00569931
0.00569929
0.00569928
0.00569926
0.00569925
0.00569924
0.00569922
0.00569922
0.00569921
)
;

boundaryField
{
    boundary
    {
        type            empty;
    }
    inlet
    {
        type            fixedValue;
        value           uniform 0;
    }
    outlet
    {
        type            zeroGradient;
    }
}


// ************************************************************************* //
