/*--------------------------------*- C++ -*----------------------------------*\
  =========                 |
  \\      /  F ield         | OpenFOAM: The Open Source CFD Toolbox
   \\    /   O peration     | Website:  https://openfoam.org
    \\  /    A nd           | Version:  7
     \\/     M anipulation  |
\*---------------------------------------------------------------------------*/
FoamFile
{
    version     2.0;
    format      ascii;
    class       volScalarField;
    location    "3e-05";
    object      p;
}
// * * * * * * * * * * * * * * * * * * * * * * * * * * * * * * * * * * * * * //

dimensions      [1 -1 -2 0 0 0 0];

internalField   nonuniform List<scalar> 
500
(
102251
102251
102251
102250
102250
102250
102250
102249
102249
102249
102248
102248
102247
102246
102246
102245
102244
102244
102243
102242
102241
102240
102240
102239
102238
102237
102236
102234
102233
102232
102231
102230
102229
102228
102226
102225
102224
102222
102221
102220
102218
102217
102216
102214
102213
102212
102210
102209
102207
102206
102204
102203
102201
102200
102199
102197
102196
102194
102193
102191
102190
102188
102187
102185
102184
102182
102181
102179
102178
102176
102175
102173
102172
102170
102169
102167
102166
102164
102163
102162
102160
102159
102157
102156
102154
102153
102151
102150
102148
102147
102145
102144
102142
102141
102139
102138
102136
102135
102133
102132
102131
102129
102128
102126
102125
102123
102121
102120
102118
102117
102115
102114
102112
102111
102109
102108
102106
102105
102103
102102
102100
102099
102097
102096
102094
102093
102091
102090
102088
102087
102085
102084
102082
102081
102079
102078
102077
102075
102074
102072
102071
102070
102068
102067
102066
102064
102063
102062
102061
102059
102058
102057
102056
102055
102053
102052
102051
102050
102049
102048
102047
102046
102045
102044
102043
102042
102041
102040
102040
102039
102038
102037
102036
102036
102035
102034
102033
102033
102032
102031
102031
102030
102030
102029
102029
102028
102028
102027
102027
102026
102026
102026
102025
102025
102025
102024
102024
102024
102023
102023
102023
102023
102023
102022
102022
102022
102022
102022
102022
102022
102022
102022
102021
102021
102021
102021
102021
102022
102022
102022
102022
102022
102022
102022
102022
102022
102022
102023
102023
102023
102023
102023
102024
102024
102024
102024
102025
102025
102025
102025
102026
102026
102026
102027
102027
102028
102028
102028
102029
102029
102030
102030
102031
102031
102032
102032
102033
102033
102034
102034
102035
102035
102036
102036
102037
102038
102038
102039
102039
102040
102041
102041
102042
102043
102043
102044
102045
102045
102046
102047
102047
102047
102047
102045
102044
102042
102041
102040
102039
102038
102038
102037
102037
102036
102036
102035
102035
102035
102034
102034
102033
102033
102033
102032
102032
102032
102031
102031
102030
102030
102030
102029
102029
102029
102028
102028
102028
102027
102027
102027
102026
102026
102026
102025
102025
102025
102024
102024
102024
102023
102023
102023
102022
102022
102022
102021
102021
102021
102020
102020
102019
102019
102019
102018
102018
102018
102017
102017
102017
102016
102016
102016
102015
102015
102015
102014
102014
102013
102013
102013
102012
102012
102012
102011
102011
102011
102010
102010
102010
102009
102009
102009
102008
102008
102008
102007
102007
102007
102006
102006
102005
102005
102004
102004
102003
102003
102002
102002
102001
102001
102000
102000
101999
101999
101998
101998
101997
101997
101997
101996
101996
101995
101995
101994
101994
101993
101993
101992
101992
101991
101991
101990
101990
101989
101989
101988
101988
101987
101987
101986
101986
101985
101985
101984
101984
101983
101983
101982
101982
101981
101981
101980
101980
101979
101978
101978
101977
101977
101976
101976
101975
101975
101974
101973
101973
101972
101972
101971
101970
101970
101969
101969
101968
101967
101967
101966
101965
101965
101964
101964
101963
101962
101962
101961
101960
101960
101959
101958
101958
101957
101956
101956
101955
101954
101953
101953
101952
101951
101951
101950
101949
101948
101948
101947
101946
101945
101944
101944
101943
101942
101941
101941
101940
101939
101938
101937
101936
101936
101935
101934
)
;

boundaryField
{
    boundary
    {
        type            empty;
    }
    inlet
    {
        type            zeroGradient;
    }
    outlet
    {
        type            waveTransmissive;
        gamma           1.4;
        value           uniform 101934;
    }
}


// ************************************************************************* //
