/*--------------------------------*- C++ -*----------------------------------*\
  =========                 |
  \\      /  F ield         | OpenFOAM: The Open Source CFD Toolbox
   \\    /   O peration     | Website:  https://openfoam.org
    \\  /    A nd           | Version:  7
     \\/     M anipulation  |
\*---------------------------------------------------------------------------*/
FoamFile
{
    version     2.0;
    format      ascii;
    class       surfaceScalarField;
    location    "3e-05";
    object      phi;
}
// * * * * * * * * * * * * * * * * * * * * * * * * * * * * * * * * * * * * * //

dimensions      [1 0 -1 0 0 0 0];

internalField   nonuniform List<scalar> 
499
(
6.86993e-06
6.87149e-06
6.87724e-06
6.88537e-06
6.89446e-06
6.90382e-06
6.91313e-06
6.92228e-06
6.9312e-06
6.93987e-06
6.94825e-06
6.95631e-06
6.96402e-06
6.97135e-06
6.97829e-06
6.9848e-06
6.99085e-06
6.99643e-06
7.0015e-06
7.00604e-06
7.01003e-06
7.01345e-06
7.01628e-06
7.01849e-06
7.02006e-06
7.02098e-06
7.02122e-06
7.02077e-06
7.01961e-06
7.01772e-06
7.01509e-06
7.01171e-06
7.00755e-06
7.00261e-06
6.99687e-06
6.99033e-06
6.98297e-06
6.97479e-06
6.96578e-06
6.95592e-06
6.94522e-06
6.93367e-06
6.92126e-06
6.90799e-06
6.89387e-06
6.87888e-06
6.86303e-06
6.84632e-06
6.82875e-06
6.81033e-06
6.79105e-06
6.77093e-06
6.74996e-06
6.72816e-06
6.70553e-06
6.68208e-06
6.65782e-06
6.63276e-06
6.60691e-06
6.58028e-06
6.55288e-06
6.52473e-06
6.49584e-06
6.46622e-06
6.4359e-06
6.40488e-06
6.37318e-06
6.34082e-06
6.30781e-06
6.27418e-06
6.23994e-06
6.20511e-06
6.16972e-06
6.13377e-06
6.09729e-06
6.0603e-06
6.02282e-06
5.98487e-06
5.94647e-06
5.90765e-06
5.86842e-06
5.8288e-06
5.78882e-06
5.7485e-06
5.70785e-06
5.66691e-06
5.62569e-06
5.58421e-06
5.54249e-06
5.50056e-06
5.45843e-06
5.41613e-06
5.37367e-06
5.33108e-06
5.28837e-06
5.24556e-06
5.20268e-06
5.15974e-06
5.11675e-06
5.07375e-06
5.03073e-06
4.98773e-06
4.94476e-06
4.90183e-06
4.85895e-06
4.81615e-06
4.77344e-06
4.73083e-06
4.68833e-06
4.64597e-06
4.60374e-06
4.56167e-06
4.51976e-06
4.47802e-06
4.43647e-06
4.39511e-06
4.35396e-06
4.31301e-06
4.27229e-06
4.2318e-06
4.19155e-06
4.15154e-06
4.11177e-06
4.07226e-06
4.033e-06
3.994e-06
3.95528e-06
3.91684e-06
3.87868e-06
3.8408e-06
3.80321e-06
3.76591e-06
3.72889e-06
3.69217e-06
3.65575e-06
3.61962e-06
3.58379e-06
3.54825e-06
3.51302e-06
3.47809e-06
3.44346e-06
3.40913e-06
3.3751e-06
3.34137e-06
3.30795e-06
3.27483e-06
3.24201e-06
3.20949e-06
3.17727e-06
3.14534e-06
3.11372e-06
3.0824e-06
3.05137e-06
3.02064e-06
2.99021e-06
2.96007e-06
2.93023e-06
2.90067e-06
2.87141e-06
2.84244e-06
2.81376e-06
2.78537e-06
2.75726e-06
2.72945e-06
2.70191e-06
2.67466e-06
2.6477e-06
2.62101e-06
2.59461e-06
2.56848e-06
2.54263e-06
2.51706e-06
2.49176e-06
2.46674e-06
2.44199e-06
2.41752e-06
2.39331e-06
2.36937e-06
2.3457e-06
2.32229e-06
2.29915e-06
2.27627e-06
2.25365e-06
2.23129e-06
2.20919e-06
2.18735e-06
2.16576e-06
2.14442e-06
2.12333e-06
2.10249e-06
2.0819e-06
2.06155e-06
2.04144e-06
2.02158e-06
2.00195e-06
1.98256e-06
1.96341e-06
1.94448e-06
1.92579e-06
1.90732e-06
1.88908e-06
1.87106e-06
1.85326e-06
1.83568e-06
1.81831e-06
1.80116e-06
1.78421e-06
1.76747e-06
1.75094e-06
1.7346e-06
1.71847e-06
1.70253e-06
1.68679e-06
1.67123e-06
1.65586e-06
1.64068e-06
1.62568e-06
1.61086e-06
1.59621e-06
1.58173e-06
1.56742e-06
1.55328e-06
1.5393e-06
1.52548e-06
1.51182e-06
1.4983e-06
1.48494e-06
1.47172e-06
1.45865e-06
1.44571e-06
1.4329e-06
1.42023e-06
1.40769e-06
1.39527e-06
1.38297e-06
1.37079e-06
1.35872e-06
1.34676e-06
1.3349e-06
1.32315e-06
1.3115e-06
1.29994e-06
1.28848e-06
1.2771e-06
1.26581e-06
1.25461e-06
1.24348e-06
1.23243e-06
1.22145e-06
1.21054e-06
1.19971e-06
1.18894e-06
1.17823e-06
1.16759e-06
1.15701e-06
1.14649e-06
1.13603e-06
1.12562e-06
1.11527e-06
1.10498e-06
1.09474e-06
1.08456e-06
1.07443e-06
1.06436e-06
1.05434e-06
1.04437e-06
1.03446e-06
1.0246e-06
1.01479e-06
1.00503e-06
9.95332e-07
9.8568e-07
9.76077e-07
9.66519e-07
9.57023e-07
9.47753e-07
9.39836e-07
9.39608e-07
9.78813e-07
1.1936e-06
1.91801e-06
3.04953e-06
3.8982e-06
4.38694e-06
4.63697e-06
4.78164e-06
4.84079e-06
4.84349e-06
4.80224e-06
4.72536e-06
4.62138e-06
4.49902e-06
4.36643e-06
4.23061e-06
4.09717e-06
3.97032e-06
3.853e-06
3.74706e-06
3.65345e-06
3.57245e-06
3.5038e-06
3.44685e-06
3.40068e-06
3.3642e-06
3.33623e-06
3.31556e-06
3.30099e-06
3.29141e-06
3.28579e-06
3.28322e-06
3.28291e-06
3.2842e-06
3.28638e-06
3.28916e-06
3.29225e-06
3.29543e-06
3.29853e-06
3.30145e-06
3.30409e-06
3.30641e-06
3.30839e-06
3.31002e-06
3.3113e-06
3.31226e-06
3.31291e-06
3.31328e-06
3.3134e-06
3.3133e-06
3.31299e-06
3.31251e-06
3.31188e-06
3.31112e-06
3.31025e-06
3.30928e-06
3.30824e-06
3.30713e-06
3.30596e-06
3.30475e-06
3.30349e-06
3.30221e-06
3.3009e-06
3.29956e-06
3.29821e-06
3.29684e-06
3.29546e-06
3.29407e-06
3.29268e-06
3.29127e-06
3.28986e-06
3.28844e-06
3.28701e-06
3.28559e-06
3.28416e-06
3.28272e-06
3.28128e-06
3.27984e-06
3.2784e-06
3.27695e-06
3.2755e-06
3.27404e-06
3.27259e-06
3.27113e-06
3.26967e-06
3.2682e-06
3.26674e-06
3.26527e-06
3.26379e-06
3.26232e-06
3.26084e-06
3.25936e-06
3.25787e-06
3.25638e-06
3.25489e-06
3.25339e-06
3.25189e-06
3.25039e-06
3.24888e-06
3.24737e-06
3.24586e-06
3.24434e-06
3.24282e-06
3.24129e-06
3.23976e-06
3.23823e-06
3.23669e-06
3.23514e-06
3.2336e-06
3.23204e-06
3.23049e-06
3.22892e-06
3.22736e-06
3.22578e-06
3.2242e-06
3.22262e-06
3.22103e-06
3.21943e-06
3.21783e-06
3.21623e-06
3.21461e-06
3.21299e-06
3.21136e-06
3.20973e-06
3.20809e-06
3.20644e-06
3.20478e-06
3.20312e-06
3.20145e-06
3.19977e-06
3.19809e-06
3.19639e-06
3.19469e-06
3.19298e-06
3.19126e-06
3.18954e-06
3.1878e-06
3.18606e-06
3.1843e-06
3.18254e-06
3.18077e-06
3.17898e-06
3.17719e-06
3.17539e-06
3.17358e-06
3.17176e-06
3.16993e-06
3.16808e-06
3.16623e-06
3.16437e-06
3.1625e-06
3.16061e-06
3.15872e-06
3.15681e-06
3.15489e-06
3.15296e-06
3.15102e-06
3.14907e-06
3.1471e-06
3.14513e-06
3.14314e-06
3.14114e-06
3.13913e-06
3.1371e-06
3.13507e-06
3.13302e-06
3.13095e-06
3.12888e-06
3.12679e-06
3.12469e-06
3.12257e-06
3.12045e-06
3.11831e-06
3.11615e-06
3.11398e-06
3.1118e-06
3.10961e-06
3.1074e-06
3.10517e-06
3.10293e-06
3.10068e-06
3.09842e-06
3.09614e-06
3.09384e-06
3.09153e-06
3.0892e-06
3.08686e-06
3.08451e-06
3.08214e-06
3.07975e-06
3.07735e-06
3.07493e-06
3.0725e-06
3.07005e-06
3.06759e-06
3.06511e-06
3.06261e-06
3.0601e-06
3.05757e-06
3.05502e-06
3.05246e-06
3.04988e-06
3.04728e-06
3.04467e-06
3.04204e-06
3.03939e-06
3.03672e-06
3.03404e-06
3.03134e-06
3.02862e-06
3.02588e-06
3.02312e-06
3.02034e-06
3.01755e-06
3.01473e-06
3.0119e-06
3.00905e-06
3.00617e-06
3.00328e-06
3.00037e-06
2.99743e-06
)
;

boundaryField
{
    boundary
    {
        type            empty;
        value           nonuniform 0();
    }
    inlet
    {
        type            calculated;
        value           uniform -6.87113e-06;
    }
    outlet
    {
        type            calculated;
        value           uniform 2.99448e-06;
    }
}


// ************************************************************************* //
