/*--------------------------------*- C++ -*----------------------------------*\
  =========                 |
  \\      /  F ield         | OpenFOAM: The Open Source CFD Toolbox
   \\    /   O peration     | Website:  https://openfoam.org
    \\  /    A nd           | Version:  7
     \\/     M anipulation  |
\*---------------------------------------------------------------------------*/
FoamFile
{
    version     2.0;
    format      ascii;
    class       volScalarField;
    location    "3e-05";
    object      Qdot;
}
// * * * * * * * * * * * * * * * * * * * * * * * * * * * * * * * * * * * * * //

dimensions      [1 -1 -3 0 0 0 0];

internalField   nonuniform List<scalar> 
500
(
-2.58049e-27
-2.24009e-27
-2.17879e-27
-2.16793e-27
-2.16544e-27
-2.16437e-27
-2.1636e-27
-2.16287e-27
-2.1621e-27
-2.16127e-27
-2.16036e-27
-2.15937e-27
-2.1583e-27
-2.15715e-27
-2.15592e-27
-2.15461e-27
-2.15323e-27
-2.15177e-27
-2.15024e-27
-2.14863e-27
-2.14697e-27
-2.14523e-27
-2.14343e-27
-2.14157e-27
-2.13966e-27
-2.13768e-27
-2.13566e-27
-2.13358e-27
-2.13145e-27
-2.12928e-27
-2.12707e-27
-2.12481e-27
-2.12252e-27
-2.12019e-27
-2.11783e-27
-2.11545e-27
-2.11304e-27
-2.1106e-27
-2.10814e-27
-2.10567e-27
-2.10318e-27
-2.10068e-27
-2.09818e-27
-2.09566e-27
-2.09314e-27
-2.09063e-27
-2.08811e-27
-2.0856e-27
-2.0831e-27
-2.0806e-27
-2.07812e-27
-2.07565e-27
-2.0732e-27
-2.07077e-27
-2.06836e-27
-2.06598e-27
-2.06362e-27
-2.06129e-27
-2.05899e-27
-2.05672e-27
-2.05448e-27
-2.05228e-27
-2.05012e-27
-2.04799e-27
-2.0459e-27
-2.04385e-27
-2.04185e-27
-2.03989e-27
-2.03797e-27
-2.0361e-27
-2.03427e-27
-2.03249e-27
-2.03075e-27
-2.02907e-27
-2.02743e-27
-2.02584e-27
-2.0243e-27
-2.0228e-27
-2.02136e-27
-2.01996e-27
-2.01861e-27
-2.01731e-27
-2.01606e-27
-2.01486e-27
-2.0137e-27
-2.01259e-27
-2.01152e-27
-2.0105e-27
-2.00952e-27
-2.00859e-27
-2.0077e-27
-2.00685e-27
-2.00604e-27
-2.00528e-27
-2.00455e-27
-2.00385e-27
-2.0032e-27
-2.00257e-27
-2.00198e-27
-2.00143e-27
-2.0009e-27
-2.0004e-27
-1.99994e-27
-1.99949e-27
-1.99908e-27
-1.99869e-27
-1.99832e-27
-1.99797e-27
-1.99764e-27
-1.99733e-27
-1.99703e-27
-1.99675e-27
-1.99649e-27
-1.99624e-27
-1.996e-27
-1.99577e-27
-1.99555e-27
-1.99533e-27
-1.99513e-27
-1.99493e-27
-1.99473e-27
-1.99455e-27
-1.99444e-27
-1.99475e-27
-1.99789e-27
-1.99855e-27
-1.99453e-27
-1.99358e-27
-1.99324e-27
-1.99302e-27
-1.99282e-27
-1.99262e-27
-1.99241e-27
-1.9922e-27
-1.99198e-27
-1.99176e-27
-1.99153e-27
-1.99129e-27
-1.99105e-27
-1.9908e-27
-1.99054e-27
-1.99027e-27
-1.99e-27
-1.98972e-27
-1.98943e-27
-1.98914e-27
-1.98884e-27
-1.98853e-27
-1.98821e-27
-1.98788e-27
-1.98755e-27
-1.98721e-27
-1.98687e-27
-1.98651e-27
-1.98615e-27
-1.98579e-27
-1.98541e-27
-1.98503e-27
-1.98464e-27
-1.98425e-27
-1.98384e-27
-1.98343e-27
-1.98302e-27
-1.98259e-27
-1.98216e-27
-1.98172e-27
-1.98128e-27
-1.98082e-27
-1.98036e-27
-1.97989e-27
-1.9794e-27
-1.97891e-27
-1.97841e-27
-1.9779e-27
-1.97738e-27
-1.97685e-27
-1.9763e-27
-1.97575e-27
-1.97518e-27
-1.97459e-27
-1.97399e-27
-1.97338e-27
-1.97275e-27
-1.97211e-27
-1.97145e-27
-1.97077e-27
-1.97007e-27
-1.96935e-27
-1.96862e-27
-1.96786e-27
-1.96709e-27
-1.96629e-27
-1.96547e-27
-1.96462e-27
-1.96376e-27
-1.96287e-27
-1.96195e-27
-1.96102e-27
-1.96005e-27
-1.95907e-27
-1.95805e-27
-1.95701e-27
-1.95595e-27
-1.95486e-27
-1.95374e-27
-1.9526e-27
-1.95144e-27
-1.95025e-27
-1.94903e-27
-1.94779e-27
-1.94652e-27
-1.94524e-27
-1.94393e-27
-1.94259e-27
-1.94124e-27
-1.93986e-27
-1.93847e-27
-1.93705e-27
-1.93562e-27
-1.93417e-27
-1.93271e-27
-1.93122e-27
-1.92973e-27
-1.92822e-27
-1.9267e-27
-1.92517e-27
-1.92363e-27
-1.92208e-27
-1.92051e-27
-1.91892e-27
-1.91721e-27
-1.9148e-27
-1.90836e-27
-1.87822e-27
-1.70864e-27
-7.18155e-28
5.10675e-27
3.94007e-26
2.41285e-25
1.42914e-24
8.41312e-24
4.94383e-23
2.90194e-22
1.70172e-21
9.97048e-21
5.83814e-20
3.41761e-19
2.00118e-18
1.17284e-17
6.88475e-17
4.05026e-16
2.8832e-15
1.71835e-14
1.01408e-13
5.97846e-13
3.52192e-12
2.07317e-11
1.2194e-10
7.16631e-10
4.20786e-09
2.4684e-08
1.44654e-07
8.46776e-07
4.95109e-06
2.89127e-05
0.000168628
0.000982159
0.00571276
0.0331818
0.192436
1.11395
6.71056
45.3527
381.367
3179.45
20677.7
147863
1.06488e+06
7.87504e+06
6.16805e+07
4.78234e+08
2.6668e+09
7.95754e+09
1.21605e+10
1.24415e+10
1.18311e+10
1.09856e+10
9.56386e+09
7.59955e+09
5.62821e+09
4.00992e+09
2.81225e+09
1.96652e+09
1.37924e+09
9.72274e+08
6.88944e+08
4.90217e+08
3.4966e+08
2.49389e+08
1.77268e+08
1.25008e+08
8.68977e+07
5.89755e+07
3.84656e+07
2.34092e+07
1.24033e+07
4.43646e+06
-1.22438e+06
-5.13272e+06
-7.70164e+06
-9.25306e+06
-1.00278e+07
-1.02525e+07
-1.01397e+07
-9.76236e+06
-9.20077e+06
-8.52745e+06
-7.79732e+06
-7.04881e+06
-6.31381e+06
-5.61114e+06
-4.95335e+06
-4.34614e+06
-3.8008e+06
-3.30984e+06
-2.87254e+06
-2.48899e+06
-2.15195e+06
-1.85719e+06
-1.60517e+06
-1.38774e+06
-1.20195e+06
-1.04321e+06
-909266
-796859
-702555
-623427
-557897
-503857
-459371
-422752
-393741
-369986
-351233
-336080
-323718
-314677
-307589
-302283
-298381
-295644
-293297
-292180
-291612
-291475
-291673
-292130
-292785
-293587
-294494
-295469
-296469
-297875
-298930
-300017
-300739
-301934
-303176
-304499
-305979
-307783
-310260
-314103
-321199
-333835
-358162
-364939
-344788
-333582
-327491
-323734
-322321
-321926
-322131
-322694
-323468
-324368
-325340
-326351
-327384
-328426
-329472
-330516
-331553
-332566
-333589
-334613
-335633
-336920
-337926
-338927
-339923
-341265
-342253
-343238
-344223
-345211
-346193
-347170
-348142
-349110
-350074
-351034
-351990
-352941
-353887
-354826
-355758
-356685
-357609
-358529
-359444
-360180
-361082
-361978
-362867
-363749
-364624
-365491
-366350
-367201
-368043
-368877
-369700
-370513
-371316
-372106
-372881
-373638
-374389
-375132
-375865
-376587
-377525
-378231
-378951
-379632
-380290
-380931
-381556
-382166
-382759
-383338
-383900
-384447
-384977
-385492
-385990
-386473
-386939
-387388
-387819
-388233
-388630
-389009
-389371
-389716
-390045
-390353
-390637
-390867
-391110
-391346
-391567
-391774
-391964
-392139
-392297
-392437
-392562
-392672
-392527
-392606
-392662
-392704
-392732
-392746
-392745
-392731
-392701
-392657
-392601
-392534
-392459
-392659
-392584
-392519
-392481
-392507
-392664
)
;

boundaryField
{
    boundary
    {
        type            empty;
    }
    inlet
    {
        type            calculated;
        value           uniform 0;
    }
    outlet
    {
        type            calculated;
        value           uniform 0;
    }
}


// ************************************************************************* //
