/*--------------------------------*- C++ -*----------------------------------*\
  =========                 |
  \\      /  F ield         | OpenFOAM: The Open Source CFD Toolbox
   \\    /   O peration     | Website:  https://openfoam.org
    \\  /    A nd           | Version:  7
     \\/     M anipulation  |
\*---------------------------------------------------------------------------*/
FoamFile
{
    version     2.0;
    format      ascii;
    class       volScalarField;
    location    "3e-05";
    object      rho;
}
// * * * * * * * * * * * * * * * * * * * * * * * * * * * * * * * * * * * * * //

dimensions      [1 -3 0 0 0 0 0];

internalField   nonuniform List<scalar> 
500
(
0.856462
0.855664
0.855283
0.855132
0.855078
0.85506
0.855054
0.855052
0.85505
0.855049
0.855047
0.855046
0.855044
0.855042
0.85504
0.855038
0.855036
0.855034
0.855031
0.855029
0.855026
0.855023
0.855021
0.855018
0.855015
0.855012
0.855008
0.855005
0.855002
0.854998
0.854995
0.854991
0.854987
0.854984
0.85498
0.854976
0.854972
0.854968
0.854964
0.854959
0.854955
0.854951
0.854947
0.854942
0.854938
0.854933
0.854929
0.854924
0.854919
0.854915
0.85491
0.854905
0.8549
0.854895
0.85489
0.854885
0.85488
0.854875
0.85487
0.854864
0.854859
0.854854
0.854848
0.854843
0.854837
0.854831
0.854826
0.85482
0.854814
0.854808
0.854802
0.854796
0.85479
0.854783
0.854777
0.854771
0.854764
0.854757
0.854751
0.854744
0.854737
0.85473
0.854723
0.854715
0.854708
0.854701
0.854693
0.854685
0.854677
0.854669
0.854661
0.854653
0.854645
0.854637
0.854628
0.854619
0.854611
0.854602
0.854593
0.854584
0.854575
0.854565
0.854556
0.854546
0.854537
0.854527
0.854517
0.854507
0.854497
0.854487
0.854477
0.854467
0.854456
0.854446
0.854436
0.854425
0.854414
0.854404
0.854393
0.854382
0.854372
0.854361
0.85435
0.854339
0.854329
0.854319
0.854307
0.854296
0.854285
0.854274
0.854263
0.854252
0.854242
0.854231
0.85422
0.85421
0.854199
0.854189
0.854178
0.854168
0.854158
0.854148
0.854138
0.854128
0.854118
0.854108
0.854099
0.854089
0.85408
0.854071
0.854062
0.854053
0.854044
0.854035
0.854027
0.854019
0.854011
0.854003
0.853995
0.853988
0.85398
0.853973
0.853966
0.85396
0.853953
0.853947
0.853941
0.853935
0.853929
0.853924
0.853919
0.853914
0.853909
0.853904
0.8539
0.853896
0.853892
0.853889
0.853886
0.853883
0.85388
0.853878
0.853875
0.853874
0.853872
0.853871
0.853869
0.853869
0.853868
0.853868
0.853868
0.853868
0.853869
0.85387
0.853871
0.853872
0.853874
0.853876
0.853878
0.853881
0.853884
0.853887
0.85389
0.853894
0.853898
0.853902
0.853906
0.853911
0.853916
0.853921
0.853927
0.853933
0.853939
0.853945
0.853951
0.853958
0.853965
0.853972
0.853979
0.853987
0.853995
0.854003
0.854011
0.854019
0.854028
0.854036
0.854045
0.854054
0.854063
0.854072
0.854082
0.854091
0.854101
0.854111
0.854121
0.854131
0.854141
0.854151
0.854162
0.854172
0.854183
0.854194
0.854205
0.854216
0.854227
0.854238
0.85425
0.854261
0.854273
0.854285
0.854298
0.854311
0.854323
0.854335
0.854348
0.854362
0.854375
0.854389
0.854404
0.854418
0.854433
0.854449
0.854464
0.85448
0.854497
0.854513
0.854531
0.854548
0.854566
0.854584
0.854603
0.854622
0.854641
0.85466
0.854679
0.854688
0.854627
0.854137
0.851282
0.836504
0.775225
0.631039
0.473673
0.36723
0.30225
0.26071
0.231727
0.210974
0.195617
0.183681
0.173954
0.165762
0.158739
0.152678
0.147453
0.142974
0.139164
0.135954
0.13328
0.131079
0.129291
0.127861
0.126736
0.125868
0.125215
0.124737
0.124401
0.124177
0.12404
0.123968
0.123944
0.123955
0.123987
0.124031
0.124083
0.124138
0.124194
0.124247
0.124298
0.124345
0.124387
0.124425
0.124458
0.124486
0.124511
0.124532
0.124549
0.124564
0.124576
0.124586
0.124594
0.1246
0.124606
0.124609
0.124612
0.124615
0.124616
0.124617
0.124618
0.124618
0.124618
0.124618
0.124618
0.124617
0.124617
0.124616
0.124615
0.124615
0.124614
0.124613
0.124612
0.124611
0.12461
0.124609
0.124609
0.124608
0.124607
0.124606
0.124605
0.124604
0.124603
0.124602
0.124602
0.124601
0.1246
0.124599
0.124598
0.124598
0.124597
0.124596
0.124595
0.124594
0.124594
0.124593
0.124592
0.124591
0.12459
0.124589
0.124589
0.124588
0.124587
0.124586
0.124585
0.124584
0.124583
0.124582
0.124581
0.12458
0.124579
0.124578
0.124578
0.124577
0.124576
0.124575
0.124574
0.124573
0.124572
0.124571
0.12457
0.12457
0.124569
0.124568
0.124567
0.124566
0.124565
0.124564
0.124563
0.124563
0.124562
0.124561
0.12456
0.124559
0.124558
0.124557
0.124556
0.124555
0.124555
0.124554
0.124553
0.124552
0.124551
0.12455
0.124549
0.124548
0.124547
0.124546
0.124546
0.124545
0.124544
0.124543
0.124542
0.124541
0.12454
0.124539
0.124538
0.124537
0.124536
0.124536
0.124535
0.124534
0.124533
0.124532
0.124531
0.12453
0.124529
0.124528
0.124527
0.124527
0.124526
0.124525
0.124524
0.124523
0.124522
0.124521
0.12452
0.124519
0.124519
0.124518
0.124517
0.124516
0.124515
0.124514
0.124513
0.124512
0.124512
0.124511
0.12451
0.124509
0.124508
0.124507
0.124506
0.124506
0.124505
0.124504
0.124503
0.124502
0.124501
0.124501
0.1245
0.124499
0.124498
0.124497
0.124496
0.124496
0.124495
0.124494
0.124493
0.124492
0.124491
0.124491
0.12449
0.124489
0.124488
0.124487
0.124486
0.124485
0.124485
0.124484
0.124483
0.124482
)
;

boundaryField
{
    boundary
    {
        type            empty;
    }
    inlet
    {
        type            calculated;
        value           uniform 0.857315;
    }
    outlet
    {
        type            calculated;
        value           uniform 0.124481;
    }
}


// ************************************************************************* //
