/*--------------------------------*- C++ -*----------------------------------*\
  =========                 |
  \\      /  F ield         | OpenFOAM: The Open Source CFD Toolbox
   \\    /   O peration     | Website:  https://openfoam.org
    \\  /    A nd           | Version:  7
     \\/     M anipulation  |
\*---------------------------------------------------------------------------*/
FoamFile
{
    version     2.0;
    format      ascii;
    class       volScalarField;
    location    "3e-05";
    object      T;
}
// * * * * * * * * * * * * * * * * * * * * * * * * * * * * * * * * * * * * * //

dimensions      [0 0 0 1 0 0 0];

internalField   nonuniform List<scalar> 
500
(
300.299
300.579
300.712
300.765
300.783
300.789
300.79
300.79
300.79
300.789
300.788
300.787
300.786
300.785
300.784
300.783
300.781
300.78
300.779
300.777
300.776
300.774
300.772
300.771
300.769
300.767
300.765
300.763
300.761
300.759
300.757
300.755
300.752
300.75
300.748
300.745
300.743
300.741
300.738
300.736
300.733
300.731
300.728
300.726
300.723
300.721
300.718
300.715
300.713
300.71
300.708
300.705
300.703
300.7
300.697
300.695
300.692
300.69
300.687
300.685
300.682
300.68
300.677
300.675
300.673
300.67
300.668
300.665
300.663
300.661
300.659
300.656
300.654
300.652
300.65
300.648
300.646
300.644
300.642
300.64
300.638
300.636
300.635
300.633
300.631
300.629
300.628
300.626
300.625
300.623
300.621
300.62
300.619
300.617
300.616
300.614
300.613
300.612
300.611
300.609
300.608
300.607
300.606
300.605
300.604
300.603
300.602
300.601
300.6
300.599
300.598
300.597
300.597
300.596
300.595
300.594
300.593
300.593
300.592
300.591
300.591
300.59
300.589
300.589
300.588
300.587
300.587
300.586
300.586
300.585
300.585
300.584
300.584
300.583
300.583
300.582
300.582
300.581
300.581
300.58
300.58
300.58
300.579
300.579
300.578
300.578
300.577
300.577
300.577
300.576
300.576
300.575
300.575
300.575
300.574
300.574
300.573
300.573
300.572
300.572
300.572
300.571
300.571
300.57
300.57
300.569
300.569
300.568
300.568
300.567
300.566
300.566
300.565
300.565
300.564
300.563
300.563
300.562
300.561
300.56
300.559
300.559
300.558
300.557
300.556
300.555
300.554
300.553
300.552
300.55
300.549
300.548
300.547
300.545
300.544
300.543
300.541
300.54
300.538
300.536
300.535
300.533
300.531
300.529
300.528
300.526
300.524
300.522
300.52
300.518
300.516
300.513
300.511
300.509
300.507
300.504
300.502
300.499
300.497
300.495
300.492
300.489
300.487
300.484
300.482
300.479
300.476
300.474
300.471
300.468
300.466
300.463
300.46
300.457
300.455
300.452
300.449
300.446
300.443
300.441
300.438
300.435
300.432
300.429
300.427
300.424
300.421
300.418
300.415
300.412
300.409
300.405
300.403
300.4
300.397
300.393
300.39
300.387
300.383
300.38
300.376
300.372
300.368
300.364
300.36
300.356
300.352
300.347
300.343
300.338
300.334
300.329
300.324
300.32
300.317
300.321
300.367
300.618
301.877
307.948
334.245
415.021
560.294
732.176
899.774
1052.46
1191.35
1313.51
1420.03
1515.14
1602.78
1685.36
1763.85
1838.36
1908.54
1973.87
2033.86
2088.16
2136.6
2179.21
2216.15
2247.77
2274.48
2296.77
2315.17
2330.19
2342.34
2352.09
2359.85
2366
2370.84
2374.65
2377.56
2379.81
2381.61
2383.06
2384.23
2385.18
2385.95
2386.58
2387.1
2387.53
2387.89
2388.19
2388.45
2388.66
2388.84
2389
2389.13
2389.24
2389.33
2389.42
2389.49
2389.55
2389.6
2389.64
2389.68
2389.72
2389.75
2389.77
2389.8
2389.82
2389.84
2389.85
2389.87
2389.88
2389.9
2389.91
2389.92
2389.93
2389.94
2389.95
2389.97
2389.98
2389.98
2389.99
2390
2390.01
2390.02
2390.03
2390.04
2390.05
2390.06
2390.06
2390.07
2390.08
2390.09
2390.1
2390.1
2390.11
2390.12
2390.13
2390.13
2390.14
2390.15
2390.16
2390.16
2390.17
2390.18
2390.18
2390.19
2390.19
2390.2
2390.21
2390.21
2390.22
2390.22
2390.23
2390.24
2390.24
2390.25
2390.25
2390.26
2390.27
2390.27
2390.28
2390.28
2390.29
2390.3
2390.3
2390.31
2390.31
2390.32
2390.33
2390.33
2390.34
2390.34
2390.35
2390.36
2390.36
2390.37
2390.37
2390.38
2390.38
2390.39
2390.39
2390.4
2390.41
2390.41
2390.42
2390.42
2390.43
2390.43
2390.44
2390.44
2390.45
2390.45
2390.46
2390.46
2390.47
2390.47
2390.48
2390.48
2390.49
2390.49
2390.5
2390.5
2390.5
2390.51
2390.51
2390.52
2390.52
2390.52
2390.53
2390.53
2390.53
2390.54
2390.54
2390.54
2390.55
2390.55
2390.55
2390.56
2390.56
2390.56
2390.56
2390.56
2390.57
2390.57
2390.57
2390.57
2390.57
2390.57
2390.58
2390.58
2390.58
2390.58
2390.58
2390.58
2390.58
2390.58
2390.58
2390.58
2390.58
2390.58
2390.58
2390.58
2390.58
2390.58
2390.58
2390.57
2390.57
2390.57
2390.57
2390.57
2390.57
2390.56
2390.56
2390.56
2390.56
2390.55
2390.55
2390.55
2390.55
2390.54
2390.54
2390.54
2390.54
2390.53
2390.53
)
;

boundaryField
{
    boundary
    {
        type            empty;
    }
    inlet
    {
        type            fixedValue;
        value           uniform 300;
    }
    outlet
    {
        type            zeroGradient;
    }
}


// ************************************************************************* //
