/*--------------------------------*- C++ -*----------------------------------*\
  =========                 |
  \\      /  F ield         | OpenFOAM: The Open Source CFD Toolbox
   \\    /   O peration     | Website:  https://openfoam.org
    \\  /    A nd           | Version:  7
     \\/     M anipulation  |
\*---------------------------------------------------------------------------*/
FoamFile
{
    version     2.0;
    format      ascii;
    class       volVectorField;
    location    "3e-05";
    object      U;
}
// * * * * * * * * * * * * * * * * * * * * * * * * * * * * * * * * * * * * * //

dimensions      [0 1 -1 0 0 0 0];

internalField   nonuniform List<vector> 
500
(
(2.35295 0 0)
(2.35422 0 0)
(2.35527 0 0)
(2.35806 0 0)
(2.3615 0 0)
(2.36472 0 0)
(2.36793 0 0)
(2.37111 0 0)
(2.37421 0 0)
(2.37723 0 0)
(2.38016 0 0)
(2.38298 0 0)
(2.38568 0 0)
(2.38827 0 0)
(2.39072 0 0)
(2.39304 0 0)
(2.39513 0 0)
(2.39723 0 0)
(2.39903 0 0)
(2.4007 0 0)
(2.40212 0 0)
(2.40342 0 0)
(2.4045 0 0)
(2.40537 0 0)
(2.40603 0 0)
(2.40646 0 0)
(2.40667 0 0)
(2.40665 0 0)
(2.40638 0 0)
(2.40587 0 0)
(2.4051 0 0)
(2.40408 0 0)
(2.4028 0 0)
(2.40125 0 0)
(2.39943 0 0)
(2.39734 0 0)
(2.39497 0 0)
(2.39231 0 0)
(2.38938 0 0)
(2.38615 0 0)
(2.38264 0 0)
(2.37884 0 0)
(2.37474 0 0)
(2.37036 0 0)
(2.36567 0 0)
(2.3607 0 0)
(2.35542 0 0)
(2.34985 0 0)
(2.34399 0 0)
(2.33784 0 0)
(2.33139 0 0)
(2.32465 0 0)
(2.31762 0 0)
(2.3103 0 0)
(2.3027 0 0)
(2.29481 0 0)
(2.28665 0 0)
(2.2782 0 0)
(2.26949 0 0)
(2.26051 0 0)
(2.25126 0 0)
(2.24175 0 0)
(2.23199 0 0)
(2.22197 0 0)
(2.21171 0 0)
(2.20121 0 0)
(2.19047 0 0)
(2.17951 0 0)
(2.16832 0 0)
(2.15691 0 0)
(2.14529 0 0)
(2.13346 0 0)
(2.12144 0 0)
(2.10922 0 0)
(2.09682 0 0)
(2.08424 0 0)
(2.07149 0 0)
(2.05858 0 0)
(2.04551 0 0)
(2.03228 0 0)
(2.01892 0 0)
(2.00542 0 0)
(1.99179 0 0)
(1.97804 0 0)
(1.96418 0 0)
(1.95019 0 0)
(1.93614 0 0)
(1.92194 0 0)
(1.90774 0 0)
(1.8934 0 0)
(1.87899 0 0)
(1.86454 0 0)
(1.85003 0 0)
(1.83547 0 0)
(1.82082 0 0)
(1.80622 0 0)
(1.79155 0 0)
(1.77684 0 0)
(1.76212 0 0)
(1.7474 0 0)
(1.73267 0 0)
(1.71794 0 0)
(1.70321 0 0)
(1.6885 0 0)
(1.6738 0 0)
(1.65916 0 0)
(1.64447 0 0)
(1.62984 0 0)
(1.61535 0 0)
(1.60076 0 0)
(1.58625 0 0)
(1.57184 0 0)
(1.55746 0 0)
(1.54313 0 0)
(1.52886 0 0)
(1.51466 0 0)
(1.50053 0 0)
(1.48647 0 0)
(1.47247 0 0)
(1.45859 0 0)
(1.44472 0 0)
(1.43099 0 0)
(1.41735 0 0)
(1.40374 0 0)
(1.39023 0 0)
(1.37688 0 0)
(1.3636 0 0)
(1.35029 0 0)
(1.33716 0 0)
(1.32418 0 0)
(1.31125 0 0)
(1.29841 0 0)
(1.28568 0 0)
(1.27305 0 0)
(1.26053 0 0)
(1.24807 0 0)
(1.23578 0 0)
(1.22351 0 0)
(1.21141 0 0)
(1.19938 0 0)
(1.18746 0 0)
(1.17564 0 0)
(1.16393 0 0)
(1.15232 0 0)
(1.14081 0 0)
(1.12941 0 0)
(1.11811 0 0)
(1.10691 0 0)
(1.09582 0 0)
(1.08481 0 0)
(1.07394 0 0)
(1.06313 0 0)
(1.05245 0 0)
(1.04187 0 0)
(1.03143 0 0)
(1.02101 0 0)
(1.01069 0 0)
(1.00053 0 0)
(0.990457 0 0)
(0.980472 0 0)
(0.970587 0 0)
(0.960802 0 0)
(0.951115 0 0)
(0.941526 0 0)
(0.932037 0 0)
(0.922631 0 0)
(0.913354 0 0)
(0.904134 0 0)
(0.895018 0 0)
(0.886047 0 0)
(0.877149 0 0)
(0.868344 0 0)
(0.859532 0 0)
(0.850925 0 0)
(0.842414 0 0)
(0.833967 0 0)
(0.825614 0 0)
(0.817355 0 0)
(0.809188 0 0)
(0.801112 0 0)
(0.793125 0 0)
(0.785232 0 0)
(0.77741 0 0)
(0.769733 0 0)
(0.762057 0 0)
(0.75451 0 0)
(0.74715 0 0)
(0.739734 0 0)
(0.732404 0 0)
(0.725235 0 0)
(0.718137 0 0)
(0.711109 0 0)
(0.704165 0 0)
(0.697305 0 0)
(0.690527 0 0)
(0.68383 0 0)
(0.677213 0 0)
(0.670679 0 0)
(0.664208 0 0)
(0.657867 0 0)
(0.651482 0 0)
(0.645352 0 0)
(0.639175 0 0)
(0.633077 0 0)
(0.627087 0 0)
(0.62116 0 0)
(0.615305 0 0)
(0.60952 0 0)
(0.603807 0 0)
(0.598162 0 0)
(0.592586 0 0)
(0.587078 0 0)
(0.581639 0 0)
(0.576265 0 0)
(0.570923 0 0)
(0.56575 0 0)
(0.560505 0 0)
(0.555372 0 0)
(0.550332 0 0)
(0.545328 0 0)
(0.540381 0 0)
(0.535493 0 0)
(0.530661 0 0)
(0.525884 0 0)
(0.521161 0 0)
(0.516491 0 0)
(0.511875 0 0)
(0.507312 0 0)
(0.502744 0 0)
(0.498387 0 0)
(0.493869 0 0)
(0.489485 0 0)
(0.485184 0 0)
(0.48089 0 0)
(0.476636 0 0)
(0.472428 0 0)
(0.468259 0 0)
(0.464128 0 0)
(0.460034 0 0)
(0.455979 0 0)
(0.451974 0 0)
(0.447927 0 0)
(0.444038 0 0)
(0.440145 0 0)
(0.436104 0 0)
(0.432268 0 0)
(0.428482 0 0)
(0.424661 0 0)
(0.42086 0 0)
(0.417086 0 0)
(0.413285 0 0)
(0.409593 0 0)
(0.406014 0 0)
(0.402342 0 0)
(0.398657 0 0)
(0.394927 0 0)
(0.391528 0 0)
(0.387797 0 0)
(0.384171 0 0)
(0.380697 0 0)
(0.377177 0 0)
(0.373655 0 0)
(0.370154 0 0)
(0.366648 0 0)
(0.363191 0 0)
(0.359823 0 0)
(0.35631 0 0)
(0.353107 0 0)
(0.34961 0 0)
(0.346201 0 0)
(0.34292 0 0)
(0.339601 0 0)
(0.336251 0 0)
(0.333084 0 0)
(0.32973 0 0)
(0.326658 0 0)
(0.323439 0 0)
(0.321159 0 0)
(0.325183 0 0)
(0.366647 0 0)
(0.542417 0 0)
(1.00447 0 0)
(1.8893 0 0)
(3.04755 0 0)
(4.2044 0 0)
(5.2164 0 0)
(6.05318 0 0)
(6.71568 0 0)
(7.22577 0 0)
(7.60643 0 0)
(7.8803 0 0)
(8.0679 0 0)
(8.18686 0 0)
(8.2517 0 0)
(8.27362 0 0)
(8.26536 0 0)
(8.23281 0 0)
(8.18573 0 0)
(8.13017 0 0)
(8.07144 0 0)
(8.01362 0 0)
(7.95971 0 0)
(7.91168 0 0)
(7.87063 0 0)
(7.83695 0 0)
(7.81051 0 0)
(7.79077 0 0)
(7.77697 0 0)
(7.7682 0 0)
(7.76342 0 0)
(7.76201 0 0)
(7.76284 0 0)
(7.7653 0 0)
(7.76855 0 0)
(7.77239 0 0)
(7.77645 0 0)
(7.78046 0 0)
(7.78424 0 0)
(7.78764 0 0)
(7.79059 0 0)
(7.79303 0 0)
(7.79492 0 0)
(7.79629 0 0)
(7.79712 0 0)
(7.79745 0 0)
(7.79732 0 0)
(7.79681 0 0)
(7.79591 0 0)
(7.79462 0 0)
(7.79308 0 0)
(7.79126 0 0)
(7.78921 0 0)
(7.78697 0 0)
(7.78456 0 0)
(7.782 0 0)
(7.77932 0 0)
(7.77654 0 0)
(7.77368 0 0)
(7.77073 0 0)
(7.76773 0 0)
(7.76468 0 0)
(7.76158 0 0)
(7.75845 0 0)
(7.75529 0 0)
(7.75211 0 0)
(7.7489 0 0)
(7.74567 0 0)
(7.74243 0 0)
(7.73918 0 0)
(7.73591 0 0)
(7.73264 0 0)
(7.72935 0 0)
(7.72606 0 0)
(7.72276 0 0)
(7.71945 0 0)
(7.71613 0 0)
(7.71281 0 0)
(7.70948 0 0)
(7.70615 0 0)
(7.70281 0 0)
(7.69946 0 0)
(7.69611 0 0)
(7.69276 0 0)
(7.68939 0 0)
(7.68603 0 0)
(7.68265 0 0)
(7.67928 0 0)
(7.67589 0 0)
(7.67251 0 0)
(7.66912 0 0)
(7.6657 0 0)
(7.66229 0 0)
(7.65896 0 0)
(7.65683 0 0)
(7.65345 0 0)
(7.64969 0 0)
(7.64566 0 0)
(7.63958 0 0)
(7.63574 0 0)
(7.6343 0 0)
(7.63103 0 0)
(7.62755 0 0)
(7.62378 0 0)
(7.62022 0 0)
(7.61662 0 0)
(7.61302 0 0)
(7.6094 0 0)
(7.60578 0 0)
(7.60214 0 0)
(7.5985 0 0)
(7.59484 0 0)
(7.59117 0 0)
(7.5875 0 0)
(7.58381 0 0)
(7.58011 0 0)
(7.57639 0 0)
(7.57267 0 0)
(7.56893 0 0)
(7.56517 0 0)
(7.56141 0 0)
(7.55762 0 0)
(7.55383 0 0)
(7.55001 0 0)
(7.54619 0 0)
(7.54234 0 0)
(7.53848 0 0)
(7.5346 0 0)
(7.53071 0 0)
(7.5268 0 0)
(7.52287 0 0)
(7.51892 0 0)
(7.51495 0 0)
(7.51096 0 0)
(7.50695 0 0)
(7.50293 0 0)
(7.49888 0 0)
(7.49481 0 0)
(7.49072 0 0)
(7.48661 0 0)
(7.48248 0 0)
(7.47832 0 0)
(7.47415 0 0)
(7.46995 0 0)
(7.46572 0 0)
(7.46148 0 0)
(7.4572 0 0)
(7.45291 0 0)
(7.44859 0 0)
(7.44424 0 0)
(7.43987 0 0)
(7.43548 0 0)
(7.43106 0 0)
(7.42661 0 0)
(7.42213 0 0)
(7.41763 0 0)
(7.4131 0 0)
(7.40855 0 0)
(7.40396 0 0)
(7.39935 0 0)
(7.39471 0 0)
(7.39004 0 0)
(7.38534 0 0)
(7.38061 0 0)
(7.37586 0 0)
(7.37107 0 0)
(7.36625 0 0)
(7.3614 0 0)
(7.35653 0 0)
(7.35162 0 0)
(7.34668 0 0)
(7.34171 0 0)
(7.3367 0 0)
(7.33167 0 0)
(7.3266 0 0)
(7.32151 0 0)
(7.31637 0 0)
(7.3112 0 0)
(7.306 0 0)
(7.30077 0 0)
(7.29551 0 0)
(7.29021 0 0)
(7.28487 0 0)
(7.2795 0 0)
(7.27409 0 0)
(7.26865 0 0)
(7.26318 0 0)
(7.25767 0 0)
(7.25212 0 0)
(7.24653 0 0)
(7.24091 0 0)
(7.23525 0 0)
(7.22955 0 0)
(7.22383 0 0)
(7.21806 0 0)
(7.21225 0 0)
(7.20639 0 0)
(7.20051 0 0)
(7.19459 0 0)
(7.18863 0 0)
(7.18261 0 0)
(7.17655 0 0)
(7.17047 0 0)
(7.16436 0 0)
(7.1582 0 0)
(7.15198 0 0)
(7.14573 0 0)
(7.13943 0 0)
(7.1331 0 0)
(7.12672 0 0)
(7.1203 0 0)
(7.11383 0 0)
(7.10732 0 0)
(7.10076 0 0)
(7.09416 0 0)
(7.08751 0 0)
(7.08084 0 0)
(7.07414 0 0)
(7.06734 0 0)
(7.05955 0 0)
(7.05085 0 0)
)
;

boundaryField
{
    boundary
    {
        type            empty;
    }
    inlet
    {
        type            fixedValue;
        value           uniform (2.34893 0 0);
    }
    outlet
    {
        type            zeroGradient;
    }
}


// ************************************************************************* //
