/*--------------------------------*- C++ -*----------------------------------*\
  =========                 |
  \\      /  F ield         | OpenFOAM: The Open Source CFD Toolbox
   \\    /   O peration     | Website:  https://openfoam.org
    \\  /    A nd           | Version:  7
     \\/     M anipulation  |
\*---------------------------------------------------------------------------*/
FoamFile
{
    version     2.0;
    format      ascii;
    class       volScalarField;
    location    "0.00101";
    object      H2;
}
// * * * * * * * * * * * * * * * * * * * * * * * * * * * * * * * * * * * * * //

dimensions      [0 0 0 0 0 0 0];

internalField   nonuniform List<scalar> 
500
(
0.0285116
0.0285116
0.0285116
0.0285116
0.0285116
0.0285116
0.0285116
0.0285116
0.0285116
0.0285116
0.0285116
0.0285116
0.0285116
0.0285116
0.0285116
0.0285116
0.0285116
0.0285116
0.0285116
0.0285116
0.0285116
0.0285116
0.0285116
0.0285116
0.0285116
0.0285116
0.0285116
0.0285116
0.0285116
0.0285116
0.0285116
0.0285116
0.0285116
0.0285116
0.0285116
0.0285116
0.0285116
0.0285116
0.0285116
0.0285116
0.0285116
0.0285116
0.0285116
0.0285116
0.0285116
0.0285116
0.0285116
0.0285116
0.0285116
0.0285116
0.0285116
0.0285116
0.0285116
0.0285116
0.0285116
0.0285116
0.0285116
0.0285116
0.0285116
0.0285116
0.0285116
0.0285116
0.0285116
0.0285116
0.0285116
0.0285116
0.0285116
0.0285116
0.0285116
0.0285116
0.0285116
0.0285116
0.0285116
0.0285116
0.0285116
0.0285116
0.0285116
0.0285116
0.0285116
0.0285116
0.0285116
0.0285116
0.0285116
0.0285116
0.0285116
0.0285116
0.0285116
0.0285116
0.0285116
0.0285116
0.0285116
0.0285116
0.0285116
0.0285116
0.0285116
0.0285116
0.0285116
0.0285116
0.0285116
0.0285116
0.0285116
0.0285116
0.0285116
0.0285116
0.0285116
0.0285116
0.0285116
0.0285116
0.0285116
0.0285116
0.0285116
0.0285116
0.0285116
0.0285116
0.0285116
0.0285116
0.0285116
0.0285116
0.0285116
0.0285116
0.0285116
0.0285116
0.0285116
0.0285116
0.0285116
0.0285116
0.0285116
0.0285116
0.0285116
0.0285116
0.0285116
0.0285116
0.0285116
0.0285116
0.0285116
0.0285116
0.0285116
0.0285116
0.0285116
0.0285116
0.0285116
0.0285116
0.0285116
0.0285116
0.0285116
0.0285116
0.0285116
0.0285116
0.0285116
0.0285116
0.0285116
0.0285116
0.0285116
0.0285116
0.0285116
0.0285116
0.0285116
0.0285116
0.0285116
0.0285116
0.0285116
0.0285116
0.0285116
0.0285116
0.0285116
0.0285116
0.0285116
0.0285116
0.0285116
0.0285116
0.0285116
0.0285116
0.0285116
0.0285116
0.0285116
0.0285116
0.0285116
0.0285116
0.0285116
0.0285116
0.0285116
0.0285116
0.0285116
0.0285116
0.0285116
0.0285116
0.0285116
0.0285116
0.0285116
0.0285116
0.0285116
0.0285116
0.0285116
0.0285116
0.0285116
0.0285116
0.0285116
0.0285116
0.0285116
0.0285116
0.0285116
0.0285116
0.0285116
0.0285116
0.0285116
0.0285116
0.0285116
0.0285116
0.0285116
0.0285116
0.0285116
0.0285116
0.0285116
0.0285116
0.0285116
0.0285116
0.0285116
0.0285116
0.0285116
0.0285116
0.0285116
0.0285116
0.0285116
0.0285116
0.0285116
0.0285116
0.0285116
0.0285116
0.0285116
0.0285116
0.0285116
0.0285116
0.0285116
0.0285116
0.0285116
0.0285116
0.0285116
0.0285116
0.0285116
0.0285116
0.0285116
0.0285116
0.0285116
0.0285116
0.0285116
0.0285116
0.0285116
0.0285116
0.0285116
0.0285116
0.0285116
0.0285116
0.0285116
0.0285116
0.0285116
0.0285116
0.0285116
0.0285116
0.0285116
0.0285116
0.0285115
0.0285115
0.0285114
0.0285112
0.0285109
0.0285101
0.0285086
0.0285053
0.0284984
0.0284841
0.0284543
0.0283923
0.0282643
0.0280033
0.0274903
0.0265554
0.0250415
0.0229339
0.0204003
0.0175516
0.0144982
0.011525
0.00900129
0.00712668
0.00576114
0.00495114
0.00444807
0.00413848
0.00394662
0.00382489
0.00374432
0.00368769
0.00364486
0.00360992
0.00357948
0.00355161
0.00352521
0.0034997
0.00347475
0.00345021
0.003426
0.0034021
0.0033785
0.00335521
0.00333225
0.00330962
0.00328733
0.00326539
0.0032438
0.00322256
0.00320168
0.00318116
0.00316159
0.0031428
0.00312426
0.00310596
0.00308791
0.00307009
0.00305251
0.00303515
0.00301803
0.00300113
0.00298445
0.00296799
0.00295174
0.00293571
0.00291989
0.00290427
0.00288886
0.00287365
0.00285864
0.00284383
0.00282921
0.00281477
0.00280053
0.00278647
0.00277259
0.00275889
0.00274537
0.00273202
0.00271884
0.00270583
0.00269298
0.00268029
0.00266776
0.00265538
0.00264316
0.00263109
0.00261916
0.00260737
0.00259572
0.00258421
0.00257284
0.00256159
0.00255047
0.00253948
0.00252861
0.00251786
0.00250723
0.00249671
0.00248631
0.00247601
0.00246583
0.00245575
0.00244577
0.0024359
0.00242612
0.00241645
0.00240688
0.0023974
0.00238802
0.00237874
0.00236955
0.00236046
0.00235147
0.00234258
0.00233374
0.00232493
0.0023162
0.00230755
0.00229898
0.00229049
0.00228207
0.00227373
0.00226546
0.00225727
0.00224915
0.00224109
0.00223311
0.00222519
0.00221734
0.00220956
0.00220185
0.00219419
0.0021866
0.00217908
0.00217161
0.0021642
0.00215686
0.00214957
0.00214234
0.00213517
0.00212805
0.00212099
0.00211398
0.00210703
0.00210012
0.00209328
0.00208648
0.00207973
0.00207304
0.00206639
0.00205979
0.00205324
0.00204674
0.00204029
0.00203389
0.00202753
0.00202122
0.00201495
0.00200873
0.00200255
0.00199642
0.00199034
0.00198429
0.0019783
0.00197234
0.00196643
0.00196056
0.00195474
0.00194896
0.00194322
0.00193752
0.00193187
0.00192626
0.00192069
0.00191516
0.00190967
0.00190422
0.00189882
0.00189345
0.00188812
0.00188284
0.00187759
0.00187239
0.00186722
0.00186209
0.001857
0.00185195
0.00184693
0.00184196
0.00183702
0.00183211
0.00182725
0.00182242
0.00181762
0.00181286
0.00180814
0.00180345
0.00179879
0.00179417
0.00178958
0.00178502
0.0017805
0.00177601
0.00177156
0.00176713
0.00176274
0.00175837
0.00175404
0.00174974
0.00174547
0.00174123
0.00173702
0.00173285
0.0017287
0.00172458
0.00172049
0.00171644
0.00171241
0.00170841
0.00170445
0.00170052
0.00169663
0.00169277
0.00168895
0.00168517
0.00168144
0.00167777
0.00167416
0.00167063
0.0016672
0.00166388
0.00166072
0.00165774
0.00165502
0.0016526
0.0016506
0.00164911
0.00164827
)
;

boundaryField
{
    boundary
    {
        type            empty;
    }
    inlet
    {
        type            fixedValue;
        value           uniform 0.0285116;
    }
    outlet
    {
        type            zeroGradient;
    }
}


// ************************************************************************* //
