/*--------------------------------*- C++ -*----------------------------------*\
  =========                 |
  \\      /  F ield         | OpenFOAM: The Open Source CFD Toolbox
   \\    /   O peration     | Website:  https://openfoam.org
    \\  /    A nd           | Version:  7
     \\/     M anipulation  |
\*---------------------------------------------------------------------------*/
FoamFile
{
    version     2.0;
    format      ascii;
    class       volScalarField;
    location    "0.00101";
    object      H2O;
}
// * * * * * * * * * * * * * * * * * * * * * * * * * * * * * * * * * * * * * //

dimensions      [0 0 0 0 0 0 0];

internalField   nonuniform List<scalar> 
500
(
7.88439e-48
2.27837e-47
4.09914e-47
6.14366e-47
8.3397e-47
1.06388e-46
1.30082e-46
1.5426e-46
1.78772e-46
2.03515e-46
2.2842e-46
2.53435e-46
2.78524e-46
3.0366e-46
3.28821e-46
3.53989e-46
3.79149e-46
4.04286e-46
4.29391e-46
4.54455e-46
4.79471e-46
5.04436e-46
5.29352e-46
5.54224e-46
5.79061e-46
6.03877e-46
6.28691e-46
6.53524e-46
6.78401e-46
7.03349e-46
7.28398e-46
7.53578e-46
7.78922e-46
8.04459e-46
8.30223e-46
8.56244e-46
8.82556e-46
9.0919e-46
9.36182e-46
9.6357e-46
9.91394e-46
1.0197e-45
1.04854e-45
1.07797e-45
1.10805e-45
1.13887e-45
1.17049e-45
1.20301e-45
1.23652e-45
1.27113e-45
1.30692e-45
1.34402e-45
1.38253e-45
1.42254e-45
1.46415e-45
1.50744e-45
1.55248e-45
1.59933e-45
1.648e-45
1.69851e-45
1.75082e-45
1.80487e-45
1.86059e-45
1.91783e-45
1.97645e-45
2.03625e-45
2.09701e-45
2.15848e-45
2.22037e-45
2.28239e-45
2.34424e-45
2.40558e-45
2.4661e-45
2.52547e-45
2.5834e-45
2.63959e-45
2.69378e-45
2.74573e-45
2.79522e-45
2.8421e-45
2.88622e-45
2.92749e-45
2.96587e-45
3.00132e-45
3.03388e-45
3.06358e-45
3.09051e-45
3.11478e-45
3.13652e-45
3.15586e-45
3.17296e-45
3.188e-45
3.20113e-45
3.21254e-45
3.22238e-45
3.23082e-45
3.23802e-45
3.24412e-45
3.24926e-45
3.25357e-45
3.25716e-45
3.26013e-45
3.26258e-45
3.26458e-45
3.26622e-45
3.26754e-45
3.26861e-45
3.26948e-45
3.27017e-45
3.27072e-45
3.27116e-45
3.2715e-45
3.27178e-45
3.27201e-45
3.27219e-45
3.27233e-45
3.27245e-45
3.27255e-45
3.27264e-45
3.27271e-45
3.27276e-45
3.27279e-45
3.2727e-45
3.27223e-45
3.27037e-45
3.26693e-45
3.26698e-45
3.26704e-45
3.2671e-45
3.26716e-45
3.26723e-45
3.26729e-45
3.26736e-45
3.26744e-45
3.26752e-45
3.2676e-45
3.26769e-45
3.26778e-45
3.26788e-45
3.26799e-45
3.2681e-45
3.26821e-45
3.26834e-45
3.26847e-45
3.2686e-45
3.26874e-45
3.26888e-45
3.26903e-45
3.26918e-45
3.26934e-45
3.2695e-45
3.26967e-45
3.26985e-45
3.27003e-45
3.27022e-45
3.27043e-45
3.27065e-45
3.27088e-45
3.27113e-45
3.27141e-45
3.2717e-45
3.27202e-45
3.27236e-45
3.27272e-45
3.27311e-45
3.27352e-45
3.27395e-45
3.2744e-45
3.27486e-45
3.27533e-45
3.2758e-45
3.27628e-45
3.27676e-45
3.27722e-45
3.27768e-45
3.27812e-45
3.27854e-45
3.27895e-45
3.27934e-45
3.2797e-45
3.28005e-45
3.28038e-45
3.28068e-45
3.28098e-45
3.28126e-45
3.28153e-45
3.28179e-45
3.28205e-45
3.28231e-45
3.28257e-45
3.28283e-45
3.28311e-45
3.28342e-45
3.28385e-45
3.2846e-45
3.28646e-45
3.29189e-45
3.30902e-45
3.36432e-45
3.54385e-45
4.12631e-45
6.01234e-45
1.21049e-44
3.17433e-44
9.4926e-44
2.97917e-43
9.49516e-43
3.04073e-42
9.7562e-42
3.13547e-41
1.01004e-40
3.26485e-40
1.06036e-39
3.4655e-39
1.14157e-38
3.7965e-38
1.27676e-37
4.34811e-37
1.50123e-36
5.25844e-36
1.86909e-35
6.7398e-35
2.46371e-34
9.11972e-34
3.41382e-33
1.29043e-32
4.91834e-32
1.88751e-31
7.28429e-31
2.82373e-30
1.09844e-29
4.28442e-29
1.67447e-28
6.55375e-28
2.56768e-27
1.00665e-26
3.94803e-26
1.54869e-25
6.07529e-25
2.38311e-24
9.34704e-24
3.66562e-23
1.43737e-22
5.63574e-22
2.20961e-21
8.66333e-21
3.39695e-20
1.33216e-19
5.22533e-19
2.05018e-18
8.04664e-18
3.17721e-17
1.25132e-16
4.92048e-16
1.93474e-15
7.60959e-15
2.99401e-14
1.1784e-13
4.63952e-13
1.82716e-12
7.19764e-12
2.83595e-11
1.1176e-10
4.4049e-10
1.7363e-09
6.84416e-09
2.69767e-08
1.06311e-07
4.18809e-07
1.64886e-06
6.48414e-06
2.54353e-05
9.91496e-05
0.00037997
0.00139101
0.00455946
0.0121571
0.0250665
0.0418238
0.0621182
0.0862386
0.11224
0.136082
0.154614
0.170705
0.180174
0.186533
0.19085
0.193867
0.196067
0.197751
0.199106
0.200246
0.201239
0.20213
0.202946
0.203703
0.204413
0.205083
0.20572
0.206327
0.206908
0.207464
0.207997
0.20851
0.209003
0.209478
0.209936
0.210379
0.210806
0.211218
0.211617
0.21199
0.212346
0.212693
0.213032
0.213362
0.213684
0.213999
0.214307
0.214608
0.214902
0.21519
0.215471
0.215747
0.216017
0.216282
0.216542
0.216796
0.217046
0.217291
0.217532
0.217768
0.218
0.218228
0.218452
0.218673
0.21889
0.219103
0.219314
0.219521
0.219724
0.219925
0.220123
0.220318
0.22051
0.220699
0.220886
0.22107
0.221251
0.22143
0.221607
0.221781
0.221953
0.222123
0.222291
0.222456
0.222619
0.22278
0.222939
0.223097
0.223252
0.223405
0.223556
0.223706
0.223853
0.223999
0.224143
0.224286
0.224426
0.224565
0.224703
0.224839
0.224973
0.225105
0.225237
0.225366
0.225495
0.225622
0.225747
0.225871
0.225994
0.226116
0.226236
0.226355
0.226472
0.226589
0.226704
0.226818
0.226931
0.227043
0.227154
0.227263
0.227372
0.227479
0.227585
0.227691
0.227795
0.227898
0.228
0.228102
0.228202
0.228301
0.2284
0.228497
0.228593
0.228689
0.228784
0.228877
0.22897
0.229062
0.229153
0.229244
0.229333
0.229422
0.22951
0.229597
0.229683
0.229768
0.229853
0.229937
0.23002
0.230103
0.230185
0.230266
0.230346
0.230426
0.230505
0.230583
0.230661
0.230738
0.230815
0.230891
0.230966
0.231041
0.231115
0.231189
0.231262
0.231334
0.231406
0.231477
0.231548
0.231619
0.231689
0.231758
0.231827
0.231895
0.231963
0.232031
0.232097
0.232164
0.23223
0.232295
0.232361
0.232425
0.232489
0.232553
0.232616
0.232679
0.232741
0.232803
0.232865
0.232926
0.232987
0.233047
0.233106
0.233166
0.233225
0.233283
0.233341
0.233399
0.233456
0.233513
0.233569
0.233625
0.233681
0.233736
0.233791
0.233845
0.233899
0.233953
0.234006
0.234059
0.234111
0.234163
0.234215
0.234266
0.234317
0.234368
0.234418
0.234467
0.234516
0.234565
0.234613
0.23466
0.234705
0.234749
0.234789
0.234823
0.234846
)
;

boundaryField
{
    boundary
    {
        type            empty;
    }
    inlet
    {
        type            fixedValue;
        value           uniform 0;
    }
    outlet
    {
        type            zeroGradient;
    }
}


// ************************************************************************* //
