/*--------------------------------*- C++ -*----------------------------------*\
  =========                 |
  \\      /  F ield         | OpenFOAM: The Open Source CFD Toolbox
   \\    /   O peration     | Website:  https://openfoam.org
    \\  /    A nd           | Version:  7
     \\/     M anipulation  |
\*---------------------------------------------------------------------------*/
FoamFile
{
    version     2.0;
    format      ascii;
    class       volScalarField;
    location    "0.00101";
    object      H2O2;
}
// * * * * * * * * * * * * * * * * * * * * * * * * * * * * * * * * * * * * * //

dimensions      [0 0 0 0 0 0 0];

internalField   nonuniform List<scalar> 
500
(
1.99309e-52
6.40351e-52
1.27306e-51
2.09757e-51
3.11401e-51
4.3225e-51
5.72312e-51
7.31589e-51
9.10074e-51
1.10775e-50
1.32458e-50
1.56052e-50
1.81552e-50
2.08949e-50
2.38233e-50
2.69394e-50
3.0242e-50
3.37297e-50
3.74012e-50
4.12554e-50
4.52912e-50
4.95081e-50
5.39058e-50
5.84846e-50
6.32456e-50
6.81904e-50
7.33213e-50
7.86416e-50
8.41548e-50
8.98655e-50
9.57787e-50
1.019e-49
1.08235e-49
1.1479e-49
1.21572e-49
1.28589e-49
1.35847e-49
1.43357e-49
1.51127e-49
1.59167e-49
1.67489e-49
1.76107e-49
1.85036e-49
1.94292e-49
2.03896e-49
2.13867e-49
2.2423e-49
2.3501e-49
2.46236e-49
2.57936e-49
2.70141e-49
2.82881e-49
2.96187e-49
3.10087e-49
3.24608e-49
3.39773e-49
3.55599e-49
3.72097e-49
3.89273e-49
4.07121e-49
4.25626e-49
4.44765e-49
4.64499e-49
4.8478e-49
5.05548e-49
5.26731e-49
5.48245e-49
5.69996e-49
5.91884e-49
6.13798e-49
6.35626e-49
6.57249e-49
6.78552e-49
6.99419e-49
7.19741e-49
7.39412e-49
7.5834e-49
7.76439e-49
7.93639e-49
8.09882e-49
8.25123e-49
8.39333e-49
8.52497e-49
8.64613e-49
8.75693e-49
8.8576e-49
8.94848e-49
9.02999e-49
9.10263e-49
9.16695e-49
9.22353e-49
9.273e-49
9.31597e-49
9.35307e-49
9.3849e-49
9.41203e-49
9.43503e-49
9.45439e-49
9.47061e-49
9.4841e-49
9.49527e-49
9.50446e-49
9.51198e-49
9.51809e-49
9.52305e-49
9.52704e-49
9.53024e-49
9.53279e-49
9.53482e-49
9.53644e-49
9.53772e-49
9.53873e-49
9.53953e-49
9.54017e-49
9.54069e-49
9.54111e-49
9.54145e-49
9.54174e-49
9.54198e-49
9.54219e-49
9.54235e-49
9.54238e-49
9.54192e-49
9.5396e-49
9.53e-49
9.511e-49
9.51118e-49
9.51137e-49
9.51156e-49
9.51175e-49
9.51195e-49
9.51217e-49
9.51239e-49
9.51262e-49
9.51287e-49
9.51314e-49
9.51342e-49
9.51371e-49
9.51402e-49
9.51435e-49
9.5147e-49
9.51506e-49
9.51544e-49
9.51584e-49
9.51626e-49
9.51669e-49
9.51713e-49
9.51759e-49
9.51807e-49
9.51856e-49
9.51906e-49
9.51959e-49
9.52014e-49
9.52071e-49
9.52132e-49
9.52197e-49
9.52268e-49
9.52344e-49
9.52426e-49
9.52516e-49
9.52614e-49
9.52721e-49
9.52837e-49
9.52962e-49
9.53096e-49
9.53238e-49
9.53388e-49
9.53544e-49
9.53706e-49
9.53871e-49
9.54037e-49
9.54204e-49
9.54369e-49
9.5453e-49
9.54686e-49
9.54836e-49
9.54978e-49
9.55112e-49
9.55238e-49
9.55356e-49
9.55467e-49
9.55571e-49
9.5567e-49
9.55765e-49
9.55857e-49
9.55949e-49
9.56041e-49
9.56136e-49
9.56234e-49
9.56338e-49
9.56447e-49
9.56562e-49
9.56685e-49
9.56813e-49
9.56949e-49
9.5709e-49
9.57239e-49
9.57402e-49
9.57614e-49
9.58034e-49
9.59392e-49
9.64962e-49
9.89423e-49
1.09825e-48
1.58248e-48
3.731e-48
1.32325e-47
5.51148e-47
2.39151e-46
1.04543e-45
4.56795e-45
1.9917e-44
8.66353e-44
3.75985e-43
1.62823e-42
7.0372e-42
3.03596e-41
1.30759e-40
5.6233e-40
2.41499e-39
1.03586e-38
4.43808e-38
1.89953e-37
8.12252e-37
3.47025e-36
1.48144e-35
6.31944e-35
2.69377e-34
1.14746e-33
4.88442e-33
2.07774e-32
8.83221e-32
3.75185e-31
1.59264e-30
6.75594e-30
2.86386e-29
1.21317e-28
5.1358e-28
2.17284e-27
9.1876e-27
3.88295e-26
1.64037e-25
6.92756e-25
2.92496e-24
1.23482e-23
5.21287e-23
2.2008e-22
9.29295e-22
3.92494e-21
1.65826e-20
7.0088e-20
2.98126e-19
1.26449e-18
5.35513e-18
2.26798e-17
9.60866e-17
4.07251e-16
1.72676e-15
7.32418e-15
3.10765e-14
1.31898e-13
5.5996e-13
2.3778e-12
1.00987e-11
4.28946e-11
1.82199e-10
7.7384e-10
3.28594e-09
1.39473e-08
5.91542e-08
2.50407e-07
1.05367e-06
4.34325e-06
1.66966e-05
5.19946e-05
0.000101088
0.000124823
0.000101107
5.34877e-05
2.21867e-05
9.17273e-06
5.12931e-06
4.4222e-06
4.79576e-06
5.51268e-06
6.06633e-06
6.45663e-06
6.68116e-06
6.76961e-06
6.75714e-06
6.67423e-06
6.54449e-06
6.38509e-06
6.20817e-06
6.02221e-06
5.83294e-06
5.64427e-06
5.45879e-06
5.27818e-06
5.10349e-06
4.93534e-06
4.77404e-06
4.61969e-06
4.47224e-06
4.33156e-06
4.19744e-06
4.06964e-06
3.9479e-06
3.83194e-06
3.72151e-06
3.61637e-06
3.51633e-06
3.42408e-06
3.33727e-06
3.25391e-06
3.17383e-06
3.09687e-06
3.02287e-06
2.95169e-06
2.8832e-06
2.81725e-06
2.75374e-06
2.69255e-06
2.63356e-06
2.57667e-06
2.52179e-06
2.46881e-06
2.41766e-06
2.36824e-06
2.32048e-06
2.2743e-06
2.22963e-06
2.18641e-06
2.14457e-06
2.10404e-06
2.06478e-06
2.02672e-06
1.98982e-06
1.95403e-06
1.9193e-06
1.88559e-06
1.85286e-06
1.82106e-06
1.79016e-06
1.76013e-06
1.73093e-06
1.70253e-06
1.67489e-06
1.648e-06
1.62182e-06
1.59633e-06
1.57149e-06
1.5473e-06
1.52373e-06
1.50074e-06
1.47834e-06
1.45648e-06
1.43516e-06
1.41436e-06
1.39406e-06
1.37425e-06
1.3549e-06
1.33601e-06
1.31755e-06
1.29952e-06
1.2819e-06
1.26468e-06
1.24784e-06
1.23139e-06
1.21529e-06
1.19955e-06
1.18415e-06
1.16909e-06
1.15436e-06
1.13995e-06
1.12587e-06
1.11207e-06
1.0985e-06
1.0852e-06
1.07217e-06
1.0594e-06
1.04689e-06
1.03462e-06
1.02259e-06
1.01079e-06
9.99226e-07
9.87879e-07
9.76747e-07
9.65824e-07
9.55105e-07
9.44585e-07
9.34258e-07
9.24121e-07
9.14167e-07
9.04392e-07
8.94793e-07
8.85365e-07
8.76103e-07
8.67003e-07
8.58063e-07
8.49278e-07
8.40644e-07
8.32157e-07
8.23816e-07
8.15615e-07
8.07553e-07
7.99625e-07
7.9183e-07
7.84163e-07
7.76622e-07
7.69204e-07
7.61906e-07
7.54727e-07
7.47663e-07
7.40711e-07
7.3387e-07
7.27136e-07
7.20509e-07
7.13984e-07
7.0756e-07
7.01235e-07
6.95007e-07
6.88874e-07
6.82833e-07
6.76884e-07
6.71022e-07
6.65248e-07
6.59559e-07
6.53953e-07
6.48429e-07
6.42985e-07
6.37619e-07
6.32329e-07
6.27115e-07
6.21974e-07
6.16905e-07
6.11907e-07
6.06978e-07
6.02117e-07
5.97323e-07
5.92594e-07
5.87928e-07
5.83326e-07
5.78785e-07
5.74305e-07
5.69884e-07
5.65521e-07
5.61216e-07
5.56967e-07
5.52773e-07
5.48633e-07
5.44547e-07
5.40513e-07
5.36531e-07
5.326e-07
5.28719e-07
5.24887e-07
5.21103e-07
5.17367e-07
5.13678e-07
5.10035e-07
5.06437e-07
5.02883e-07
4.99374e-07
4.95908e-07
4.92485e-07
4.89104e-07
4.85764e-07
4.82466e-07
4.79207e-07
4.75988e-07
4.72808e-07
4.69666e-07
4.66562e-07
4.63496e-07
4.60467e-07
4.57474e-07
4.54516e-07
4.51595e-07
4.48708e-07
4.45856e-07
4.43038e-07
4.40254e-07
4.37504e-07
4.34787e-07
4.32104e-07
4.29455e-07
4.2684e-07
4.24259e-07
4.21715e-07
4.19211e-07
4.16748e-07
4.14332e-07
4.11972e-07
4.0968e-07
4.07479e-07
4.05403e-07
4.03518e-07
4.01941e-07
4.00908e-07
)
;

boundaryField
{
    boundary
    {
        type            empty;
    }
    inlet
    {
        type            fixedValue;
        value           uniform 0;
    }
    outlet
    {
        type            zeroGradient;
    }
}


// ************************************************************************* //
