/*--------------------------------*- C++ -*----------------------------------*\
  =========                 |
  \\      /  F ield         | OpenFOAM: The Open Source CFD Toolbox
   \\    /   O peration     | Website:  https://openfoam.org
    \\  /    A nd           | Version:  7
     \\/     M anipulation  |
\*---------------------------------------------------------------------------*/
FoamFile
{
    version     2.0;
    format      ascii;
    class       volScalarField;
    location    "0.00101";
    object      HO2;
}
// * * * * * * * * * * * * * * * * * * * * * * * * * * * * * * * * * * * * * //

dimensions      [0 0 0 0 0 0 0];

internalField   nonuniform List<scalar> 
500
(
5.59357e-38
1.27302e-37
1.98932e-37
2.70627e-37
3.42347e-37
4.14089e-37
4.85854e-37
5.57643e-37
6.29449e-37
7.01265e-37
7.73081e-37
8.44882e-37
9.16653e-37
9.88378e-37
1.06004e-36
1.13161e-36
1.20307e-36
1.2744e-36
1.34559e-36
1.4166e-36
1.48744e-36
1.55809e-36
1.62856e-36
1.69887e-36
1.76903e-36
1.83907e-36
1.90904e-36
1.97899e-36
2.04898e-36
2.11907e-36
2.18932e-36
2.25981e-36
2.3306e-36
2.40177e-36
2.47338e-36
2.54551e-36
2.61821e-36
2.69157e-36
2.76565e-36
2.84052e-36
2.91628e-36
2.993e-36
3.0708e-36
3.14978e-36
3.23008e-36
3.31185e-36
3.39524e-36
3.48042e-36
3.56759e-36
3.65694e-36
3.74868e-36
3.84301e-36
3.94013e-36
4.04023e-36
4.14348e-36
4.25002e-36
4.35996e-36
4.47337e-36
4.59027e-36
4.7106e-36
4.83427e-36
4.9611e-36
5.09085e-36
5.22321e-36
5.35778e-36
5.49412e-36
5.63171e-36
5.76998e-36
5.90831e-36
6.04606e-36
6.18255e-36
6.31712e-36
6.44908e-36
6.57778e-36
6.70262e-36
6.82301e-36
6.93845e-36
7.04849e-36
7.15276e-36
7.25097e-36
7.34292e-36
7.42847e-36
7.50758e-36
7.58029e-36
7.6467e-36
7.70699e-36
7.76138e-36
7.81014e-36
7.85358e-36
7.89206e-36
7.92592e-36
7.95553e-36
7.98128e-36
8.00353e-36
8.02265e-36
8.03897e-36
8.05282e-36
8.0645e-36
8.07431e-36
8.08248e-36
8.08927e-36
8.09486e-36
8.09945e-36
8.10319e-36
8.10623e-36
8.10869e-36
8.11067e-36
8.11225e-36
8.11351e-36
8.11452e-36
8.11532e-36
8.11596e-36
8.11646e-36
8.11687e-36
8.11719e-36
8.11745e-36
8.11767e-36
8.11786e-36
8.11801e-36
8.11814e-36
8.11825e-36
8.1183e-36
8.11813e-36
8.11717e-36
8.11308e-36
8.10501e-36
8.10512e-36
8.10523e-36
8.10535e-36
8.10547e-36
8.10559e-36
8.10572e-36
8.10586e-36
8.106e-36
8.10615e-36
8.10632e-36
8.10649e-36
8.10667e-36
8.10686e-36
8.10707e-36
8.10728e-36
8.10751e-36
8.10775e-36
8.108e-36
8.10825e-36
8.10852e-36
8.1088e-36
8.10908e-36
8.10937e-36
8.10966e-36
8.10996e-36
8.11027e-36
8.11059e-36
8.11091e-36
8.11126e-36
8.11161e-36
8.11199e-36
8.11239e-36
8.11283e-36
8.11329e-36
8.11379e-36
8.11433e-36
8.11492e-36
8.11554e-36
8.1162e-36
8.11691e-36
8.11764e-36
8.11841e-36
8.1192e-36
8.12e-36
8.12082e-36
8.12163e-36
8.12244e-36
8.12323e-36
8.12399e-36
8.12473e-36
8.12544e-36
8.12612e-36
8.12676e-36
8.12737e-36
8.12795e-36
8.12851e-36
8.12904e-36
8.12957e-36
8.13008e-36
8.1306e-36
8.13113e-36
8.13168e-36
8.13225e-36
8.13284e-36
8.13346e-36
8.13412e-36
8.1348e-36
8.13552e-36
8.13627e-36
8.13705e-36
8.13785e-36
8.13866e-36
8.13949e-36
8.14032e-36
8.14116e-36
8.14199e-36
8.14281e-36
8.14361e-36
8.14439e-36
8.14515e-36
8.14587e-36
8.14657e-36
8.14725e-36
8.14793e-36
8.14871e-36
8.14987e-36
8.15233e-36
8.15892e-36
8.17852e-36
8.23869e-36
8.42507e-36
9.00346e-36
1.07977e-35
1.63593e-35
3.35855e-35
8.69094e-35
2.51915e-34
7.62478e-34
2.34279e-33
7.23818e-33
2.24244e-32
6.96389e-32
2.1691e-31
6.78386e-31
2.13352e-30
6.76037e-30
2.16325e-29
7.00952e-29
2.30681e-28
7.73396e-28
2.64888e-27
9.28789e-27
3.33772e-26
1.22922e-25
4.63349e-25
1.78378e-24
6.99401e-24
2.78472e-23
1.12272e-22
4.57174e-22
1.87619e-21
7.74626e-21
3.21307e-20
1.3375e-19
5.58282e-19
2.34919e-18
9.86849e-18
4.14231e-17
1.7396e-16
7.31005e-16
3.07331e-15
1.29255e-14
5.43736e-14
2.2876e-13
9.62438e-13
4.04873e-12
1.70281e-11
7.15906e-11
3.00829e-10
1.26322e-09
5.29959e-09
2.22072e-08
9.28664e-08
3.869e-07
1.59758e-06
6.47728e-06
2.52383e-05
8.98069e-05
0.000259561
0.000477981
0.000513209
0.000428476
0.000316129
0.000223324
0.000156526
0.000109477
7.67963e-05
5.50594e-05
3.83577e-05
2.91528e-05
2.32345e-05
1.93359e-05
1.66773e-05
1.47876e-05
1.33852e-05
1.23012e-05
1.14327e-05
1.07159e-05
1.01096e-05
9.58699e-06
9.12953e-06
8.72426e-06
8.36172e-06
8.03483e-06
7.73814e-06
7.46734e-06
7.219e-06
6.99031e-06
6.77893e-06
6.58293e-06
6.40064e-06
6.23067e-06
6.07181e-06
5.92306e-06
5.78354e-06
5.65258e-06
5.53328e-06
5.42209e-06
5.31628e-06
5.21549e-06
5.11935e-06
5.02757e-06
4.93984e-06
4.85591e-06
4.77555e-06
4.69853e-06
4.62465e-06
4.55373e-06
4.4856e-06
4.42009e-06
4.35706e-06
4.29638e-06
4.23791e-06
4.18155e-06
4.12717e-06
4.07467e-06
4.02397e-06
3.97496e-06
3.92757e-06
3.88172e-06
3.83733e-06
3.79433e-06
3.75267e-06
3.71227e-06
3.67309e-06
3.63507e-06
3.59816e-06
3.5623e-06
3.52747e-06
3.49362e-06
3.4607e-06
3.42868e-06
3.39753e-06
3.36721e-06
3.33769e-06
3.30895e-06
3.28095e-06
3.25367e-06
3.22709e-06
3.20117e-06
3.1759e-06
3.15126e-06
3.12722e-06
3.10377e-06
3.08089e-06
3.05855e-06
3.03675e-06
3.01546e-06
2.99467e-06
2.97436e-06
2.95452e-06
2.93513e-06
2.91618e-06
2.89766e-06
2.87956e-06
2.86185e-06
2.84454e-06
2.8276e-06
2.81104e-06
2.79484e-06
2.77898e-06
2.76342e-06
2.74819e-06
2.73327e-06
2.71866e-06
2.70434e-06
2.69032e-06
2.67657e-06
2.6631e-06
2.64989e-06
2.63694e-06
2.62424e-06
2.61179e-06
2.59958e-06
2.58759e-06
2.57584e-06
2.5643e-06
2.55299e-06
2.54188e-06
2.53098e-06
2.52027e-06
2.50977e-06
2.49946e-06
2.48933e-06
2.47939e-06
2.46963e-06
2.46004e-06
2.45063e-06
2.44138e-06
2.4323e-06
2.42338e-06
2.41461e-06
2.406e-06
2.39754e-06
2.38923e-06
2.38107e-06
2.37304e-06
2.36515e-06
2.3574e-06
2.34978e-06
2.34229e-06
2.33492e-06
2.32768e-06
2.32056e-06
2.31356e-06
2.30667e-06
2.29989e-06
2.29322e-06
2.28666e-06
2.28019e-06
2.27383e-06
2.26757e-06
2.2614e-06
2.25533e-06
2.24934e-06
2.24345e-06
2.23763e-06
2.2319e-06
2.22626e-06
2.22068e-06
2.21519e-06
2.20977e-06
2.20442e-06
2.19914e-06
2.19394e-06
2.18879e-06
2.18372e-06
2.1787e-06
2.17375e-06
2.16887e-06
2.16404e-06
2.15927e-06
2.15456e-06
2.1499e-06
2.1453e-06
2.14075e-06
2.13626e-06
2.13182e-06
2.12743e-06
2.1231e-06
2.11881e-06
2.11458e-06
2.11039e-06
2.10626e-06
2.10217e-06
2.09813e-06
2.09414e-06
2.09019e-06
2.08629e-06
2.08244e-06
2.07863e-06
2.07487e-06
2.07115e-06
2.06747e-06
2.06384e-06
2.06025e-06
2.05671e-06
2.0532e-06
2.04974e-06
2.04631e-06
2.04293e-06
2.03959e-06
2.03629e-06
2.03302e-06
2.02979e-06
2.0266e-06
2.02345e-06
2.02034e-06
2.01726e-06
2.01422e-06
2.01121e-06
2.00824e-06
2.0053e-06
2.00239e-06
1.99953e-06
1.99669e-06
1.9939e-06
1.99115e-06
1.98845e-06
1.98581e-06
1.98328e-06
1.98091e-06
1.97884e-06
1.97738e-06
)
;

boundaryField
{
    boundary
    {
        type            empty;
    }
    inlet
    {
        type            fixedValue;
        value           uniform 0;
    }
    outlet
    {
        type            zeroGradient;
    }
}


// ************************************************************************* //
