/*--------------------------------*- C++ -*----------------------------------*\
  =========                 |
  \\      /  F ield         | OpenFOAM: The Open Source CFD Toolbox
   \\    /   O peration     | Website:  https://openfoam.org
    \\  /    A nd           | Version:  7
     \\/     M anipulation  |
\*---------------------------------------------------------------------------*/
FoamFile
{
    version     2.0;
    format      ascii;
    class       volScalarField;
    location    "0.00101";
    object      O2;
}
// * * * * * * * * * * * * * * * * * * * * * * * * * * * * * * * * * * * * * //

dimensions      [0 0 0 0 0 0 0];

internalField   nonuniform List<scalar> 
500
(
0.226269
0.226269
0.226269
0.226269
0.226269
0.226269
0.226269
0.226269
0.226269
0.226269
0.226269
0.226269
0.226269
0.226269
0.226269
0.226269
0.226269
0.226269
0.226269
0.226269
0.226269
0.226269
0.226269
0.226269
0.226269
0.226269
0.226269
0.226269
0.226269
0.226269
0.226269
0.226269
0.226269
0.226269
0.226269
0.226269
0.226269
0.226269
0.226269
0.226269
0.226269
0.226269
0.226269
0.226269
0.226269
0.226269
0.226269
0.226269
0.226269
0.226269
0.226269
0.226269
0.226269
0.226269
0.226269
0.226269
0.226269
0.226269
0.226269
0.226269
0.226269
0.226269
0.226269
0.226269
0.226269
0.226269
0.226269
0.226269
0.226269
0.226269
0.226269
0.226269
0.226269
0.226269
0.226269
0.226269
0.226269
0.226269
0.226269
0.226269
0.226269
0.226269
0.226269
0.226269
0.226269
0.226269
0.226269
0.226269
0.226269
0.226269
0.226269
0.226269
0.226269
0.226269
0.226269
0.226269
0.226269
0.226269
0.226269
0.226269
0.226269
0.226269
0.226269
0.226269
0.226269
0.226269
0.226269
0.226269
0.226269
0.226269
0.226269
0.226269
0.226269
0.226269
0.226269
0.226269
0.226269
0.226269
0.226269
0.226269
0.226269
0.226269
0.226269
0.226269
0.226269
0.226269
0.226269
0.226269
0.226269
0.226269
0.226269
0.226269
0.226269
0.226269
0.226269
0.226269
0.226269
0.226269
0.226269
0.226269
0.226269
0.226269
0.226269
0.226269
0.226269
0.226269
0.226269
0.226269
0.226269
0.226269
0.226269
0.226269
0.226269
0.226269
0.226269
0.226269
0.226269
0.226269
0.226269
0.226269
0.226269
0.226269
0.226269
0.226269
0.226269
0.226269
0.226269
0.226269
0.226269
0.226269
0.226269
0.226269
0.226269
0.226269
0.226269
0.226269
0.226269
0.226269
0.226269
0.226269
0.226269
0.226269
0.226269
0.226269
0.226269
0.226269
0.226269
0.226269
0.226269
0.226269
0.226269
0.226269
0.226269
0.226269
0.226269
0.226269
0.226269
0.226269
0.226269
0.226269
0.226269
0.226269
0.226269
0.226269
0.226269
0.226269
0.226269
0.226269
0.226269
0.226269
0.226269
0.226269
0.226269
0.226269
0.226269
0.226269
0.226269
0.226269
0.226269
0.226269
0.226269
0.226269
0.226269
0.226269
0.226269
0.226269
0.226269
0.226269
0.226269
0.226269
0.226269
0.226269
0.226269
0.226269
0.226269
0.226269
0.226269
0.226269
0.226269
0.226269
0.226269
0.226269
0.226269
0.226269
0.226269
0.226269
0.226269
0.226269
0.226269
0.226269
0.226269
0.226269
0.226269
0.226269
0.226269
0.226269
0.226269
0.226269
0.226269
0.226269
0.226269
0.226269
0.226269
0.226269
0.226269
0.226269
0.22627
0.22627
0.226272
0.226275
0.226278
0.226275
0.226234
0.226022
0.225189
0.222625
0.216406
0.205571
0.191363
0.173331
0.150523
0.124746
0.100404
0.0812043
0.063905
0.0537504
0.0468848
0.0422292
0.0390079
0.0367049
0.0349906
0.033658
0.032578
0.03167
0.0308831
0.0301848
0.0295538
0.0289759
0.0284413
0.027943
0.0274759
0.027036
0.0266204
0.0262265
0.0258524
0.0254961
0.0251564
0.0248319
0.0245216
0.0242245
0.0239399
0.0236672
0.0234142
0.0231737
0.0229408
0.022715
0.0224961
0.0222836
0.0220772
0.0218767
0.0216817
0.0214919
0.0213072
0.0211272
0.0209518
0.0207808
0.0206138
0.0204508
0.0202916
0.020136
0.0199838
0.0198348
0.019689
0.0195462
0.0194062
0.019269
0.0191344
0.0190023
0.0188726
0.0187453
0.0186202
0.0184972
0.0183763
0.0182574
0.0181405
0.0180254
0.0179122
0.0178007
0.017691
0.0175829
0.0174765
0.0173716
0.0172684
0.0171666
0.0170664
0.0169676
0.0168702
0.0167743
0.0166797
0.0165865
0.0164946
0.016404
0.0163147
0.0162266
0.0161397
0.016054
0.0159695
0.0158861
0.0158039
0.0157227
0.0156427
0.0155636
0.0154856
0.0154086
0.0153325
0.0152574
0.0151833
0.0151101
0.0150378
0.0149664
0.0148958
0.0148261
0.0147572
0.0146891
0.0146218
0.0145552
0.0144895
0.0144244
0.0143601
0.0142966
0.0142337
0.0141715
0.0141101
0.0140493
0.0139891
0.0139297
0.0138708
0.0138126
0.0137551
0.0136982
0.0136418
0.0135861
0.013531
0.0134765
0.0134226
0.0133692
0.0133164
0.0132642
0.0132126
0.0131614
0.0131109
0.0130608
0.0130113
0.0129623
0.0129138
0.0128658
0.0128183
0.0127713
0.0127248
0.0126787
0.0126331
0.0125879
0.0125432
0.0124989
0.012455
0.0124115
0.0123684
0.0123257
0.0122834
0.0122414
0.0121998
0.0121586
0.0121177
0.0120772
0.0120369
0.011997
0.0119574
0.0119181
0.0118792
0.0118405
0.011802
0.0117639
0.0117261
0.0116885
0.0116512
0.0116141
0.0115773
0.0115408
0.0115045
0.0114685
0.0114327
0.0113972
0.0113619
0.0113269
0.0112921
0.0112575
0.0112232
0.0111892
0.0111554
0.0111218
0.0110884
0.0110553
0.0110225
0.0109898
0.0109575
0.0109253
0.0108934
0.0108617
0.0108303
0.0107991
0.0107681
0.0107373
0.0107068
0.0106765
0.0106465
0.0106167
0.0105871
0.0105577
0.0105285
0.0104996
0.0104708
0.0104423
0.010414
0.0103859
0.010358
0.0103304
0.0103029
0.0102756
0.0102484
0.0102215
0.0101947
0.0101681
0.0101416
0.0101153
0.0100893
0.0100636
0.0100386
0.0100148
0.00999391
0.00997927
)
;

boundaryField
{
    boundary
    {
        type            empty;
    }
    inlet
    {
        type            fixedValue;
        value           uniform 0.226269;
    }
    outlet
    {
        type            zeroGradient;
    }
}


// ************************************************************************* //
