/*--------------------------------*- C++ -*----------------------------------*\
  =========                 |
  \\      /  F ield         | OpenFOAM: The Open Source CFD Toolbox
   \\    /   O peration     | Website:  https://openfoam.org
    \\  /    A nd           | Version:  7
     \\/     M anipulation  |
\*---------------------------------------------------------------------------*/
FoamFile
{
    version     2.0;
    format      ascii;
    class       volScalarField;
    location    "0.00101";
    object      OH;
}
// * * * * * * * * * * * * * * * * * * * * * * * * * * * * * * * * * * * * * //

dimensions      [0 0 0 0 0 0 0];

internalField   nonuniform List<scalar> 
500
(
9.38533e-48
1.82909e-47
2.43795e-47
2.85021e-47
3.12887e-47
3.31756e-47
3.44583e-47
3.53356e-47
3.59408e-47
3.63633e-47
3.66627e-47
3.68789e-47
3.70385e-47
3.71591e-47
3.72526e-47
3.73265e-47
3.73861e-47
3.74346e-47
3.74742e-47
3.75061e-47
3.75316e-47
3.75511e-47
3.75655e-47
3.75754e-47
3.75815e-47
3.75846e-47
3.75857e-47
3.75858e-47
3.7586e-47
3.75874e-47
3.75913e-47
3.75987e-47
3.76109e-47
3.7629e-47
3.7654e-47
3.76869e-47
3.77286e-47
3.778e-47
3.78419e-47
3.79152e-47
3.80007e-47
3.80993e-47
3.82119e-47
3.83396e-47
3.84835e-47
3.86449e-47
3.88251e-47
3.90257e-47
3.92485e-47
3.94951e-47
3.97676e-47
4.00677e-47
4.03976e-47
4.07591e-47
4.11543e-47
4.15849e-47
4.20526e-47
4.25588e-47
4.31046e-47
4.36909e-47
4.4318e-47
4.4986e-47
4.56942e-47
4.64418e-47
4.7227e-47
4.80476e-47
4.89008e-47
4.97834e-47
5.06913e-47
5.16201e-47
5.2565e-47
5.35207e-47
5.44817e-47
5.54421e-47
5.63962e-47
5.73381e-47
5.82623e-47
5.91632e-47
6.00361e-47
6.08762e-47
6.16796e-47
6.24429e-47
6.31636e-47
6.38395e-47
6.44693e-47
6.50524e-47
6.55888e-47
6.60791e-47
6.65245e-47
6.69264e-47
6.72869e-47
6.76083e-47
6.7893e-47
6.81437e-47
6.83632e-47
6.85542e-47
6.87194e-47
6.88615e-47
6.8983e-47
6.90863e-47
6.91738e-47
6.92473e-47
6.93088e-47
6.936e-47
6.94024e-47
6.94374e-47
6.94661e-47
6.94895e-47
6.95086e-47
6.95241e-47
6.95366e-47
6.95467e-47
6.95549e-47
6.95615e-47
6.95668e-47
6.95712e-47
6.95748e-47
6.95777e-47
6.95802e-47
6.95824e-47
6.95842e-47
6.95858e-47
6.95868e-47
6.95869e-47
6.9584e-47
6.95792e-47
6.9581e-47
6.95827e-47
6.95843e-47
6.95858e-47
6.95872e-47
6.95885e-47
6.959e-47
6.95916e-47
6.95934e-47
6.95953e-47
6.95975e-47
6.95999e-47
6.96025e-47
6.96053e-47
6.96083e-47
6.96114e-47
6.96148e-47
6.96182e-47
6.96218e-47
6.96255e-47
6.96293e-47
6.96331e-47
6.96368e-47
6.96406e-47
6.96443e-47
6.96479e-47
6.96514e-47
6.96548e-47
6.96581e-47
6.96613e-47
6.96645e-47
6.96677e-47
6.96708e-47
6.96739e-47
6.96771e-47
6.96804e-47
6.96838e-47
6.96873e-47
6.9691e-47
6.96948e-47
6.96988e-47
6.97029e-47
6.97073e-47
6.97117e-47
6.97163e-47
6.97211e-47
6.9726e-47
6.97309e-47
6.9736e-47
6.97411e-47
6.97463e-47
6.97516e-47
6.97569e-47
6.97623e-47
6.97677e-47
6.97731e-47
6.97786e-47
6.97842e-47
6.97897e-47
6.97953e-47
6.9801e-47
6.98067e-47
6.98125e-47
6.98187e-47
6.98259e-47
6.98363e-47
6.98577e-47
6.99148e-47
7.00893e-47
7.0648e-47
7.24593e-47
7.83392e-47
9.73882e-47
1.58914e-46
3.56989e-46
9.92603e-46
3.02583e-45
9.51002e-45
3.01283e-44
9.55067e-44
3.0226e-43
9.54442e-43
3.00673e-42
9.45017e-42
2.9637e-41
9.27542e-41
2.8973e-40
9.03375e-40
2.812e-39
8.73951e-39
2.71229e-38
8.40641e-38
2.60231e-37
8.0468e-37
2.48568e-36
7.67116e-36
2.36539e-35
7.28791e-35
2.2438e-34
6.90353e-34
2.12266e-33
6.52276e-33
2.00325e-32
6.14905e-32
1.88651e-31
5.78504e-31
1.77323e-30
5.43323e-30
1.66424e-29
5.09665e-29
1.56072e-28
4.77999e-28
1.4646e-27
4.4914e-27
1.37938e-26
4.24617e-26
1.31179e-25
4.07425e-25
1.27528e-24
4.03627e-24
1.29732e-23
4.25719e-23
1.43487e-22
4.99692e-22
1.80662e-21
6.83692e-21
2.682e-20
1.08848e-19
4.55247e-19
1.95087e-18
8.51661e-18
3.76887e-17
1.68405e-16
7.57552e-16
3.42338e-15
1.55176e-14
7.04811e-14
3.20551e-13
1.45917e-12
6.64636e-12
3.02881e-11
1.38086e-10
6.37591e-10
2.97306e-09
1.39614e-08
6.62739e-08
3.26181e-07
1.7787e-06
1.14731e-05
7.69596e-05
0.000342374
0.00068804
0.000862849
0.00107561
0.00160802
0.00257978
0.00387438
0.00525517
0.0066897
0.00777954
0.00864855
0.00932923
0.00985931
0.0102735
0.0105996
0.0108588
0.0110664
0.011234
0.0113698
0.0114802
0.0115698
0.0116423
0.0117005
0.0117466
0.0117826
0.0118098
0.0118294
0.0118426
0.0118502
0.0118528
0.0118512
0.0118458
0.0118372
0.0118256
0.0118115
0.0117952
0.0117776
0.0117588
0.0117387
0.0117173
0.0116948
0.0116712
0.0116467
0.0116214
0.0115954
0.0115687
0.0115413
0.0115135
0.0114851
0.0114563
0.0114271
0.0113976
0.0113677
0.0113376
0.0113072
0.0112766
0.0112459
0.0112149
0.0111838
0.0111525
0.0111212
0.0110897
0.0110582
0.0110266
0.0109949
0.0109632
0.0109315
0.0108997
0.010868
0.0108362
0.0108045
0.0107728
0.0107411
0.0107095
0.010678
0.0106465
0.010615
0.0105837
0.0105524
0.0105213
0.0104902
0.0104593
0.0104284
0.0103977
0.0103671
0.0103367
0.0103063
0.0102761
0.0102461
0.0102161
0.0101864
0.0101567
0.0101273
0.0100979
0.0100688
0.0100397
0.0100109
0.00998213
0.00995355
0.00992512
0.00989681
0.00986862
0.00984058
0.00981269
0.00978495
0.00975736
0.00972991
0.00970261
0.00967546
0.00964845
0.00962158
0.00959486
0.00956829
0.00954186
0.00951558
0.00948944
0.00946345
0.0094376
0.0094119
0.00938634
0.00936093
0.00933567
0.00931055
0.00928558
0.00926075
0.00923607
0.00921154
0.00918715
0.00916291
0.00913881
0.00911486
0.00909106
0.0090674
0.00904389
0.00902052
0.00899729
0.00897421
0.00895127
0.00892847
0.00890581
0.00888329
0.00886091
0.00883866
0.00881655
0.00879458
0.00877273
0.00875101
0.00872943
0.00870797
0.00868663
0.00866542
0.00864433
0.00862336
0.0086025
0.00858177
0.00856114
0.00854063
0.00852023
0.00849994
0.00847975
0.00845967
0.0084397
0.00841983
0.00840006
0.00838039
0.00836082
0.00834136
0.00832199
0.00830272
0.00828355
0.00826447
0.0082455
0.00822661
0.00820783
0.00818914
0.00817055
0.00815206
0.00813366
0.00811536
0.00809715
0.00807904
0.00806103
0.00804312
0.00802531
0.00800759
0.00798997
0.00797245
0.00795503
0.00793771
0.00792049
0.00790336
0.00788633
0.00786941
0.00785258
0.00783585
0.00781922
0.00780269
0.00778627
0.00776994
0.00775371
0.00773758
0.00772155
0.00770562
0.00768979
0.00767407
0.00765845
0.00764294
0.00762753
0.00761224
0.00759706
0.007582
0.00756708
0.0075523
0.00753769
0.00752326
0.00750907
0.00749515
0.00748159
0.00746851
0.00745608
0.00744457
0.00743438
0.00742616
0.00742099
)
;

boundaryField
{
    boundary
    {
        type            empty;
    }
    inlet
    {
        type            fixedValue;
        value           uniform 0;
    }
    outlet
    {
        type            zeroGradient;
    }
}


// ************************************************************************* //
