/*--------------------------------*- C++ -*----------------------------------*\
  =========                 |
  \\      /  F ield         | OpenFOAM: The Open Source CFD Toolbox
   \\    /   O peration     | Website:  https://openfoam.org
    \\  /    A nd           | Version:  7
     \\/     M anipulation  |
\*---------------------------------------------------------------------------*/
FoamFile
{
    version     2.0;
    format      ascii;
    class       volVectorField;
    location    "0.00101";
    object      U;
}
// * * * * * * * * * * * * * * * * * * * * * * * * * * * * * * * * * * * * * //

dimensions      [0 1 -1 0 0 0 0];

internalField   nonuniform List<vector> 
500
(
(2.34893 0 0)
(2.3489 0 0)
(2.34886 0 0)
(2.34883 0 0)
(2.3488 0 0)
(2.34877 0 0)
(2.34875 0 0)
(2.34872 0 0)
(2.34869 0 0)
(2.34866 0 0)
(2.34863 0 0)
(2.3486 0 0)
(2.34858 0 0)
(2.34855 0 0)
(2.34852 0 0)
(2.34849 0 0)
(2.34846 0 0)
(2.34843 0 0)
(2.3484 0 0)
(2.34836 0 0)
(2.34833 0 0)
(2.3483 0 0)
(2.34827 0 0)
(2.34824 0 0)
(2.34821 0 0)
(2.34818 0 0)
(2.34815 0 0)
(2.34813 0 0)
(2.3481 0 0)
(2.34807 0 0)
(2.34804 0 0)
(2.34802 0 0)
(2.34799 0 0)
(2.34797 0 0)
(2.34795 0 0)
(2.34792 0 0)
(2.3479 0 0)
(2.34788 0 0)
(2.34786 0 0)
(2.34784 0 0)
(2.34781 0 0)
(2.34779 0 0)
(2.34778 0 0)
(2.34776 0 0)
(2.34774 0 0)
(2.34772 0 0)
(2.3477 0 0)
(2.34769 0 0)
(2.34767 0 0)
(2.34766 0 0)
(2.34764 0 0)
(2.34763 0 0)
(2.34762 0 0)
(2.34761 0 0)
(2.3476 0 0)
(2.34759 0 0)
(2.34758 0 0)
(2.34757 0 0)
(2.34756 0 0)
(2.34755 0 0)
(2.34754 0 0)
(2.34753 0 0)
(2.34751 0 0)
(2.3475 0 0)
(2.34749 0 0)
(2.34747 0 0)
(2.34745 0 0)
(2.34743 0 0)
(2.34741 0 0)
(2.34738 0 0)
(2.34735 0 0)
(2.34732 0 0)
(2.34729 0 0)
(2.34725 0 0)
(2.34722 0 0)
(2.34718 0 0)
(2.34714 0 0)
(2.3471 0 0)
(2.34705 0 0)
(2.34701 0 0)
(2.34696 0 0)
(2.34692 0 0)
(2.34687 0 0)
(2.34682 0 0)
(2.34678 0 0)
(2.34673 0 0)
(2.34669 0 0)
(2.34664 0 0)
(2.3466 0 0)
(2.34656 0 0)
(2.34652 0 0)
(2.34648 0 0)
(2.34644 0 0)
(2.3464 0 0)
(2.34636 0 0)
(2.34632 0 0)
(2.34629 0 0)
(2.34625 0 0)
(2.34622 0 0)
(2.34619 0 0)
(2.34616 0 0)
(2.34612 0 0)
(2.34609 0 0)
(2.34606 0 0)
(2.34603 0 0)
(2.346 0 0)
(2.34598 0 0)
(2.34595 0 0)
(2.34592 0 0)
(2.34589 0 0)
(2.34586 0 0)
(2.34584 0 0)
(2.34581 0 0)
(2.34578 0 0)
(2.34575 0 0)
(2.34573 0 0)
(2.3457 0 0)
(2.34567 0 0)
(2.34565 0 0)
(2.34562 0 0)
(2.34559 0 0)
(2.34557 0 0)
(2.34554 0 0)
(2.34551 0 0)
(2.34549 0 0)
(2.34546 0 0)
(2.34544 0 0)
(2.34541 0 0)
(2.34538 0 0)
(2.34536 0 0)
(2.34533 0 0)
(2.3453 0 0)
(2.34528 0 0)
(2.34525 0 0)
(2.34523 0 0)
(2.3452 0 0)
(2.34517 0 0)
(2.34515 0 0)
(2.34512 0 0)
(2.3451 0 0)
(2.34507 0 0)
(2.34504 0 0)
(2.34502 0 0)
(2.34499 0 0)
(2.34497 0 0)
(2.34494 0 0)
(2.34492 0 0)
(2.34489 0 0)
(2.34486 0 0)
(2.34484 0 0)
(2.34481 0 0)
(2.34479 0 0)
(2.34476 0 0)
(2.34474 0 0)
(2.34471 0 0)
(2.34468 0 0)
(2.34466 0 0)
(2.34463 0 0)
(2.34461 0 0)
(2.34458 0 0)
(2.34456 0 0)
(2.34453 0 0)
(2.34451 0 0)
(2.34448 0 0)
(2.34446 0 0)
(2.34443 0 0)
(2.34441 0 0)
(2.34438 0 0)
(2.34436 0 0)
(2.34433 0 0)
(2.3443 0 0)
(2.34428 0 0)
(2.34425 0 0)
(2.34423 0 0)
(2.3442 0 0)
(2.34418 0 0)
(2.34415 0 0)
(2.34413 0 0)
(2.3441 0 0)
(2.34408 0 0)
(2.34406 0 0)
(2.34403 0 0)
(2.34401 0 0)
(2.34398 0 0)
(2.34396 0 0)
(2.34393 0 0)
(2.34391 0 0)
(2.34388 0 0)
(2.34386 0 0)
(2.34383 0 0)
(2.34381 0 0)
(2.34378 0 0)
(2.34376 0 0)
(2.34373 0 0)
(2.34371 0 0)
(2.34368 0 0)
(2.34366 0 0)
(2.34364 0 0)
(2.34361 0 0)
(2.34359 0 0)
(2.34356 0 0)
(2.34354 0 0)
(2.34351 0 0)
(2.34349 0 0)
(2.34346 0 0)
(2.34344 0 0)
(2.34342 0 0)
(2.34339 0 0)
(2.34337 0 0)
(2.34334 0 0)
(2.34332 0 0)
(2.34329 0 0)
(2.34327 0 0)
(2.34325 0 0)
(2.34322 0 0)
(2.3432 0 0)
(2.34317 0 0)
(2.34315 0 0)
(2.34312 0 0)
(2.3431 0 0)
(2.34308 0 0)
(2.34305 0 0)
(2.34303 0 0)
(2.343 0 0)
(2.34298 0 0)
(2.34296 0 0)
(2.34293 0 0)
(2.34291 0 0)
(2.34288 0 0)
(2.34286 0 0)
(2.34284 0 0)
(2.34281 0 0)
(2.34279 0 0)
(2.34276 0 0)
(2.34274 0 0)
(2.34272 0 0)
(2.34269 0 0)
(2.34267 0 0)
(2.34264 0 0)
(2.34262 0 0)
(2.3426 0 0)
(2.34257 0 0)
(2.34255 0 0)
(2.34253 0 0)
(2.3425 0 0)
(2.34248 0 0)
(2.34245 0 0)
(2.34243 0 0)
(2.34241 0 0)
(2.34238 0 0)
(2.34236 0 0)
(2.34233 0 0)
(2.34231 0 0)
(2.34229 0 0)
(2.34226 0 0)
(2.34224 0 0)
(2.34221 0 0)
(2.34219 0 0)
(2.34217 0 0)
(2.34214 0 0)
(2.34212 0 0)
(2.34209 0 0)
(2.34207 0 0)
(2.34204 0 0)
(2.34202 0 0)
(2.34199 0 0)
(2.34199 0 0)
(2.34205 0 0)
(2.34232 0 0)
(2.34331 0 0)
(2.34651 0 0)
(2.35603 0 0)
(2.38194 0 0)
(2.44643 0 0)
(2.59791 0 0)
(2.93208 0 0)
(3.61728 0 0)
(4.68269 0 0)
(5.91627 0 0)
(7.11106 0 0)
(8.18066 0 0)
(9.10593 0 0)
(9.88399 0 0)
(10.5319 0 0)
(11.0701 0 0)
(11.5041 0 0)
(11.8473 0 0)
(12.1277 0 0)
(12.3672 0 0)
(12.5764 0 0)
(12.761 0 0)
(12.9255 0 0)
(13.0733 0 0)
(13.2073 0 0)
(13.3296 0 0)
(13.4419 0 0)
(13.5456 0 0)
(13.6416 0 0)
(13.731 0 0)
(13.8144 0 0)
(13.8926 0 0)
(13.966 0 0)
(14.0352 0 0)
(14.1005 0 0)
(14.1622 0 0)
(14.2208 0 0)
(14.2764 0 0)
(14.3293 0 0)
(14.3797 0 0)
(14.4278 0 0)
(14.4736 0 0)
(14.5174 0 0)
(14.5582 0 0)
(14.5964 0 0)
(14.6335 0 0)
(14.6694 0 0)
(14.7041 0 0)
(14.7377 0 0)
(14.7703 0 0)
(14.8019 0 0)
(14.8326 0 0)
(14.8623 0 0)
(14.8912 0 0)
(14.9194 0 0)
(14.9467 0 0)
(14.9733 0 0)
(14.9992 0 0)
(15.0245 0 0)
(15.0491 0 0)
(15.0731 0 0)
(15.0965 0 0)
(15.1193 0 0)
(15.1416 0 0)
(15.1634 0 0)
(15.1846 0 0)
(15.2054 0 0)
(15.2258 0 0)
(15.2457 0 0)
(15.2651 0 0)
(15.2842 0 0)
(15.3028 0 0)
(15.3211 0 0)
(15.339 0 0)
(15.3565 0 0)
(15.3737 0 0)
(15.3906 0 0)
(15.4071 0 0)
(15.4234 0 0)
(15.4393 0 0)
(15.4549 0 0)
(15.4702 0 0)
(15.4853 0 0)
(15.5001 0 0)
(15.5146 0 0)
(15.5289 0 0)
(15.5429 0 0)
(15.5567 0 0)
(15.5703 0 0)
(15.5837 0 0)
(15.5968 0 0)
(15.6097 0 0)
(15.6224 0 0)
(15.6349 0 0)
(15.6472 0 0)
(15.6593 0 0)
(15.6712 0 0)
(15.683 0 0)
(15.6945 0 0)
(15.7059 0 0)
(15.7172 0 0)
(15.7282 0 0)
(15.7391 0 0)
(15.7499 0 0)
(15.7604 0 0)
(15.7708 0 0)
(15.781 0 0)
(15.7911 0 0)
(15.8011 0 0)
(15.811 0 0)
(15.8207 0 0)
(15.8303 0 0)
(15.8398 0 0)
(15.8492 0 0)
(15.8584 0 0)
(15.8676 0 0)
(15.8766 0 0)
(15.8855 0 0)
(15.8942 0 0)
(15.9029 0 0)
(15.9115 0 0)
(15.9199 0 0)
(15.9283 0 0)
(15.9365 0 0)
(15.9447 0 0)
(15.9527 0 0)
(15.9607 0 0)
(15.9685 0 0)
(15.9763 0 0)
(15.984 0 0)
(15.9916 0 0)
(15.9991 0 0)
(16.0065 0 0)
(16.0139 0 0)
(16.0211 0 0)
(16.0283 0 0)
(16.0354 0 0)
(16.0424 0 0)
(16.0494 0 0)
(16.0562 0 0)
(16.063 0 0)
(16.0697 0 0)
(16.0764 0 0)
(16.083 0 0)
(16.0895 0 0)
(16.0959 0 0)
(16.1023 0 0)
(16.1086 0 0)
(16.1148 0 0)
(16.121 0 0)
(16.1271 0 0)
(16.1332 0 0)
(16.1392 0 0)
(16.1451 0 0)
(16.1509 0 0)
(16.1568 0 0)
(16.1625 0 0)
(16.1682 0 0)
(16.1739 0 0)
(16.1794 0 0)
(16.185 0 0)
(16.1905 0 0)
(16.1959 0 0)
(16.2012 0 0)
(16.2066 0 0)
(16.2118 0 0)
(16.2171 0 0)
(16.2222 0 0)
(16.2274 0 0)
(16.2324 0 0)
(16.2375 0 0)
(16.2424 0 0)
(16.2474 0 0)
(16.2523 0 0)
(16.2571 0 0)
(16.2619 0 0)
(16.2667 0 0)
(16.2714 0 0)
(16.2761 0 0)
(16.2807 0 0)
(16.2853 0 0)
(16.2899 0 0)
(16.2944 0 0)
(16.2988 0 0)
(16.3033 0 0)
(16.3077 0 0)
(16.312 0 0)
(16.3163 0 0)
(16.3206 0 0)
(16.3248 0 0)
(16.3291 0 0)
(16.3332 0 0)
(16.3374 0 0)
(16.3415 0 0)
(16.3455 0 0)
(16.3495 0 0)
(16.3535 0 0)
(16.3575 0 0)
(16.3614 0 0)
(16.3653 0 0)
(16.3692 0 0)
(16.373 0 0)
(16.3768 0 0)
(16.3806 0 0)
(16.3843 0 0)
(16.388 0 0)
(16.3917 0 0)
(16.3953 0 0)
(16.3989 0 0)
(16.4025 0 0)
(16.4061 0 0)
(16.4096 0 0)
(16.4131 0 0)
(16.4165 0 0)
(16.42 0 0)
(16.4234 0 0)
(16.4268 0 0)
(16.4302 0 0)
(16.4335 0 0)
(16.4368 0 0)
(16.4401 0 0)
(16.4434 0 0)
(16.4467 0 0)
(16.45 0 0)
(16.4533 0 0)
(16.4565 0 0)
(16.4598 0 0)
(16.463 0 0)
(16.4661 0 0)
(16.4687 0 0)
(16.4707 0 0)
)
;

boundaryField
{
    boundary
    {
        type            empty;
    }
    inlet
    {
        type            fixedValue;
        value           uniform (2.34893 0 0);
    }
    outlet
    {
        type            zeroGradient;
    }
}


// ************************************************************************* //
