/*--------------------------------*- C++ -*----------------------------------*\
  =========                 |
  \\      /  F ield         | OpenFOAM: The Open Source CFD Toolbox
   \\    /   O peration     | Website:  https://openfoam.org
    \\  /    A nd           | Version:  7
     \\/     M anipulation  |
\*---------------------------------------------------------------------------*/
FoamFile
{
    version     2.0;
    format      ascii;
    class       volScalarField;
    location    "0.001";
    object      H2O;
}
// * * * * * * * * * * * * * * * * * * * * * * * * * * * * * * * * * * * * * //

dimensions      [0 0 0 0 0 0 0];

internalField   nonuniform List<scalar> 
124
(
0.225364
0.225492
0.225619
0.225745
0.225869
0.225992
0.226113
0.226234
0.226353
0.22647
0.226587
0.226702
0.226816
0.226929
0.227041
0.227152
0.227261
0.22737
0.227477
0.227583
0.227688
0.227793
0.227896
0.227998
0.228099
0.228199
0.228298
0.228397
0.228494
0.22859
0.228686
0.22878
0.228874
0.228967
0.229059
0.22915
0.22924
0.229329
0.229418
0.229505
0.229592
0.229679
0.229764
0.229849
0.229933
0.230016
0.230098
0.23018
0.230261
0.230341
0.230421
0.2305
0.230579
0.230657
0.230734
0.23081
0.230886
0.230962
0.231037
0.231111
0.231185
0.231258
0.231331
0.231403
0.231474
0.231545
0.231616
0.231686
0.231755
0.231824
0.231893
0.231961
0.232028
0.232096
0.232162
0.232228
0.232294
0.232359
0.232424
0.232488
0.232552
0.232615
0.232678
0.232741
0.232803
0.232864
0.232925
0.232986
0.233046
0.233106
0.233165
0.233224
0.233283
0.233341
0.233399
0.233456
0.233513
0.233569
0.233625
0.233681
0.233736
0.233791
0.233845
0.233899
0.233952
0.234006
0.234058
0.234111
0.234163
0.234215
0.234266
0.234317
0.234367
0.234417
0.234467
0.234516
0.234565
0.234612
0.234659
0.234705
0.234749
0.234789
0.234823
0.234846
)
;

boundaryField
{
    boundary
    {
        type            empty;
    }
    inlet
    {
        type            fixedValue;
        value           nonuniform 0();
    }
    outlet
    {
        type            zeroGradient;
    }
    procBoundary0to1
    {
        type            processor;
        value           uniform 0.225234;
    }
}


// ************************************************************************* //
