/*--------------------------------*- C++ -*----------------------------------*\
  =========                 |
  \\      /  F ield         | OpenFOAM: The Open Source CFD Toolbox
   \\    /   O peration     | Website:  https://openfoam.org
    \\  /    A nd           | Version:  7
     \\/     M anipulation  |
\*---------------------------------------------------------------------------*/
FoamFile
{
    version     2.0;
    format      ascii;
    class       volScalarField;
    location    "7e-05";
    object      H;
}
// * * * * * * * * * * * * * * * * * * * * * * * * * * * * * * * * * * * * * //

dimensions      [0 0 0 0 0 0 0];

internalField   nonuniform List<scalar> 
500
(
1.5259e-41
2.21329e-41
2.50603e-41
2.70609e-41
2.86802e-41
2.99681e-41
3.09232e-41
3.15777e-41
3.19931e-41
3.22383e-41
3.23738e-41
3.2444e-41
3.24782e-41
3.24936e-41
3.24999e-41
3.25019e-41
3.2502e-41
3.25012e-41
3.25001e-41
3.24987e-41
3.24972e-41
3.24956e-41
3.24939e-41
3.24922e-41
3.24904e-41
3.24886e-41
3.24867e-41
3.24847e-41
3.24826e-41
3.24805e-41
3.24784e-41
3.24762e-41
3.24739e-41
3.24716e-41
3.24692e-41
3.24667e-41
3.24643e-41
3.24617e-41
3.24591e-41
3.24565e-41
3.24538e-41
3.24511e-41
3.24483e-41
3.24455e-41
3.24427e-41
3.24398e-41
3.24369e-41
3.2434e-41
3.2431e-41
3.2428e-41
3.24249e-41
3.24219e-41
3.24188e-41
3.24157e-41
3.24125e-41
3.24094e-41
3.24062e-41
3.2403e-41
3.23998e-41
3.23966e-41
3.23934e-41
3.23902e-41
3.2387e-41
3.23838e-41
3.23806e-41
3.23773e-41
3.23741e-41
3.23709e-41
3.23677e-41
3.23645e-41
3.23614e-41
3.23582e-41
3.23551e-41
3.23519e-41
3.23488e-41
3.23458e-41
3.23427e-41
3.23397e-41
3.23367e-41
3.23337e-41
3.23308e-41
3.23279e-41
3.23251e-41
3.23222e-41
3.23195e-41
3.23167e-41
3.2314e-41
3.23114e-41
3.23088e-41
3.23062e-41
3.23037e-41
3.23013e-41
3.22989e-41
3.22965e-41
3.22942e-41
3.2292e-41
3.22898e-41
3.22877e-41
3.22856e-41
3.22836e-41
3.22816e-41
3.22797e-41
3.22779e-41
3.22761e-41
3.22744e-41
3.22727e-41
3.22711e-41
3.22695e-41
3.22681e-41
3.22666e-41
3.22652e-41
3.22639e-41
3.22626e-41
3.22614e-41
3.22602e-41
3.22591e-41
3.2258e-41
3.2257e-41
3.2256e-41
3.22551e-41
3.22541e-41
3.2253e-41
3.22515e-41
3.22491e-41
3.22452e-41
3.22399e-41
3.22386e-41
3.22397e-41
3.22415e-41
3.22431e-41
3.2244e-41
3.22444e-41
3.22443e-41
3.2244e-41
3.22434e-41
3.22427e-41
3.22419e-41
3.22411e-41
3.22402e-41
3.22393e-41
3.22383e-41
3.22373e-41
3.22362e-41
3.22349e-41
3.22337e-41
3.22323e-41
3.22308e-41
3.22292e-41
3.22275e-41
3.22256e-41
3.22236e-41
3.22215e-41
3.22192e-41
3.22167e-41
3.2214e-41
3.22112e-41
3.22082e-41
3.22049e-41
3.22015e-41
3.21978e-41
3.21938e-41
3.21896e-41
3.21852e-41
3.21805e-41
3.21754e-41
3.21701e-41
3.21645e-41
3.21585e-41
3.21522e-41
3.21455e-41
3.21385e-41
3.21311e-41
3.21234e-41
3.21152e-41
3.21066e-41
3.20976e-41
3.20881e-41
3.20783e-41
3.20679e-41
3.20571e-41
3.20458e-41
3.2034e-41
3.20216e-41
3.20088e-41
3.19955e-41
3.19816e-41
3.19671e-41
3.19521e-41
3.19366e-41
3.19204e-41
3.19037e-41
3.18864e-41
3.18685e-41
3.185e-41
3.18308e-41
3.18111e-41
3.17908e-41
3.17698e-41
3.17482e-41
3.1726e-41
3.17032e-41
3.16797e-41
3.16556e-41
3.16309e-41
3.16056e-41
3.15797e-41
3.15532e-41
3.15261e-41
3.14983e-41
3.147e-41
3.14411e-41
3.14117e-41
3.13817e-41
3.13512e-41
3.13201e-41
3.12886e-41
3.12565e-41
3.1224e-41
3.1191e-41
3.11575e-41
3.11236e-41
3.10894e-41
3.10547e-41
3.10197e-41
3.09843e-41
3.09486e-41
3.09126e-41
3.08763e-41
3.08397e-41
3.08029e-41
3.07659e-41
3.0729e-41
3.06943e-41
3.0675e-41
3.07582e-41
3.1524e-41
3.68569e-41
7.28885e-41
3.1618e-40
1.9641e-39
1.31621e-38
8.94669e-38
6.10613e-37
4.1765e-36
2.86106e-35
1.9621e-34
1.34657e-33
9.24411e-33
6.34486e-32
4.35134e-31
2.97914e-30
2.03659e-29
1.38591e-28
9.39806e-28
6.34317e-27
4.25727e-26
2.83849e-25
1.87822e-24
1.2322e-23
8.00751e-23
5.15033e-22
3.27645e-21
2.06066e-20
1.28107e-19
7.87389e-19
4.78797e-18
2.88405e-17
1.72419e-16
1.02582e-15
6.09528e-15
3.63219e-14
2.18058e-13
1.40169e-12
1.05059e-11
9.57546e-11
8.84327e-10
7.82677e-09
6.91213e-08
5.92705e-07
4.58452e-06
2.80668e-05
0.000115249
0.000298746
0.000567966
0.000900189
0.00125028
0.00155073
0.00175353
0.00185559
0.00187996
0.00185402
0.00179945
0.00173068
0.00165646
0.00158166
0.00150882
0.00143906
0.00137273
0.00130978
0.00124995
0.00119294
0.00113841
0.00108609
0.00103571
0.00098708
0.00094005
0.000894507
0.00085038
0.000807624
0.000766219
0.000726161
0.000687454
0.00065121
0.000617106
0.000584122
0.000552291
0.00052164
0.000492192
0.000463965
0.000436972
0.00041122
0.000386712
0.000363444
0.000341405
0.000320583
0.000300956
0.000282501
0.000265189
0.000248987
0.000233861
0.000219771
0.000206678
0.000194538
0.000183307
0.000172941
0.000163395
0.000154624
0.000146581
0.000139224
0.000132507
0.00012639
0.00012083
0.000115787
0.000111224
0.000107104
0.000103392
0.000100055
9.70617e-05
9.43826e-05
9.19903e-05
8.98589e-05
8.79642e-05
8.6284e-05
8.47975e-05
8.34854e-05
8.233e-05
8.13153e-05
8.04261e-05
7.9649e-05
7.89714e-05
7.83822e-05
7.78711e-05
7.74289e-05
7.70472e-05
7.67185e-05
7.64363e-05
7.61943e-05
7.59873e-05
7.58104e-05
7.56595e-05
7.55306e-05
7.54205e-05
7.53261e-05
7.5245e-05
7.51754e-05
7.51163e-05
7.50692e-05
7.50338e-05
7.50066e-05
7.49856e-05
7.49693e-05
7.49566e-05
7.49466e-05
7.49388e-05
7.49328e-05
7.4928e-05
7.49244e-05
7.49215e-05
7.49193e-05
7.49175e-05
7.49162e-05
7.49152e-05
7.49144e-05
7.49138e-05
7.49134e-05
7.49131e-05
7.49129e-05
7.49127e-05
7.49126e-05
7.49125e-05
7.49124e-05
7.49124e-05
7.49124e-05
7.49124e-05
7.49124e-05
7.49124e-05
7.49124e-05
7.49124e-05
7.49124e-05
7.49124e-05
7.49124e-05
7.49124e-05
7.49124e-05
7.49123e-05
7.49123e-05
7.49123e-05
7.49123e-05
7.49123e-05
7.49123e-05
7.49122e-05
7.49122e-05
7.49122e-05
7.49121e-05
7.49121e-05
7.49121e-05
7.4912e-05
7.4912e-05
7.4912e-05
7.49119e-05
7.49119e-05
7.49118e-05
7.49118e-05
7.49118e-05
7.49117e-05
7.49117e-05
7.49116e-05
7.49116e-05
7.49115e-05
7.49115e-05
7.49114e-05
7.49114e-05
7.49113e-05
7.49113e-05
7.49112e-05
7.49112e-05
7.49111e-05
7.49111e-05
7.49111e-05
7.4911e-05
7.49109e-05
7.49109e-05
7.49108e-05
7.49108e-05
7.49107e-05
7.49107e-05
7.49106e-05
7.49106e-05
7.49105e-05
7.49105e-05
7.49104e-05
7.49104e-05
7.49103e-05
7.49103e-05
7.49102e-05
7.49102e-05
7.49101e-05
7.49101e-05
7.491e-05
7.491e-05
7.49099e-05
7.49099e-05
7.49098e-05
7.49098e-05
7.49097e-05
7.49097e-05
7.49096e-05
7.49096e-05
7.49095e-05
7.49095e-05
7.49094e-05
7.49094e-05
7.49093e-05
7.49093e-05
7.49092e-05
7.49092e-05
7.49092e-05
7.49091e-05
7.49091e-05
7.4909e-05
7.4909e-05
7.49089e-05
7.49089e-05
7.49088e-05
7.49088e-05
7.49088e-05
7.49087e-05
7.49087e-05
7.49087e-05
7.49086e-05
7.49086e-05
)
;

boundaryField
{
    boundary
    {
        type            empty;
    }
    inlet
    {
        type            fixedValue;
        value           uniform 0;
    }
    outlet
    {
        type            zeroGradient;
    }
}


// ************************************************************************* //
