/*--------------------------------*- C++ -*----------------------------------*\
  =========                 |
  \\      /  F ield         | OpenFOAM: The Open Source CFD Toolbox
   \\    /   O peration     | Website:  https://openfoam.org
    \\  /    A nd           | Version:  7
     \\/     M anipulation  |
\*---------------------------------------------------------------------------*/
FoamFile
{
    version     2.0;
    format      ascii;
    class       volScalarField;
    location    "7e-05";
    object      H2;
}
// * * * * * * * * * * * * * * * * * * * * * * * * * * * * * * * * * * * * * //

dimensions      [0 0 0 0 0 0 0];

internalField   nonuniform List<scalar> 
500
(
0.0285116
0.0285116
0.0285116
0.0285116
0.0285116
0.0285116
0.0285116
0.0285116
0.0285116
0.0285116
0.0285116
0.0285116
0.0285116
0.0285116
0.0285116
0.0285116
0.0285116
0.0285116
0.0285116
0.0285116
0.0285116
0.0285116
0.0285116
0.0285116
0.0285116
0.0285116
0.0285116
0.0285116
0.0285116
0.0285116
0.0285116
0.0285116
0.0285116
0.0285116
0.0285116
0.0285116
0.0285116
0.0285116
0.0285116
0.0285116
0.0285116
0.0285116
0.0285116
0.0285116
0.0285116
0.0285116
0.0285116
0.0285116
0.0285116
0.0285116
0.0285116
0.0285116
0.0285116
0.0285116
0.0285116
0.0285116
0.0285116
0.0285116
0.0285116
0.0285116
0.0285116
0.0285116
0.0285116
0.0285116
0.0285116
0.0285116
0.0285116
0.0285116
0.0285116
0.0285116
0.0285116
0.0285116
0.0285116
0.0285116
0.0285116
0.0285116
0.0285116
0.0285116
0.0285116
0.0285116
0.0285116
0.0285116
0.0285116
0.0285116
0.0285116
0.0285116
0.0285116
0.0285116
0.0285116
0.0285116
0.0285116
0.0285116
0.0285116
0.0285116
0.0285116
0.0285116
0.0285116
0.0285116
0.0285116
0.0285116
0.0285116
0.0285116
0.0285116
0.0285116
0.0285116
0.0285116
0.0285116
0.0285116
0.0285116
0.0285116
0.0285116
0.0285116
0.0285116
0.0285116
0.0285116
0.0285116
0.0285116
0.0285116
0.0285116
0.0285116
0.0285116
0.0285116
0.0285116
0.0285116
0.0285116
0.0285116
0.0285116
0.0285116
0.0285116
0.0285116
0.0285116
0.0285116
0.0285116
0.0285116
0.0285116
0.0285116
0.0285116
0.0285116
0.0285116
0.0285116
0.0285116
0.0285116
0.0285116
0.0285116
0.0285116
0.0285116
0.0285116
0.0285116
0.0285116
0.0285116
0.0285116
0.0285116
0.0285116
0.0285116
0.0285116
0.0285116
0.0285116
0.0285116
0.0285116
0.0285116
0.0285116
0.0285116
0.0285116
0.0285116
0.0285116
0.0285116
0.0285116
0.0285116
0.0285116
0.0285116
0.0285116
0.0285116
0.0285116
0.0285116
0.0285116
0.0285116
0.0285116
0.0285116
0.0285116
0.0285116
0.0285116
0.0285116
0.0285116
0.0285116
0.0285116
0.0285116
0.0285116
0.0285116
0.0285116
0.0285116
0.0285116
0.0285116
0.0285116
0.0285116
0.0285116
0.0285116
0.0285116
0.0285116
0.0285116
0.0285116
0.0285116
0.0285116
0.0285116
0.0285116
0.0285116
0.0285116
0.0285116
0.0285116
0.0285116
0.0285116
0.0285116
0.0285116
0.0285116
0.0285116
0.0285116
0.0285116
0.0285116
0.0285116
0.0285116
0.0285116
0.0285116
0.0285116
0.0285116
0.0285116
0.0285116
0.0285116
0.0285116
0.0285116
0.0285116
0.0285116
0.0285116
0.0285116
0.0285116
0.0285116
0.0285116
0.0285116
0.0285116
0.0285116
0.0285116
0.0285116
0.0285116
0.0285116
0.0285116
0.0285116
0.0285116
0.0285116
0.0285116
0.0285116
0.0285116
0.0285116
0.0285116
0.0285116
0.0285116
0.0285116
0.0285116
0.0285116
0.0285116
0.0285116
0.0285116
0.0285116
0.0285116
0.0285116
0.0285116
0.0285116
0.0285116
0.0285116
0.0285116
0.0285116
0.0285116
0.0285115
0.0285113
0.0285107
0.0285089
0.028504
0.0284906
0.0284561
0.0283711
0.0281728
0.0277416
0.0269003
0.025485
0.0234571
0.0209817
0.0182102
0.0152288
0.0122586
0.00965205
0.00765237
0.00626742
0.00537069
0.00481436
0.00447933
0.00428281
0.00417119
0.00411092
0.00408132
0.00406972
0.00406825
0.00407196
0.00407762
0.00408304
0.00408666
0.00408733
0.00408414
0.00407639
0.00406352
0.0040451
0.00402083
0.00399053
0.00395411
0.0039116
0.00386312
0.00381052
0.0037543
0.00369325
0.00362766
0.00355785
0.0034842
0.00340712
0.00332704
0.00324444
0.00315977
0.00307353
0.00298621
0.00289827
0.00281021
0.00272247
0.00263551
0.00254973
0.00246553
0.00238326
0.00230325
0.00222579
0.00215113
0.00207947
0.002011
0.00194584
0.0018841
0.00182582
0.00177104
0.00171974
0.00167191
0.00162746
0.00158632
0.00154839
0.00151353
0.00148163
0.00145253
0.00142608
0.00140213
0.00138051
0.00136106
0.00134363
0.00132806
0.00131419
0.00130188
0.00129099
0.00128139
0.00127295
0.00126555
0.00125909
0.00125347
0.00124858
0.00124436
0.00124071
0.00123757
0.00123487
0.00123256
0.00123059
0.0012289
0.00122745
0.0012262
0.00122512
0.00122417
0.0012233
0.00122247
0.00122186
0.00122162
0.00122143
0.00122126
0.00122112
0.00122101
0.00122092
0.00122085
0.00122079
0.00122074
0.00122071
0.00122068
0.00122066
0.00122064
0.00122063
0.00122062
0.00122061
0.00122061
0.00122061
0.0012206
0.0012206
0.0012206
0.0012206
0.00122061
0.00122061
0.00122061
0.00122061
0.00122061
0.00122062
0.00122062
0.00122062
0.00122062
0.00122062
0.00122063
0.00122063
0.00122063
0.00122063
0.00122063
0.00122063
0.00122064
0.00122064
0.00122064
0.00122064
0.00122064
0.00122065
0.00122065
0.00122065
0.00122065
0.00122065
0.00122065
0.00122065
0.00122066
0.00122066
0.00122066
0.00122066
0.00122066
0.00122066
0.00122066
0.00122066
0.00122067
0.00122067
0.00122067
0.00122067
0.00122067
0.00122067
0.00122067
0.00122067
0.00122067
0.00122068
0.00122068
0.00122068
0.00122068
0.00122068
0.00122068
0.00122068
0.00122068
0.00122068
0.00122068
0.00122068
0.00122068
0.00122068
0.00122069
0.00122069
0.00122069
0.00122069
0.00122069
0.00122069
0.00122069
0.00122069
0.00122069
0.00122069
0.00122069
0.00122069
0.00122069
0.00122069
0.00122069
0.00122069
0.00122069
0.00122069
0.00122069
0.00122069
0.00122069
0.00122069
0.00122069
0.00122069
0.00122069
0.00122069
0.00122069
0.00122069
0.00122069
0.00122069
0.00122069
0.00122069
0.00122069
0.00122068
0.00122068
0.00122068
0.00122068
0.00122068
0.00122068
0.00122068
0.00122068
0.00122068
0.00122068
)
;

boundaryField
{
    boundary
    {
        type            empty;
    }
    inlet
    {
        type            fixedValue;
        value           uniform 0.0285116;
    }
    outlet
    {
        type            zeroGradient;
    }
}


// ************************************************************************* //
