/*--------------------------------*- C++ -*----------------------------------*\
  =========                 |
  \\      /  F ield         | OpenFOAM: The Open Source CFD Toolbox
   \\    /   O peration     | Website:  https://openfoam.org
    \\  /    A nd           | Version:  7
     \\/     M anipulation  |
\*---------------------------------------------------------------------------*/
FoamFile
{
    version     2.0;
    format      ascii;
    class       volScalarField;
    location    "7e-05";
    object      H2O;
}
// * * * * * * * * * * * * * * * * * * * * * * * * * * * * * * * * * * * * * //

dimensions      [0 0 0 0 0 0 0];

internalField   nonuniform List<scalar> 
500
(
8.2721e-48
2.36255e-47
4.12572e-47
5.8823e-47
7.45052e-47
8.72414e-47
9.67404e-47
1.03295e-46
1.07507e-46
1.10043e-46
1.11481e-46
1.12253e-46
1.12647e-46
1.12838e-46
1.12927e-46
1.12967e-46
1.12984e-46
1.12991e-46
1.12994e-46
1.12995e-46
1.12995e-46
1.12995e-46
1.12994e-46
1.12994e-46
1.12994e-46
1.12994e-46
1.12994e-46
1.12993e-46
1.12993e-46
1.12993e-46
1.12993e-46
1.12993e-46
1.12993e-46
1.12992e-46
1.12992e-46
1.12992e-46
1.12992e-46
1.12992e-46
1.12992e-46
1.12993e-46
1.12993e-46
1.12993e-46
1.12993e-46
1.12994e-46
1.12994e-46
1.12995e-46
1.12995e-46
1.12996e-46
1.12996e-46
1.12997e-46
1.12998e-46
1.12999e-46
1.13e-46
1.13001e-46
1.13002e-46
1.13004e-46
1.13005e-46
1.13007e-46
1.13008e-46
1.1301e-46
1.13012e-46
1.13014e-46
1.13016e-46
1.13018e-46
1.1302e-46
1.13023e-46
1.13025e-46
1.13028e-46
1.1303e-46
1.13033e-46
1.13036e-46
1.1304e-46
1.13043e-46
1.13046e-46
1.1305e-46
1.13054e-46
1.13058e-46
1.13062e-46
1.13066e-46
1.1307e-46
1.13074e-46
1.13079e-46
1.13084e-46
1.13089e-46
1.13094e-46
1.13099e-46
1.13104e-46
1.1311e-46
1.13116e-46
1.13122e-46
1.13128e-46
1.13134e-46
1.1314e-46
1.13147e-46
1.13153e-46
1.1316e-46
1.13167e-46
1.13174e-46
1.13182e-46
1.13189e-46
1.13197e-46
1.13205e-46
1.13213e-46
1.13221e-46
1.13229e-46
1.13237e-46
1.13246e-46
1.13255e-46
1.13264e-46
1.13273e-46
1.13282e-46
1.13291e-46
1.13301e-46
1.13311e-46
1.1332e-46
1.1333e-46
1.1334e-46
1.13351e-46
1.13361e-46
1.13369e-46
1.13372e-46
1.13353e-46
1.13249e-46
1.12846e-46
1.11398e-46
1.08953e-46
1.09625e-46
1.10466e-46
1.11313e-46
1.12043e-46
1.12598e-46
1.12982e-46
1.13227e-46
1.13376e-46
1.13462e-46
1.13513e-46
1.13543e-46
1.13564e-46
1.13579e-46
1.13592e-46
1.13603e-46
1.13614e-46
1.13625e-46
1.13635e-46
1.13645e-46
1.13655e-46
1.13665e-46
1.13674e-46
1.13683e-46
1.13692e-46
1.137e-46
1.13708e-46
1.13715e-46
1.13722e-46
1.13729e-46
1.13735e-46
1.1374e-46
1.13745e-46
1.13749e-46
1.13753e-46
1.13755e-46
1.13757e-46
1.13759e-46
1.13759e-46
1.13758e-46
1.13757e-46
1.13754e-46
1.13751e-46
1.13746e-46
1.13741e-46
1.13734e-46
1.13726e-46
1.13717e-46
1.13706e-46
1.13694e-46
1.13681e-46
1.13666e-46
1.1365e-46
1.13632e-46
1.13612e-46
1.13591e-46
1.13568e-46
1.13543e-46
1.13517e-46
1.13489e-46
1.13458e-46
1.13426e-46
1.13392e-46
1.13356e-46
1.13317e-46
1.13277e-46
1.13234e-46
1.1319e-46
1.13143e-46
1.13093e-46
1.13042e-46
1.12988e-46
1.12932e-46
1.12873e-46
1.12812e-46
1.12749e-46
1.12683e-46
1.12615e-46
1.12545e-46
1.12472e-46
1.12396e-46
1.12319e-46
1.12239e-46
1.12156e-46
1.12072e-46
1.11984e-46
1.11895e-46
1.11804e-46
1.1171e-46
1.11614e-46
1.11516e-46
1.11416e-46
1.11313e-46
1.11209e-46
1.11103e-46
1.10995e-46
1.10885e-46
1.10774e-46
1.10661e-46
1.10546e-46
1.1043e-46
1.10312e-46
1.10194e-46
1.10082e-46
1.10018e-46
1.10343e-46
1.14033e-46
1.49562e-46
5.08061e-46
4.29071e-45
4.51922e-44
4.91268e-43
5.34811e-42
5.78162e-41
6.18199e-40
6.52444e-39
6.79131e-38
6.97365e-37
7.07231e-36
7.09768e-35
7.06742e-34
7.00221e-33
6.91937e-32
6.82449e-31
6.70199e-30
6.50918e-29
7.77995e-28
7.53101e-27
7.17799e-26
6.81764e-25
6.45497e-24
6.08912e-23
5.71677e-22
5.33329e-21
4.93418e-20
4.51643e-19
4.07975e-18
3.62727e-17
3.16575e-16
2.7051e-15
2.25728e-14
1.83488e-13
1.44945e-12
1.11012e-11
8.22474e-11
5.88173e-10
4.05104e-09
2.68088e-08
1.70075e-07
1.03158e-06
5.96092e-06
3.26248e-05
0.000167114
0.000778363
0.00309089
0.00951152
0.0216869
0.0382847
0.0582576
0.0819644
0.108269
0.133673
0.154886
0.170856
0.182243
0.190237
0.195919
0.200088
0.203275
0.205822
0.207939
0.209758
0.211359
0.212792
0.214091
0.215278
0.216371
0.217386
0.218333
0.219225
0.220073
0.220886
0.221671
0.222438
0.223191
0.223936
0.224674
0.225385
0.226082
0.226778
0.227474
0.228168
0.228858
0.229542
0.230217
0.230879
0.231527
0.232158
0.232768
0.233356
0.233919
0.234456
0.234964
0.235444
0.235895
0.236315
0.236706
0.237068
0.2374
0.237705
0.237983
0.238235
0.238463
0.238669
0.238853
0.239018
0.239165
0.239295
0.23941
0.239512
0.239601
0.23968
0.239748
0.239808
0.23986
0.239905
0.239944
0.239978
0.240008
0.240033
0.240055
0.240073
0.240089
0.240103
0.240115
0.240125
0.240133
0.24014
0.240146
0.240152
0.240156
0.24016
0.240163
0.240166
0.240168
0.24017
0.240171
0.240173
0.240174
0.240175
0.240176
0.240177
0.240177
0.240178
0.240178
0.240178
0.240178
0.240178
0.240178
0.240178
0.240178
0.240178
0.240178
0.240178
0.240178
0.240178
0.240178
0.240178
0.240178
0.240178
0.240178
0.240178
0.240178
0.240178
0.240178
0.240178
0.240178
0.240178
0.240178
0.240178
0.240178
0.240178
0.240178
0.240178
0.240178
0.240178
0.240178
0.240177
0.240177
0.240177
0.240177
0.240177
0.240177
0.240177
0.240177
0.240177
0.240177
0.240177
0.240177
0.240177
0.240177
0.240177
0.240177
0.240177
0.240177
0.240177
0.240177
0.240177
0.240177
0.240177
0.240177
0.240177
0.240177
0.240177
0.240177
0.240177
0.240177
0.240177
0.240177
0.240177
0.240177
0.240177
0.240177
0.240177
0.240177
0.240177
0.240177
0.240177
0.240177
0.240177
0.240177
0.240177
0.240176
0.240176
0.240176
0.240176
0.240176
0.240176
0.240176
0.240176
0.240176
0.240176
0.240176
0.240176
0.240176
0.240176
0.240176
0.240176
0.240176
0.240176
0.240176
0.240176
0.240176
0.240176
0.240176
0.240176
0.240176
0.240176
0.240176
0.240176
0.240176
0.240176
0.240176
0.240176
0.240176
0.240176
0.240176
0.240176
0.240177
0.240177
0.240177
0.240177
0.240177
0.240177
0.240177
)
;

boundaryField
{
    boundary
    {
        type            empty;
    }
    inlet
    {
        type            fixedValue;
        value           uniform 0;
    }
    outlet
    {
        type            zeroGradient;
    }
}


// ************************************************************************* //
