/*--------------------------------*- C++ -*----------------------------------*\
  =========                 |
  \\      /  F ield         | OpenFOAM: The Open Source CFD Toolbox
   \\    /   O peration     | Website:  https://openfoam.org
    \\  /    A nd           | Version:  7
     \\/     M anipulation  |
\*---------------------------------------------------------------------------*/
FoamFile
{
    version     2.0;
    format      ascii;
    class       volScalarField;
    location    "7e-05";
    object      H2O2;
}
// * * * * * * * * * * * * * * * * * * * * * * * * * * * * * * * * * * * * * //

dimensions      [0 0 0 0 0 0 0];

internalField   nonuniform List<scalar> 
500
(
1.89706e-52
5.81651e-52
1.07699e-51
1.60741e-51
2.10622e-51
2.52591e-51
2.8459e-51
3.06925e-51
3.2132e-51
3.29955e-51
3.34806e-51
3.37374e-51
3.38662e-51
3.39275e-51
3.39554e-51
3.39675e-51
3.39725e-51
3.39745e-51
3.39752e-51
3.39754e-51
3.39754e-51
3.39754e-51
3.39753e-51
3.39752e-51
3.39751e-51
3.3975e-51
3.39749e-51
3.39748e-51
3.39748e-51
3.39747e-51
3.39746e-51
3.39745e-51
3.39745e-51
3.39744e-51
3.39744e-51
3.39743e-51
3.39743e-51
3.39743e-51
3.39743e-51
3.39743e-51
3.39743e-51
3.39744e-51
3.39744e-51
3.39745e-51
3.39746e-51
3.39747e-51
3.39748e-51
3.3975e-51
3.39752e-51
3.39754e-51
3.39756e-51
3.39758e-51
3.39761e-51
3.39764e-51
3.39767e-51
3.3977e-51
3.39774e-51
3.39778e-51
3.39783e-51
3.39787e-51
3.39792e-51
3.39798e-51
3.39804e-51
3.3981e-51
3.39816e-51
3.39823e-51
3.3983e-51
3.39838e-51
3.39846e-51
3.39854e-51
3.39863e-51
3.39872e-51
3.39881e-51
3.39892e-51
3.39902e-51
3.39913e-51
3.39924e-51
3.39936e-51
3.39949e-51
3.39961e-51
3.39975e-51
3.39988e-51
3.40003e-51
3.40018e-51
3.40033e-51
3.40049e-51
3.40065e-51
3.40082e-51
3.40099e-51
3.40117e-51
3.40136e-51
3.40155e-51
3.40174e-51
3.40194e-51
3.40215e-51
3.40236e-51
3.40258e-51
3.4028e-51
3.40303e-51
3.40326e-51
3.4035e-51
3.40375e-51
3.404e-51
3.40426e-51
3.40452e-51
3.40479e-51
3.40506e-51
3.40534e-51
3.40562e-51
3.40591e-51
3.40621e-51
3.40651e-51
3.40681e-51
3.40712e-51
3.40744e-51
3.40776e-51
3.40808e-51
3.40841e-51
3.40873e-51
3.40904e-51
3.4092e-51
3.4087e-51
3.40543e-51
3.39128e-51
3.33619e-51
3.23502e-51
3.26046e-51
3.29423e-51
3.32897e-51
3.3587e-51
3.38077e-51
3.39543e-51
3.40436e-51
3.40947e-51
3.41231e-51
3.41388e-51
3.41482e-51
3.41544e-51
3.41591e-51
3.41632e-51
3.41669e-51
3.41706e-51
3.41741e-51
3.41775e-51
3.41809e-51
3.41842e-51
3.41875e-51
3.41906e-51
3.41936e-51
3.41966e-51
3.41994e-51
3.42021e-51
3.42046e-51
3.4207e-51
3.42093e-51
3.42114e-51
3.42133e-51
3.4215e-51
3.42165e-51
3.42178e-51
3.42188e-51
3.42196e-51
3.42202e-51
3.42205e-51
3.42205e-51
3.42202e-51
3.42196e-51
3.42186e-51
3.42174e-51
3.42157e-51
3.42137e-51
3.42113e-51
3.42085e-51
3.42052e-51
3.42015e-51
3.41974e-51
3.41928e-51
3.41877e-51
3.4182e-51
3.41759e-51
3.41692e-51
3.4162e-51
3.41542e-51
3.41458e-51
3.41368e-51
3.41272e-51
3.4117e-51
3.41061e-51
3.40945e-51
3.40823e-51
3.40694e-51
3.40558e-51
3.40415e-51
3.40264e-51
3.40106e-51
3.39941e-51
3.39768e-51
3.39588e-51
3.394e-51
3.39204e-51
3.39001e-51
3.38789e-51
3.3857e-51
3.38343e-51
3.38109e-51
3.37866e-51
3.37616e-51
3.37358e-51
3.37092e-51
3.36819e-51
3.36538e-51
3.3625e-51
3.35954e-51
3.35651e-51
3.35341e-51
3.35025e-51
3.34701e-51
3.34371e-51
3.34034e-51
3.33691e-51
3.33342e-51
3.32987e-51
3.32627e-51
3.32261e-51
3.3189e-51
3.31514e-51
3.31133e-51
3.30747e-51
3.30359e-51
3.29975e-51
3.29638e-51
3.29625e-51
3.31722e-51
3.4847e-51
4.82642e-51
1.80203e-50
1.82808e-49
2.6097e-48
4.12035e-47
6.70439e-46
1.09483e-44
1.77559e-43
2.848e-42
4.51042e-41
7.04923e-40
1.08721e-38
1.6551e-37
2.4873e-36
3.68904e-35
5.39512e-34
7.76974e-33
1.47809e-31
2.05129e-30
2.77619e-29
3.69037e-28
4.81502e-27
6.16119e-26
7.7246e-25
9.4801e-24
1.1377e-22
1.33367e-21
1.52534e-20
1.69995e-19
1.84366e-18
1.94303e-17
1.98687e-16
1.96803e-15
1.8849e-14
1.74214e-13
1.55046e-12
1.32529e-11
1.08475e-10
8.47022e-10
6.27996e-09
4.3932e-08
2.87306e-07
1.727e-06
9.15874e-06
3.83172e-05
9.84708e-05
0.000136012
0.000125066
7.24611e-05
3.12288e-05
1.2484e-05
6.11435e-06
4.54342e-06
4.59854e-06
5.104e-06
5.61936e-06
5.99745e-06
6.21347e-06
6.28796e-06
6.25242e-06
6.13597e-06
5.96158e-06
5.74605e-06
5.50129e-06
5.23563e-06
4.95521e-06
4.66475e-06
4.36822e-06
4.06924e-06
3.77135e-06
3.47804e-06
3.19265e-06
2.91828e-06
2.65762e-06
2.41281e-06
2.18539e-06
1.97625e-06
1.78571e-06
1.61874e-06
1.47032e-06
1.33631e-06
1.2158e-06
1.10777e-06
1.01118e-06
9.24971e-07
8.48108e-07
7.79616e-07
7.18584e-07
6.64178e-07
6.15639e-07
5.7229e-07
5.33527e-07
4.98817e-07
4.6769e-07
4.39734e-07
4.14589e-07
3.9194e-07
3.71514e-07
3.5307e-07
3.364e-07
3.21322e-07
3.07678e-07
2.95327e-07
2.84146e-07
2.74028e-07
2.64875e-07
2.56602e-07
2.49131e-07
2.42393e-07
2.36324e-07
2.30867e-07
2.25969e-07
2.2158e-07
2.17657e-07
2.14156e-07
2.11041e-07
2.08274e-07
2.05823e-07
2.03657e-07
2.01748e-07
2.00069e-07
1.98596e-07
1.97308e-07
1.96183e-07
1.95205e-07
1.94355e-07
1.93619e-07
1.92983e-07
1.92435e-07
1.91963e-07
1.91559e-07
1.91213e-07
1.90917e-07
1.90665e-07
1.9045e-07
1.90267e-07
1.90111e-07
1.89978e-07
1.89863e-07
1.89764e-07
1.89675e-07
1.89589e-07
1.89522e-07
1.89489e-07
1.89458e-07
1.89432e-07
1.8941e-07
1.89393e-07
1.89378e-07
1.89367e-07
1.89357e-07
1.89349e-07
1.89342e-07
1.89336e-07
1.8933e-07
1.89325e-07
1.8932e-07
1.89316e-07
1.89312e-07
1.89308e-07
1.89304e-07
1.89301e-07
1.89297e-07
1.89293e-07
1.8929e-07
1.89286e-07
1.89283e-07
1.89279e-07
1.89276e-07
1.89273e-07
1.89269e-07
1.89266e-07
1.89262e-07
1.89259e-07
1.89256e-07
1.89252e-07
1.89249e-07
1.89245e-07
1.89242e-07
1.89239e-07
1.89235e-07
1.89232e-07
1.89228e-07
1.89225e-07
1.89222e-07
1.89218e-07
1.89215e-07
1.89212e-07
1.89208e-07
1.89205e-07
1.89202e-07
1.89198e-07
1.89195e-07
1.89192e-07
1.89188e-07
1.89185e-07
1.89182e-07
1.89178e-07
1.89175e-07
1.89172e-07
1.89169e-07
1.89165e-07
1.89162e-07
1.89159e-07
1.89156e-07
1.89153e-07
1.89149e-07
1.89146e-07
1.89143e-07
1.8914e-07
1.89137e-07
1.89134e-07
1.89131e-07
1.89128e-07
1.89125e-07
1.89122e-07
1.89119e-07
1.89116e-07
1.89114e-07
1.89111e-07
1.89108e-07
1.89105e-07
1.89103e-07
1.891e-07
1.89098e-07
1.89095e-07
1.89092e-07
1.8909e-07
1.89088e-07
1.89085e-07
1.89083e-07
1.89081e-07
1.89078e-07
1.89076e-07
1.89074e-07
1.89072e-07
1.8907e-07
1.89068e-07
1.89066e-07
1.89064e-07
1.89062e-07
1.8906e-07
1.89058e-07
1.89057e-07
1.89055e-07
1.89053e-07
1.89052e-07
1.8905e-07
1.89049e-07
1.89047e-07
1.89046e-07
1.89045e-07
1.89043e-07
1.89042e-07
1.89041e-07
1.8904e-07
1.89039e-07
1.89038e-07
1.89037e-07
1.89036e-07
1.89035e-07
1.89034e-07
1.89033e-07
1.89032e-07
1.8903e-07
1.89029e-07
)
;

boundaryField
{
    boundary
    {
        type            empty;
    }
    inlet
    {
        type            fixedValue;
        value           uniform 0;
    }
    outlet
    {
        type            zeroGradient;
    }
}


// ************************************************************************* //
