/*--------------------------------*- C++ -*----------------------------------*\
  =========                 |
  \\      /  F ield         | OpenFOAM: The Open Source CFD Toolbox
   \\    /   O peration     | Website:  https://openfoam.org
    \\  /    A nd           | Version:  7
     \\/     M anipulation  |
\*---------------------------------------------------------------------------*/
FoamFile
{
    version     2.0;
    format      ascii;
    class       volScalarField;
    location    "7e-05";
    object      HO2;
}
// * * * * * * * * * * * * * * * * * * * * * * * * * * * * * * * * * * * * * //

dimensions      [0 0 0 0 0 0 0];

internalField   nonuniform List<scalar> 
500
(
5.78922e-38
1.32852e-37
2.05443e-37
2.70996e-37
3.25888e-37
3.68425e-37
3.98956e-37
4.19315e-37
4.31981e-37
4.39366e-37
4.4342e-37
4.45524e-37
4.4656e-37
4.47045e-37
4.47262e-37
4.47353e-37
4.47389e-37
4.47401e-37
4.47403e-37
4.474e-37
4.47397e-37
4.47392e-37
4.47387e-37
4.47382e-37
4.47377e-37
4.47371e-37
4.47366e-37
4.4736e-37
4.47354e-37
4.47348e-37
4.47341e-37
4.47335e-37
4.47328e-37
4.47322e-37
4.47315e-37
4.47308e-37
4.47301e-37
4.47294e-37
4.47286e-37
4.47279e-37
4.47272e-37
4.47264e-37
4.47257e-37
4.47249e-37
4.47242e-37
4.47234e-37
4.47227e-37
4.47219e-37
4.47212e-37
4.47204e-37
4.47197e-37
4.4719e-37
4.47182e-37
4.47175e-37
4.47168e-37
4.47161e-37
4.47154e-37
4.47147e-37
4.4714e-37
4.47133e-37
4.47127e-37
4.4712e-37
4.47114e-37
4.47108e-37
4.47102e-37
4.47096e-37
4.47091e-37
4.47085e-37
4.4708e-37
4.47075e-37
4.4707e-37
4.47066e-37
4.47061e-37
4.47057e-37
4.47053e-37
4.4705e-37
4.47047e-37
4.47044e-37
4.47041e-37
4.47038e-37
4.47036e-37
4.47034e-37
4.47033e-37
4.47032e-37
4.47031e-37
4.4703e-37
4.4703e-37
4.4703e-37
4.47031e-37
4.47032e-37
4.47033e-37
4.47034e-37
4.47036e-37
4.47039e-37
4.47041e-37
4.47044e-37
4.47048e-37
4.47052e-37
4.47056e-37
4.4706e-37
4.47065e-37
4.47071e-37
4.47076e-37
4.47083e-37
4.47089e-37
4.47096e-37
4.47103e-37
4.47111e-37
4.47119e-37
4.47127e-37
4.47136e-37
4.47145e-37
4.47155e-37
4.47164e-37
4.47175e-37
4.47185e-37
4.47196e-37
4.47207e-37
4.47217e-37
4.47226e-37
4.47225e-37
4.47178e-37
4.46934e-37
4.45913e-37
4.41933e-37
4.3469e-37
4.36625e-37
4.39079e-37
4.4154e-37
4.43616e-37
4.45141e-37
4.46145e-37
4.46749e-37
4.47088e-37
4.4727e-37
4.47365e-37
4.47416e-37
4.47445e-37
4.47464e-37
4.47478e-37
4.4749e-37
4.475e-37
4.4751e-37
4.47519e-37
4.47527e-37
4.47534e-37
4.47541e-37
4.47546e-37
4.4755e-37
4.47553e-37
4.47555e-37
4.47556e-37
4.47555e-37
4.47552e-37
4.47548e-37
4.47542e-37
4.47535e-37
4.47525e-37
4.47513e-37
4.47499e-37
4.47483e-37
4.47464e-37
4.47443e-37
4.47419e-37
4.47392e-37
4.47363e-37
4.4733e-37
4.47294e-37
4.47254e-37
4.47211e-37
4.47164e-37
4.47114e-37
4.47059e-37
4.47001e-37
4.46938e-37
4.46871e-37
4.46799e-37
4.46722e-37
4.46641e-37
4.46554e-37
4.46462e-37
4.46365e-37
4.46263e-37
4.46154e-37
4.4604e-37
4.4592e-37
4.45795e-37
4.45662e-37
4.45524e-37
4.45379e-37
4.45228e-37
4.4507e-37
4.44905e-37
4.44733e-37
4.44554e-37
4.44369e-37
4.44176e-37
4.43976e-37
4.43769e-37
4.43554e-37
4.43333e-37
4.43103e-37
4.42867e-37
4.42623e-37
4.42372e-37
4.42114e-37
4.41848e-37
4.41575e-37
4.41295e-37
4.41008e-37
4.40714e-37
4.40413e-37
4.40105e-37
4.3979e-37
4.39469e-37
4.39142e-37
4.38808e-37
4.38468e-37
4.38123e-37
4.37771e-37
4.37414e-37
4.37052e-37
4.36685e-37
4.36313e-37
4.35936e-37
4.35555e-37
4.35169e-37
4.3478e-37
4.34388e-37
4.34e-37
4.33655e-37
4.33598e-37
4.35319e-37
4.48003e-37
5.28105e-37
1.02218e-36
4.05168e-36
2.25463e-35
1.34806e-34
8.10937e-34
4.84285e-33
2.86013e-32
1.66764e-31
9.59538e-31
5.45377e-30
3.06967e-29
1.7172e-28
9.58338e-28
5.34989e-27
2.99013e-26
1.67297e-25
9.82084e-25
5.52765e-24
3.08838e-23
1.72947e-22
9.72181e-22
5.49056e-21
3.11917e-20
1.78539e-19
1.03193e-18
6.03892e-18
3.58877e-17
2.17173e-16
1.34069e-15
8.44394e-15
5.41278e-14
3.51387e-13
2.29345e-12
1.49193e-11
9.58468e-11
6.02753e-10
3.68106e-09
2.16576e-08
1.21787e-07
6.47848e-07
3.22235e-06
1.4733e-05
5.95701e-05
0.000195611
0.000431059
0.000521275
0.000459098
0.000347907
0.000247291
0.000173221
0.000120879
8.39869e-05
5.87296e-05
4.19764e-05
3.10909e-05
2.40185e-05
1.93357e-05
1.61299e-05
1.38401e-05
1.21275e-05
1.0788e-05
9.6977e-06
8.7805e-06
7.98878e-06
7.29223e-06
6.67113e-06
6.11237e-06
5.60699e-06
5.14869e-06
4.7329e-06
4.35611e-06
4.01554e-06
3.70883e-06
3.43392e-06
3.18888e-06
2.97186e-06
2.78107e-06
2.61965e-06
2.48094e-06
2.36021e-06
2.25591e-06
2.16651e-06
2.09044e-06
2.02618e-06
1.97222e-06
1.92716e-06
1.88967e-06
1.85854e-06
1.8327e-06
1.8112e-06
1.79326e-06
1.77821e-06
1.76551e-06
1.75473e-06
1.74555e-06
1.73772e-06
1.73105e-06
1.7254e-06
1.72066e-06
1.71676e-06
1.71361e-06
1.71117e-06
1.70937e-06
1.70816e-06
1.70747e-06
1.70724e-06
1.70742e-06
1.70793e-06
1.70874e-06
1.70976e-06
1.71096e-06
1.71228e-06
1.71367e-06
1.71511e-06
1.71656e-06
1.71798e-06
1.71937e-06
1.72069e-06
1.72194e-06
1.72312e-06
1.72421e-06
1.72521e-06
1.72612e-06
1.72695e-06
1.7277e-06
1.72837e-06
1.72896e-06
1.72949e-06
1.72996e-06
1.73037e-06
1.73074e-06
1.73105e-06
1.73133e-06
1.73157e-06
1.73179e-06
1.73198e-06
1.73214e-06
1.73229e-06
1.73243e-06
1.73256e-06
1.7326e-06
1.73266e-06
1.73285e-06
1.73294e-06
1.73299e-06
1.73302e-06
1.73305e-06
1.73308e-06
1.73311e-06
1.73314e-06
1.73316e-06
1.73319e-06
1.73322e-06
1.73324e-06
1.73327e-06
1.73329e-06
1.73332e-06
1.73335e-06
1.73337e-06
1.7334e-06
1.73342e-06
1.73344e-06
1.73347e-06
1.73349e-06
1.73352e-06
1.73354e-06
1.73356e-06
1.73359e-06
1.73361e-06
1.73363e-06
1.73365e-06
1.73368e-06
1.7337e-06
1.73372e-06
1.73374e-06
1.73377e-06
1.73379e-06
1.73381e-06
1.73383e-06
1.73385e-06
1.73388e-06
1.7339e-06
1.73392e-06
1.73394e-06
1.73396e-06
1.73398e-06
1.734e-06
1.73402e-06
1.73405e-06
1.73407e-06
1.73409e-06
1.73411e-06
1.73413e-06
1.73415e-06
1.73417e-06
1.73418e-06
1.7342e-06
1.73422e-06
1.73424e-06
1.73426e-06
1.73428e-06
1.7343e-06
1.73431e-06
1.73433e-06
1.73435e-06
1.73436e-06
1.73438e-06
1.7344e-06
1.73441e-06
1.73443e-06
1.73444e-06
1.73446e-06
1.73447e-06
1.73449e-06
1.7345e-06
1.73451e-06
1.73453e-06
1.73454e-06
1.73455e-06
1.73456e-06
1.73457e-06
1.73458e-06
1.73459e-06
1.7346e-06
1.73461e-06
1.73462e-06
1.73463e-06
1.73464e-06
1.73464e-06
1.73465e-06
1.73465e-06
1.73466e-06
1.73466e-06
1.73467e-06
1.73467e-06
1.73468e-06
1.73468e-06
1.73468e-06
1.73468e-06
1.73468e-06
1.73468e-06
1.73468e-06
1.73468e-06
1.73468e-06
1.73468e-06
1.73467e-06
1.73467e-06
1.73467e-06
1.73466e-06
1.73466e-06
1.73465e-06
1.73465e-06
1.73464e-06
1.73463e-06
1.73462e-06
1.73462e-06
1.73461e-06
1.7346e-06
1.73459e-06
1.73458e-06
1.73457e-06
1.73456e-06
1.73455e-06
1.73454e-06
1.73454e-06
)
;

boundaryField
{
    boundary
    {
        type            empty;
    }
    inlet
    {
        type            fixedValue;
        value           uniform 0;
    }
    outlet
    {
        type            zeroGradient;
    }
}


// ************************************************************************* //
