/*--------------------------------*- C++ -*----------------------------------*\
  =========                 |
  \\      /  F ield         | OpenFOAM: The Open Source CFD Toolbox
   \\    /   O peration     | Website:  https://openfoam.org
    \\  /    A nd           | Version:  7
     \\/     M anipulation  |
\*---------------------------------------------------------------------------*/
FoamFile
{
    version     2.0;
    format      ascii;
    class       volScalarField;
    location    "7e-05";
    object      O;
}
// * * * * * * * * * * * * * * * * * * * * * * * * * * * * * * * * * * * * * //

dimensions      [0 0 0 0 0 0 0];

internalField   nonuniform List<scalar> 
500
(
1.66914e-47
4.04125e-47
6.37603e-47
8.52477e-47
1.0368e-46
1.18393e-46
1.29328e-46
1.36914e-46
1.41847e-46
1.44865e-46
1.46611e-46
1.47571e-46
1.48072e-46
1.48323e-46
1.48443e-46
1.48498e-46
1.48521e-46
1.4853e-46
1.48532e-46
1.48532e-46
1.48531e-46
1.48528e-46
1.48526e-46
1.48523e-46
1.48521e-46
1.48518e-46
1.48515e-46
1.48512e-46
1.48509e-46
1.48506e-46
1.48503e-46
1.48499e-46
1.48496e-46
1.48493e-46
1.48489e-46
1.48486e-46
1.48482e-46
1.48478e-46
1.48475e-46
1.48471e-46
1.48467e-46
1.48463e-46
1.48459e-46
1.48456e-46
1.48452e-46
1.48448e-46
1.48444e-46
1.4844e-46
1.48436e-46
1.48432e-46
1.48428e-46
1.48424e-46
1.4842e-46
1.48417e-46
1.48413e-46
1.48409e-46
1.48405e-46
1.48401e-46
1.48398e-46
1.48394e-46
1.48391e-46
1.48387e-46
1.48384e-46
1.4838e-46
1.48377e-46
1.48374e-46
1.4837e-46
1.48367e-46
1.48364e-46
1.48361e-46
1.48358e-46
1.48356e-46
1.48353e-46
1.4835e-46
1.48348e-46
1.48346e-46
1.48343e-46
1.48341e-46
1.48339e-46
1.48337e-46
1.48336e-46
1.48334e-46
1.48333e-46
1.48331e-46
1.4833e-46
1.48329e-46
1.48328e-46
1.48327e-46
1.48327e-46
1.48326e-46
1.48326e-46
1.48325e-46
1.48325e-46
1.48325e-46
1.48326e-46
1.48326e-46
1.48327e-46
1.48327e-46
1.48328e-46
1.48329e-46
1.48331e-46
1.48332e-46
1.48334e-46
1.48335e-46
1.48337e-46
1.48339e-46
1.48341e-46
1.48344e-46
1.48346e-46
1.48349e-46
1.48352e-46
1.48354e-46
1.48358e-46
1.48361e-46
1.48364e-46
1.48368e-46
1.48371e-46
1.48375e-46
1.48377e-46
1.48377e-46
1.48367e-46
1.48318e-46
1.48146e-46
1.47602e-46
1.46048e-46
1.44029e-46
1.44566e-46
1.45449e-46
1.46331e-46
1.47059e-46
1.47593e-46
1.47948e-46
1.4817e-46
1.483e-46
1.48374e-46
1.48415e-46
1.48439e-46
1.48452e-46
1.4846e-46
1.48466e-46
1.4847e-46
1.48474e-46
1.48477e-46
1.48479e-46
1.48482e-46
1.48483e-46
1.48485e-46
1.48486e-46
1.48486e-46
1.48486e-46
1.48486e-46
1.48485e-46
1.48483e-46
1.4848e-46
1.48477e-46
1.48473e-46
1.48468e-46
1.48463e-46
1.48456e-46
1.48449e-46
1.4844e-46
1.48431e-46
1.4842e-46
1.48408e-46
1.48395e-46
1.48381e-46
1.48365e-46
1.48348e-46
1.48329e-46
1.48309e-46
1.48287e-46
1.48264e-46
1.48239e-46
1.48212e-46
1.48183e-46
1.48152e-46
1.4812e-46
1.48085e-46
1.48048e-46
1.48009e-46
1.47968e-46
1.47924e-46
1.47878e-46
1.47829e-46
1.47779e-46
1.47725e-46
1.47669e-46
1.4761e-46
1.47549e-46
1.47484e-46
1.47417e-46
1.47347e-46
1.47274e-46
1.47199e-46
1.4712e-46
1.47038e-46
1.46953e-46
1.46865e-46
1.46774e-46
1.4668e-46
1.46582e-46
1.46482e-46
1.46378e-46
1.46272e-46
1.46162e-46
1.46049e-46
1.45933e-46
1.45814e-46
1.45691e-46
1.45566e-46
1.45438e-46
1.45307e-46
1.45173e-46
1.45036e-46
1.44896e-46
1.44754e-46
1.44609e-46
1.44462e-46
1.44312e-46
1.44159e-46
1.44005e-46
1.43848e-46
1.43689e-46
1.43528e-46
1.43365e-46
1.43201e-46
1.43036e-46
1.42877e-46
1.4277e-46
1.4304e-46
1.46164e-46
1.72548e-46
4.04439e-46
2.58174e-45
2.41086e-44
2.43882e-43
2.52361e-42
2.62807e-41
2.73169e-40
2.81972e-39
2.88092e-38
2.90693e-37
2.89226e-36
2.83461e-35
2.73515e-34
2.5987e-33
2.43362e-32
2.25145e-31
2.06589e-30
1.8875e-29
1.69812e-28
1.70009e-27
1.42844e-26
1.16363e-25
9.27899e-25
7.23895e-24
5.51939e-23
4.10823e-22
2.98152e-21
2.10698e-20
1.44779e-19
9.65808e-19
6.24435e-18
3.90571e-17
2.35868e-16
1.37236e-15
7.67552e-15
4.11656e-14
2.1118e-13
1.03359e-12
4.81447e-12
2.12959e-11
8.93096e-11
3.54954e-10
1.33932e-09
4.82863e-09
1.69528e-08
6.14742e-08
2.67801e-07
1.64228e-06
1.18077e-05
6.48115e-05
0.000269721
0.000855819
0.00191878
0.00321325
0.00437054
0.00516835
0.00560044
0.00575455
0.00572651
0.00558951
0.00539224
0.00516511
0.0049265
0.0046873
0.00445387
0.00422979
0.00401694
0.0038161
0.00362735
0.00345032
0.00328432
0.0031285
0.0029819
0.00284353
0.00271244
0.00258776
0.00246873
0.00235468
0.0022451
0.00213964
0.0020411
0.00194772
0.00185712
0.00176928
0.00168422
0.00160199
0.00152266
0.00144631
0.00137305
0.00130293
0.00123603
0.00117238
0.00111202
0.00105494
0.00100113
0.000950539
0.000903112
0.000858771
0.000817421
0.000778959
0.00074327
0.000710232
0.000679718
0.000651601
0.000625748
0.000602032
0.000580325
0.0005605
0.000542435
0.000526012
0.000511117
0.00049764
0.000485475
0.000474521
0.000464683
0.000455869
0.000447993
0.000440973
0.000434734
0.000429202
0.00042431
0.000419997
0.000416203
0.000412875
0.000409964
0.000407424
0.000405214
0.000403296
0.000401636
0.000400204
0.00039897
0.000397911
0.000397004
0.000396229
0.000395568
0.000395006
0.000394529
0.000394124
0.000393781
0.00039349
0.000393243
0.000393031
0.000392845
0.000392673
0.000392531
0.000392467
0.000392405
0.000392353
0.00039231
0.000392277
0.000392252
0.000392233
0.000392218
0.000392208
0.0003922
0.000392195
0.000392191
0.000392188
0.000392186
0.000392185
0.000392185
0.000392185
0.000392185
0.000392186
0.000392186
0.000392187
0.000392188
0.000392189
0.00039219
0.000392191
0.000392192
0.000392193
0.000392194
0.000392195
0.000392196
0.000392197
0.000392198
0.000392199
0.0003922
0.000392201
0.000392202
0.000392203
0.000392203
0.000392204
0.000392205
0.000392206
0.000392207
0.000392208
0.000392209
0.00039221
0.00039221
0.000392211
0.000392212
0.000392213
0.000392214
0.000392214
0.000392215
0.000392216
0.000392217
0.000392217
0.000392218
0.000392219
0.00039222
0.00039222
0.000392221
0.000392221
0.000392222
0.000392223
0.000392223
0.000392224
0.000392225
0.000392225
0.000392226
0.000392226
0.000392227
0.000392227
0.000392228
0.000392228
0.000392229
0.000392229
0.000392229
0.00039223
0.00039223
0.00039223
0.000392231
0.000392231
0.000392231
0.000392232
0.000392232
0.000392232
0.000392232
0.000392232
0.000392232
0.000392233
0.000392233
0.000392233
0.000392233
0.000392233
0.000392233
0.000392233
0.000392233
0.000392233
0.000392232
0.000392232
0.000392232
0.000392232
0.000392232
0.000392232
0.000392231
0.000392231
0.000392231
0.00039223
0.00039223
0.00039223
0.000392229
0.000392229
0.000392228
0.000392228
0.000392227
0.000392227
0.000392226
0.000392226
0.000392225
0.000392225
0.000392224
0.000392224
0.000392223
0.000392223
)
;

boundaryField
{
    boundary
    {
        type            empty;
    }
    inlet
    {
        type            fixedValue;
        value           uniform 0;
    }
    outlet
    {
        type            zeroGradient;
    }
}


// ************************************************************************* //
