/*--------------------------------*- C++ -*----------------------------------*\
  =========                 |
  \\      /  F ield         | OpenFOAM: The Open Source CFD Toolbox
   \\    /   O peration     | Website:  https://openfoam.org
    \\  /    A nd           | Version:  7
     \\/     M anipulation  |
\*---------------------------------------------------------------------------*/
FoamFile
{
    version     2.0;
    format      ascii;
    class       volScalarField;
    location    "7e-05";
    object      O2;
}
// * * * * * * * * * * * * * * * * * * * * * * * * * * * * * * * * * * * * * //

dimensions      [0 0 0 0 0 0 0];

internalField   nonuniform List<scalar> 
500
(
0.226269
0.226269
0.226269
0.226269
0.226269
0.226269
0.226269
0.226269
0.226269
0.226269
0.226269
0.226269
0.226269
0.226269
0.226269
0.226269
0.226269
0.226269
0.226269
0.226269
0.226269
0.226269
0.226269
0.226269
0.226269
0.226269
0.226269
0.226269
0.226269
0.226269
0.226269
0.226269
0.226269
0.226269
0.226269
0.226269
0.226269
0.226269
0.226269
0.226269
0.226269
0.226269
0.226269
0.226269
0.226269
0.226269
0.226269
0.226269
0.226269
0.226269
0.226269
0.226269
0.226269
0.226269
0.226269
0.226269
0.226269
0.226269
0.226269
0.226269
0.226269
0.226269
0.226269
0.226269
0.226269
0.226269
0.226269
0.226269
0.226269
0.226269
0.226269
0.226269
0.226269
0.226269
0.226269
0.226269
0.226269
0.226269
0.226269
0.226269
0.226269
0.226269
0.226269
0.226269
0.226269
0.226269
0.226269
0.226269
0.226269
0.226269
0.226269
0.226269
0.226269
0.226269
0.226269
0.226269
0.226269
0.226269
0.226269
0.226269
0.226269
0.226269
0.226269
0.226269
0.226269
0.226269
0.226269
0.226269
0.226269
0.226269
0.226269
0.226269
0.226269
0.226269
0.226269
0.226269
0.226269
0.226269
0.226269
0.226269
0.226269
0.226269
0.226269
0.226269
0.226269
0.226269
0.226269
0.226269
0.226269
0.226269
0.226269
0.226269
0.226269
0.226269
0.226269
0.226269
0.226269
0.226269
0.226269
0.226269
0.226269
0.226269
0.226269
0.226269
0.226269
0.226269
0.226269
0.226269
0.226269
0.226269
0.226269
0.226269
0.226269
0.226269
0.226269
0.226269
0.226269
0.226269
0.226269
0.226269
0.226269
0.226269
0.226269
0.226269
0.226269
0.226269
0.226269
0.226269
0.226269
0.226269
0.226269
0.226269
0.226269
0.226269
0.226269
0.226269
0.226269
0.226269
0.226269
0.226269
0.226269
0.226269
0.226269
0.226269
0.226269
0.226269
0.226269
0.226269
0.226269
0.226269
0.226269
0.226269
0.226269
0.226269
0.226269
0.226269
0.226269
0.226269
0.226269
0.226269
0.226269
0.226269
0.226269
0.226269
0.226269
0.226269
0.226269
0.226269
0.226269
0.226269
0.226269
0.226269
0.226269
0.226269
0.226269
0.226269
0.226269
0.226269
0.226269
0.226269
0.226269
0.226269
0.226269
0.226269
0.226269
0.226269
0.226269
0.226269
0.226269
0.226269
0.226269
0.226269
0.226269
0.226269
0.226269
0.226269
0.226269
0.226269
0.226269
0.226269
0.226269
0.226269
0.226269
0.226269
0.226269
0.226269
0.226269
0.226269
0.226269
0.226269
0.226269
0.226269
0.226269
0.226269
0.226269
0.226269
0.226269
0.226269
0.226269
0.226269
0.226269
0.226269
0.226269
0.226269
0.226269
0.226269
0.226269
0.226269
0.226269
0.226269
0.226269
0.226269
0.22627
0.226271
0.226273
0.226276
0.226267
0.226171
0.225671
0.223815
0.218709
0.208601
0.194635
0.177183
0.155152
0.129419
0.103718
0.0818064
0.0650875
0.0530832
0.0446515
0.0386943
0.0343779
0.0311318
0.0285853
0.0265046
0.0247437
0.023212
0.0218533
0.0206318
0.0195242
0.0185148
0.0175917
0.016746
0.01597
0.0152569
0.0146006
0.0139955
0.0134365
0.0129189
0.0124389
0.0119929
0.0115907
0.0112198
0.0108703
0.0105409
0.0102301
0.00993716
0.00966113
0.00940142
0.00915757
0.0089292
0.00871604
0.00851785
0.00833442
0.00816554
0.00801099
0.00787049
0.00774372
0.00763028
0.00752971
0.00744146
0.00736491
0.00729939
0.00724413
0.00719834
0.0071612
0.00713184
0.00710941
0.00709307
0.007082
0.00707541
0.00707256
0.00707279
0.00707546
0.00708003
0.00708601
0.00709298
0.00710058
0.00710852
0.00711655
0.00712448
0.00713216
0.00713948
0.00714637
0.00715277
0.00715865
0.00716401
0.00716886
0.0071732
0.00717707
0.0071805
0.00718351
0.00718614
0.00718843
0.00719041
0.00719211
0.00719358
0.00719483
0.0071959
0.00719681
0.00719759
0.00719825
0.00719884
0.00719938
0.0071999
0.00720035
0.00720051
0.00720063
0.00720071
0.00720079
0.00720085
0.0072009
0.00720094
0.00720098
0.00720101
0.00720103
0.00720105
0.00720107
0.00720108
0.00720108
0.00720109
0.00720109
0.0072011
0.0072011
0.0072011
0.0072011
0.00720109
0.00720109
0.00720109
0.00720109
0.00720108
0.00720108
0.00720107
0.00720107
0.00720107
0.00720106
0.00720106
0.00720106
0.00720105
0.00720105
0.00720105
0.00720104
0.00720104
0.00720104
0.00720104
0.00720103
0.00720103
0.00720103
0.00720103
0.00720102
0.00720102
0.00720102
0.00720102
0.00720101
0.00720101
0.00720101
0.00720101
0.007201
0.007201
0.007201
0.007201
0.00720099
0.00720099
0.00720099
0.00720099
0.00720098
0.00720098
0.00720098
0.00720098
0.00720097
0.00720097
0.00720097
0.00720097
0.00720096
0.00720096
0.00720096
0.00720096
0.00720095
0.00720095
0.00720095
0.00720095
0.00720094
0.00720094
0.00720094
0.00720094
0.00720093
0.00720093
0.00720093
0.00720093
0.00720092
0.00720092
0.00720092
0.00720092
0.00720092
0.00720091
0.00720091
0.00720091
0.00720091
0.00720091
0.0072009
0.0072009
0.0072009
0.0072009
0.0072009
0.00720089
0.00720089
0.00720089
0.00720089
0.00720089
0.00720089
0.00720088
0.00720088
0.00720088
0.00720088
0.00720088
0.00720088
0.00720088
0.00720088
0.00720087
0.00720087
0.00720087
0.00720087
0.00720087
0.00720087
0.00720087
0.00720087
0.00720087
0.00720087
0.00720086
)
;

boundaryField
{
    boundary
    {
        type            empty;
    }
    inlet
    {
        type            fixedValue;
        value           uniform 0.226269;
    }
    outlet
    {
        type            zeroGradient;
    }
}


// ************************************************************************* //
