/*--------------------------------*- C++ -*----------------------------------*\
  =========                 |
  \\      /  F ield         | OpenFOAM: The Open Source CFD Toolbox
   \\    /   O peration     | Website:  https://openfoam.org
    \\  /    A nd           | Version:  7
     \\/     M anipulation  |
\*---------------------------------------------------------------------------*/
FoamFile
{
    version     2.0;
    format      ascii;
    class       volScalarField;
    location    "7e-05";
    object      OH;
}
// * * * * * * * * * * * * * * * * * * * * * * * * * * * * * * * * * * * * * //

dimensions      [0 0 0 0 0 0 0];

internalField   nonuniform List<scalar> 
500
(
1.01538e-47
2.10006e-47
2.95859e-47
3.63318e-47
4.15048e-47
4.53096e-47
4.79607e-47
4.96997e-47
5.07718e-47
5.13937e-47
5.17341e-47
5.19104e-47
5.19969e-47
5.20369e-47
5.20542e-47
5.20608e-47
5.20625e-47
5.2062e-47
5.20606e-47
5.20587e-47
5.20566e-47
5.20543e-47
5.20519e-47
5.20494e-47
5.20467e-47
5.2044e-47
5.20411e-47
5.20382e-47
5.20351e-47
5.2032e-47
5.20287e-47
5.20254e-47
5.20219e-47
5.20183e-47
5.20147e-47
5.2011e-47
5.20071e-47
5.20032e-47
5.19992e-47
5.19951e-47
5.19909e-47
5.19867e-47
5.19823e-47
5.19779e-47
5.19734e-47
5.19688e-47
5.19641e-47
5.19594e-47
5.19546e-47
5.19498e-47
5.19448e-47
5.19398e-47
5.19348e-47
5.19296e-47
5.19245e-47
5.19192e-47
5.19139e-47
5.19086e-47
5.19032e-47
5.18977e-47
5.18922e-47
5.18867e-47
5.18811e-47
5.18755e-47
5.18699e-47
5.18642e-47
5.18584e-47
5.18527e-47
5.18469e-47
5.1841e-47
5.18352e-47
5.18293e-47
5.18234e-47
5.18175e-47
5.18116e-47
5.18056e-47
5.17997e-47
5.17937e-47
5.17877e-47
5.17817e-47
5.17757e-47
5.17697e-47
5.17637e-47
5.17577e-47
5.17516e-47
5.17456e-47
5.17396e-47
5.17336e-47
5.17276e-47
5.17216e-47
5.17156e-47
5.17097e-47
5.17037e-47
5.16977e-47
5.16918e-47
5.16859e-47
5.168e-47
5.16741e-47
5.16682e-47
5.16624e-47
5.16565e-47
5.16507e-47
5.16449e-47
5.16391e-47
5.16334e-47
5.16276e-47
5.16219e-47
5.16162e-47
5.16105e-47
5.16049e-47
5.15992e-47
5.15936e-47
5.1588e-47
5.15824e-47
5.15768e-47
5.15712e-47
5.15657e-47
5.15601e-47
5.15545e-47
5.15487e-47
5.15421e-47
5.15329e-47
5.15145e-47
5.14679e-47
5.13607e-47
5.12423e-47
5.12234e-47
5.12834e-47
5.13487e-47
5.13981e-47
5.14304e-47
5.1449e-47
5.1458e-47
5.14606e-47
5.14593e-47
5.14557e-47
5.14509e-47
5.14453e-47
5.14393e-47
5.1433e-47
5.14266e-47
5.142e-47
5.14133e-47
5.14063e-47
5.13993e-47
5.1392e-47
5.13846e-47
5.1377e-47
5.13692e-47
5.13611e-47
5.13528e-47
5.13443e-47
5.13355e-47
5.13264e-47
5.1317e-47
5.13073e-47
5.12973e-47
5.12869e-47
5.12762e-47
5.12651e-47
5.12535e-47
5.12416e-47
5.12292e-47
5.12163e-47
5.1203e-47
5.11891e-47
5.11748e-47
5.11599e-47
5.11444e-47
5.11283e-47
5.11117e-47
5.10944e-47
5.10764e-47
5.10578e-47
5.10384e-47
5.10184e-47
5.09976e-47
5.0976e-47
5.09537e-47
5.09305e-47
5.09065e-47
5.08817e-47
5.0856e-47
5.08294e-47
5.08019e-47
5.07734e-47
5.0744e-47
5.07136e-47
5.06823e-47
5.06499e-47
5.06165e-47
5.05821e-47
5.05467e-47
5.05102e-47
5.04726e-47
5.04339e-47
5.03942e-47
5.03534e-47
5.03115e-47
5.02685e-47
5.02243e-47
5.01791e-47
5.01329e-47
5.00855e-47
5.0037e-47
4.99875e-47
4.99369e-47
4.98852e-47
4.98325e-47
4.97788e-47
4.97241e-47
4.96685e-47
4.96118e-47
4.95543e-47
4.94958e-47
4.94365e-47
4.93763e-47
4.93153e-47
4.92535e-47
4.91909e-47
4.91277e-47
4.90638e-47
4.89992e-47
4.89341e-47
4.88684e-47
4.88021e-47
4.87355e-47
4.86693e-47
4.86091e-47
4.8606e-47
4.91637e-47
5.55304e-47
1.24193e-46
8.71263e-46
9.02462e-45
9.75923e-44
1.05036e-42
1.11697e-41
1.171e-40
1.20911e-39
1.22941e-38
1.23164e-37
1.21721e-36
1.18908e-35
1.15128e-34
1.1083e-33
1.06431e-32
1.02204e-31
9.81347e-31
9.37404e-30
8.79417e-29
7.61595e-28
6.53736e-27
5.49395e-26
4.53104e-25
3.66548e-24
2.90659e-23
2.2576e-22
1.71633e-21
1.27621e-20
9.27443e-20
6.58241e-19
4.55946e-18
3.08029e-17
2.02842e-16
1.30128e-15
8.12823e-15
4.9408e-14
2.92102e-13
1.67873e-12
9.37527e-12
5.0874e-11
2.70896e-10
1.4159e-09
7.25794e-09
3.6628e-08
1.85147e-07
9.85163e-07
6.03695e-06
4.18157e-05
0.0002312
0.000594505
0.000811891
0.00098364
0.00140195
0.00223265
0.00341933
0.00473236
0.00596337
0.00699799
0.00781023
0.0084221
0.00887178
0.00919735
0.0094311
0.00959853
0.00971927
0.00980817
0.00987633
0.00993185
0.00998048
0.010026
0.0100706
0.0101151
0.0101593
0.0102021
0.0102418
0.0102766
0.010304
0.010322
0.0103284
0.0103216
0.010301
0.0102671
0.0102188
0.0101557
0.0100778
0.00998547
0.00987945
0.00976067
0.00963032
0.00948975
0.00934044
0.00918394
0.00902183
0.00885569
0.00868706
0.0085174
0.00834808
0.00818034
0.00801533
0.00785404
0.00769735
0.00754598
0.00740055
0.00726154
0.00712934
0.00700421
0.00688632
0.00677574
0.0066725
0.0065765
0.00648763
0.00640569
0.00633045
0.00626165
0.00619899
0.00614214
0.00609076
0.0060445
0.00600301
0.00596593
0.00593291
0.00590362
0.00587771
0.00585489
0.00583484
0.00581729
0.00580198
0.00578866
0.00577711
0.00576713
0.00575853
0.00575114
0.0057448
0.0057394
0.00573479
0.00573087
0.00572755
0.00572474
0.00572237
0.00572036
0.00571866
0.00571723
0.00571601
0.00571493
0.00571425
0.00571362
0.00571311
0.00571271
0.0057124
0.00571217
0.005712
0.00571188
0.0057118
0.00571175
0.00571171
0.0057117
0.00571169
0.0057117
0.00571171
0.00571173
0.00571174
0.00571177
0.00571179
0.00571182
0.00571185
0.00571187
0.0057119
0.00571193
0.00571196
0.00571199
0.00571202
0.00571205
0.00571208
0.00571211
0.00571214
0.00571216
0.00571219
0.00571222
0.00571225
0.00571228
0.00571231
0.00571233
0.00571236
0.00571239
0.00571242
0.00571244
0.00571247
0.0057125
0.00571252
0.00571255
0.00571257
0.0057126
0.00571263
0.00571265
0.00571268
0.0057127
0.00571273
0.00571275
0.00571278
0.0057128
0.00571282
0.00571285
0.00571287
0.00571289
0.00571292
0.00571294
0.00571296
0.00571298
0.005713
0.00571303
0.00571305
0.00571307
0.00571309
0.00571311
0.00571312
0.00571314
0.00571316
0.00571318
0.0057132
0.00571321
0.00571323
0.00571324
0.00571326
0.00571327
0.00571329
0.0057133
0.00571331
0.00571333
0.00571334
0.00571335
0.00571336
0.00571337
0.00571338
0.00571339
0.0057134
0.0057134
0.00571341
0.00571342
0.00571342
0.00571343
0.00571343
0.00571344
0.00571344
0.00571344
0.00571344
0.00571344
0.00571344
0.00571344
0.00571344
0.00571344
0.00571344
0.00571343
0.00571343
0.00571343
0.00571342
0.00571342
0.00571341
0.0057134
0.0057134
0.00571339
0.00571338
0.00571337
0.00571336
0.00571335
0.00571334
0.00571334
0.00571333
0.00571333
)
;

boundaryField
{
    boundary
    {
        type            empty;
    }
    inlet
    {
        type            fixedValue;
        value           uniform 0;
    }
    outlet
    {
        type            zeroGradient;
    }
}


// ************************************************************************* //
