/*--------------------------------*- C++ -*----------------------------------*\
  =========                 |
  \\      /  F ield         | OpenFOAM: The Open Source CFD Toolbox
   \\    /   O peration     | Website:  https://openfoam.org
    \\  /    A nd           | Version:  7
     \\/     M anipulation  |
\*---------------------------------------------------------------------------*/
FoamFile
{
    version     2.0;
    format      ascii;
    class       volScalarField;
    location    "7e-05";
    object      p;
}
// * * * * * * * * * * * * * * * * * * * * * * * * * * * * * * * * * * * * * //

dimensions      [1 -1 -2 0 0 0 0];

internalField   nonuniform List<scalar> 
500
(
102870
102870
102870
102870
102870
102870
102870
102870
102870
102870
102870
102870
102870
102870
102870
102870
102870
102870
102870
102870
102870
102870
102870
102870
102870
102870
102870
102870
102870
102870
102870
102870
102870
102870
102870
102870
102870
102870
102870
102870
102870
102870
102870
102870
102870
102870
102870
102870
102870
102870
102870
102870
102870
102870
102870
102870
102870
102870
102870
102870
102870
102871
102871
102871
102871
102871
102871
102871
102871
102871
102871
102871
102871
102871
102871
102871
102871
102871
102871
102871
102871
102871
102872
102872
102872
102872
102872
102872
102872
102872
102872
102872
102872
102872
102872
102872
102872
102872
102872
102872
102872
102872
102872
102872
102872
102872
102872
102872
102872
102872
102872
102872
102872
102872
102872
102872
102872
102872
102872
102872
102872
102872
102872
102872
102872
102872
102872
102871
102871
102871
102871
102871
102871
102871
102871
102870
102870
102870
102870
102870
102869
102869
102869
102869
102868
102868
102868
102868
102867
102867
102867
102867
102866
102866
102866
102865
102865
102865
102864
102864
102863
102863
102863
102862
102862
102861
102861
102861
102860
102860
102859
102859
102858
102858
102857
102857
102856
102856
102855
102855
102854
102854
102853
102852
102852
102851
102851
102850
102849
102849
102848
102848
102847
102846
102846
102845
102844
102844
102843
102842
102842
102841
102840
102839
102839
102838
102837
102836
102836
102835
102834
102833
102832
102832
102831
102830
102829
102828
102827
102827
102826
102825
102824
102823
102822
102821
102820
102819
102819
102818
102817
102816
102815
102814
102813
102812
102811
102810
102809
102808
102807
102806
102805
102804
102803
102802
102801
102800
102799
102798
102797
102796
102795
102794
102793
102792
102791
102790
102789
102788
102787
102786
102785
102784
102783
102782
102781
102780
102779
102778
102777
102776
102775
102774
102773
102772
102770
102769
102768
102767
102765
102763
102760
102758
102755
102752
102750
102748
102747
102745
102744
102743
102742
102742
102741
102740
102740
102739
102738
102738
102737
102737
102736
102736
102735
102735
102735
102734
102734
102733
102733
102732
102732
102732
102731
102731
102730
102730
102730
102729
102729
102729
102728
102728
102727
102727
102727
102726
102726
102725
102725
102725
102724
102724
102724
102723
102723
102722
102722
102722
102721
102721
102720
102720
102719
102719
102719
102718
102718
102717
102717
102717
102716
102716
102715
102715
102714
102714
102713
102713
102713
102712
102712
102711
102711
102710
102710
102709
102709
102708
102708
102708
102707
102707
102706
102706
102705
102705
102704
102704
102703
102703
102702
102702
102701
102701
102700
102700
102699
102699
102698
102698
102697
102697
102696
102695
102695
102694
102694
102693
102693
102692
102692
102691
102691
102690
102689
102689
102688
102688
102687
102687
102686
102685
102685
102684
102684
102683
102682
102682
102681
102681
102680
102679
102679
102678
102678
102677
102676
102676
102675
102674
102674
102673
102672
102672
102671
102670
102670
102669
102668
102668
102667
102666
102666
102665
102664
102664
102663
102662
102662
102661
102660
102659
102659
102658
102657
102657
102656
102655
102654
102654
102653
102652
102651
102651
102650
102649
102648
102648
102647
102646
102645
102645
102644
102643
102642
102641
102641
102640
102639
102638
102638
102637
102636
102635
102634
102634
102633
102632
102631
102630
102630
102629
102628
102627
102626
102626
102625
102624
)
;

boundaryField
{
    boundary
    {
        type            empty;
    }
    inlet
    {
        type            zeroGradient;
    }
    outlet
    {
        type            waveTransmissive;
        gamma           1.4;
        value           uniform 102624;
    }
}


// ************************************************************************* //
