/*--------------------------------*- C++ -*----------------------------------*\
  =========                 |
  \\      /  F ield         | OpenFOAM: The Open Source CFD Toolbox
   \\    /   O peration     | Website:  https://openfoam.org
    \\  /    A nd           | Version:  7
     \\/     M anipulation  |
\*---------------------------------------------------------------------------*/
FoamFile
{
    version     2.0;
    format      ascii;
    class       surfaceScalarField;
    location    "7e-05";
    object      phi;
}
// * * * * * * * * * * * * * * * * * * * * * * * * * * * * * * * * * * * * * //

dimensions      [1 0 -1 0 0 0 0];

internalField   nonuniform List<scalar> 
499
(
6.91632e-06
6.91705e-06
6.91663e-06
6.91618e-06
6.91635e-06
6.91746e-06
6.91955e-06
6.92253e-06
6.92618e-06
6.9303e-06
6.9347e-06
6.93927e-06
6.9439e-06
6.94856e-06
6.95321e-06
6.95783e-06
6.96242e-06
6.96696e-06
6.97147e-06
6.97593e-06
6.98034e-06
6.9847e-06
6.989e-06
6.99325e-06
6.99744e-06
7.00158e-06
7.00564e-06
7.00965e-06
7.01359e-06
7.01746e-06
7.02126e-06
7.02498e-06
7.02863e-06
7.03221e-06
7.0357e-06
7.03911e-06
7.04244e-06
7.04568e-06
7.04884e-06
7.05191e-06
7.05489e-06
7.05777e-06
7.06056e-06
7.06326e-06
7.06585e-06
7.06835e-06
7.07075e-06
7.07304e-06
7.07523e-06
7.07732e-06
7.0793e-06
7.08117e-06
7.08293e-06
7.08458e-06
7.08612e-06
7.08754e-06
7.08885e-06
7.09005e-06
7.09113e-06
7.09209e-06
7.09294e-06
7.09367e-06
7.09427e-06
7.09476e-06
7.09513e-06
7.09538e-06
7.0955e-06
7.0955e-06
7.09538e-06
7.09514e-06
7.09478e-06
7.09429e-06
7.09368e-06
7.09295e-06
7.09209e-06
7.09112e-06
7.09002e-06
7.08879e-06
7.08745e-06
7.08599e-06
7.0844e-06
7.08269e-06
7.08087e-06
7.07893e-06
7.07686e-06
7.07469e-06
7.07239e-06
7.06998e-06
7.06746e-06
7.06482e-06
7.06207e-06
7.05921e-06
7.05624e-06
7.05317e-06
7.04998e-06
7.0467e-06
7.0433e-06
7.03981e-06
7.03622e-06
7.03252e-06
7.02873e-06
7.02485e-06
7.02087e-06
7.0168e-06
7.01263e-06
7.00838e-06
7.00405e-06
6.99963e-06
6.99513e-06
6.99054e-06
6.98588e-06
6.98114e-06
6.97633e-06
6.97144e-06
6.96648e-06
6.96145e-06
6.95636e-06
6.9512e-06
6.94598e-06
6.9407e-06
6.93535e-06
6.92995e-06
6.9245e-06
6.91899e-06
6.91343e-06
6.90782e-06
6.90217e-06
6.89645e-06
6.8907e-06
6.88489e-06
6.87905e-06
6.87317e-06
6.86725e-06
6.8613e-06
6.85531e-06
6.84928e-06
6.84323e-06
6.83714e-06
6.83102e-06
6.82487e-06
6.81869e-06
6.81249e-06
6.80626e-06
6.80001e-06
6.79373e-06
6.78743e-06
6.7811e-06
6.77476e-06
6.7684e-06
6.76201e-06
6.75561e-06
6.74919e-06
6.74276e-06
6.73631e-06
6.72984e-06
6.72336e-06
6.71686e-06
6.71035e-06
6.70383e-06
6.69729e-06
6.69075e-06
6.68419e-06
6.67762e-06
6.67104e-06
6.66445e-06
6.65786e-06
6.65125e-06
6.64464e-06
6.63802e-06
6.6314e-06
6.62477e-06
6.61813e-06
6.61149e-06
6.60485e-06
6.5982e-06
6.59155e-06
6.5849e-06
6.57825e-06
6.5716e-06
6.56495e-06
6.5583e-06
6.55166e-06
6.54501e-06
6.53837e-06
6.53174e-06
6.52511e-06
6.51849e-06
6.51187e-06
6.50527e-06
6.49867e-06
6.49208e-06
6.4855e-06
6.47894e-06
6.47238e-06
6.46584e-06
6.45932e-06
6.45281e-06
6.44631e-06
6.43983e-06
6.43337e-06
6.42693e-06
6.4205e-06
6.41409e-06
6.4077e-06
6.40133e-06
6.39498e-06
6.38865e-06
6.38233e-06
6.37604e-06
6.36977e-06
6.36351e-06
6.35728e-06
6.35107e-06
6.34487e-06
6.33869e-06
6.33253e-06
6.32638e-06
6.32025e-06
6.31413e-06
6.30803e-06
6.30193e-06
6.29585e-06
6.28978e-06
6.28371e-06
6.27765e-06
6.27159e-06
6.26553e-06
6.25947e-06
6.25341e-06
6.24734e-06
6.24127e-06
6.23519e-06
6.2291e-06
6.22299e-06
6.21687e-06
6.21072e-06
6.20456e-06
6.19838e-06
6.19217e-06
6.18594e-06
6.17967e-06
6.17338e-06
6.16706e-06
6.1607e-06
6.15431e-06
6.14788e-06
6.14141e-06
6.13491e-06
6.12837e-06
6.1218e-06
6.11519e-06
6.10855e-06
6.10185e-06
6.09511e-06
6.08833e-06
6.08152e-06
6.07467e-06
6.06779e-06
6.06087e-06
6.05392e-06
6.04693e-06
6.03991e-06
6.03286e-06
6.02577e-06
6.01865e-06
6.0115e-06
6.00431e-06
5.9971e-06
5.98984e-06
5.98255e-06
5.97522e-06
5.96786e-06
5.96049e-06
5.9533e-06
5.9471e-06
5.94478e-06
5.95568e-06
6.00472e-06
6.13395e-06
6.34113e-06
6.53018e-06
6.64792e-06
6.71407e-06
6.75486e-06
6.78425e-06
6.80695e-06
6.81764e-06
6.82876e-06
6.8349e-06
6.83756e-06
6.83854e-06
6.83862e-06
6.83772e-06
6.83537e-06
6.83091e-06
6.82366e-06
6.81294e-06
6.79816e-06
6.7788e-06
6.75451e-06
6.72508e-06
6.69045e-06
6.65076e-06
6.60633e-06
6.55761e-06
6.50519e-06
6.44978e-06
6.39212e-06
6.33301e-06
6.27321e-06
6.21348e-06
6.15452e-06
6.10031e-06
6.04764e-06
5.99695e-06
5.94859e-06
5.90288e-06
5.86005e-06
5.82027e-06
5.78367e-06
5.75029e-06
5.72015e-06
5.69319e-06
5.66935e-06
5.64849e-06
5.63048e-06
5.61513e-06
5.60226e-06
5.59167e-06
5.58313e-06
5.57645e-06
5.5714e-06
5.56778e-06
5.56538e-06
5.56401e-06
5.5635e-06
5.56368e-06
5.56441e-06
5.56555e-06
5.56698e-06
5.5686e-06
5.57032e-06
5.57208e-06
5.5738e-06
5.57545e-06
5.57698e-06
5.57836e-06
5.57958e-06
5.58062e-06
5.58147e-06
5.58213e-06
5.58259e-06
5.58287e-06
5.58298e-06
5.5829e-06
5.58267e-06
5.58229e-06
5.58176e-06
5.5811e-06
5.58032e-06
5.57943e-06
5.57844e-06
5.57736e-06
5.5762e-06
5.57497e-06
5.57367e-06
5.57231e-06
5.57089e-06
5.56943e-06
5.56793e-06
5.56639e-06
5.56482e-06
5.56321e-06
5.56158e-06
5.55993e-06
5.55825e-06
5.55655e-06
5.55485e-06
5.55313e-06
5.55139e-06
5.54964e-06
5.54788e-06
5.5461e-06
5.54431e-06
5.54251e-06
5.5407e-06
5.53888e-06
5.53704e-06
5.5352e-06
5.53335e-06
5.53148e-06
5.52961e-06
5.52773e-06
5.52584e-06
5.52394e-06
5.52203e-06
5.52011e-06
5.51817e-06
5.51623e-06
5.51428e-06
5.51232e-06
5.51035e-06
5.50837e-06
5.50638e-06
5.50438e-06
5.50237e-06
5.50035e-06
5.49832e-06
5.49627e-06
5.49422e-06
5.49215e-06
5.49008e-06
5.48799e-06
5.48589e-06
5.48378e-06
5.48166e-06
5.47953e-06
5.47738e-06
5.47523e-06
5.47306e-06
5.47088e-06
5.46869e-06
5.46649e-06
5.46427e-06
5.46204e-06
5.45981e-06
5.45755e-06
5.45529e-06
5.45302e-06
5.45073e-06
5.44843e-06
5.44612e-06
5.4438e-06
5.44146e-06
5.43911e-06
5.43675e-06
5.43438e-06
5.432e-06
5.4296e-06
5.42719e-06
5.42477e-06
5.42234e-06
5.41989e-06
5.41744e-06
5.41497e-06
5.41249e-06
5.41e-06
5.4075e-06
5.40498e-06
5.40246e-06
5.39992e-06
5.39737e-06
5.39481e-06
5.39224e-06
5.38966e-06
5.38706e-06
5.38446e-06
5.38184e-06
5.37922e-06
5.37658e-06
5.37394e-06
5.37128e-06
5.36862e-06
5.36594e-06
5.36325e-06
5.36056e-06
5.35785e-06
5.35514e-06
5.35241e-06
5.34968e-06
5.34694e-06
5.34419e-06
5.34143e-06
5.33866e-06
5.33588e-06
5.3331e-06
5.3303e-06
5.3275e-06
5.32469e-06
5.32187e-06
5.31905e-06
5.31622e-06
5.31338e-06
5.31053e-06
5.30768e-06
5.30481e-06
5.30195e-06
5.29907e-06
5.29619e-06
5.2933e-06
5.29041e-06
5.28751e-06
5.2846e-06
5.28169e-06
5.27877e-06
5.27584e-06
5.27291e-06
5.26998e-06
5.26703e-06
)
;

boundaryField
{
    boundary
    {
        type            empty;
        value           nonuniform 0();
    }
    inlet
    {
        type            calculated;
        value           uniform -6.91277e-06;
    }
    outlet
    {
        type            calculated;
        value           uniform 5.26409e-06;
    }
}


// ************************************************************************* //
