/*--------------------------------*- C++ -*----------------------------------*\
  =========                 |
  \\      /  F ield         | OpenFOAM: The Open Source CFD Toolbox
   \\    /   O peration     | Website:  https://openfoam.org
    \\  /    A nd           | Version:  7
     \\/     M anipulation  |
\*---------------------------------------------------------------------------*/
FoamFile
{
    version     2.0;
    format      ascii;
    class       volScalarField;
    location    "7e-05";
    object      Qdot;
}
// * * * * * * * * * * * * * * * * * * * * * * * * * * * * * * * * * * * * * //

dimensions      [1 -1 -3 0 0 0 0];

internalField   nonuniform List<scalar> 
500
(
-2.46718e-27
-2.00766e-27
-2.01323e-27
-2.11803e-27
-2.22976e-27
-2.32251e-27
-2.39031e-27
-2.43522e-27
-2.46252e-27
-2.47788e-27
-2.48594e-27
-2.4899e-27
-2.49174e-27
-2.49254e-27
-2.49286e-27
-2.49297e-27
-2.493e-27
-2.493e-27
-2.49298e-27
-2.49295e-27
-2.49292e-27
-2.49289e-27
-2.49286e-27
-2.49283e-27
-2.4928e-27
-2.49276e-27
-2.49273e-27
-2.4927e-27
-2.49266e-27
-2.49263e-27
-2.4926e-27
-2.49256e-27
-2.49253e-27
-2.49249e-27
-2.49246e-27
-2.49242e-27
-2.49239e-27
-2.49236e-27
-2.49232e-27
-2.49229e-27
-2.49226e-27
-2.49222e-27
-2.49219e-27
-2.49216e-27
-2.49213e-27
-2.49211e-27
-2.49208e-27
-2.49205e-27
-2.49203e-27
-2.492e-27
-2.49198e-27
-2.49196e-27
-2.49194e-27
-2.49193e-27
-2.49191e-27
-2.4919e-27
-2.49189e-27
-2.49188e-27
-2.49188e-27
-2.49188e-27
-2.49188e-27
-2.49188e-27
-2.49189e-27
-2.49189e-27
-2.49191e-27
-2.49192e-27
-2.49194e-27
-2.49196e-27
-2.49199e-27
-2.49202e-27
-2.49205e-27
-2.49209e-27
-2.49213e-27
-2.49217e-27
-2.49222e-27
-2.49227e-27
-2.49233e-27
-2.49239e-27
-2.49246e-27
-2.49253e-27
-2.4926e-27
-2.49268e-27
-2.49276e-27
-2.49285e-27
-2.49294e-27
-2.49304e-27
-2.49314e-27
-2.49325e-27
-2.49336e-27
-2.49347e-27
-2.49359e-27
-2.49372e-27
-2.49385e-27
-2.49398e-27
-2.49412e-27
-2.49426e-27
-2.49441e-27
-2.49456e-27
-2.49472e-27
-2.49487e-27
-2.49504e-27
-2.4952e-27
-2.49537e-27
-2.49555e-27
-2.49572e-27
-2.4959e-27
-2.49609e-27
-2.49627e-27
-2.49646e-27
-2.49665e-27
-2.49684e-27
-2.49703e-27
-2.49723e-27
-2.49742e-27
-2.49762e-27
-2.49782e-27
-2.49802e-27
-2.49821e-27
-2.49841e-27
-2.49861e-27
-2.4988e-27
-2.49899e-27
-2.49915e-27
-2.49924e-27
-2.49912e-27
-2.49877e-27
-2.49905e-27
-2.49944e-27
-2.49983e-27
-2.50018e-27
-2.50046e-27
-2.50069e-27
-2.50089e-27
-2.50105e-27
-2.5012e-27
-2.50133e-27
-2.50146e-27
-2.50157e-27
-2.50167e-27
-2.50177e-27
-2.50185e-27
-2.50192e-27
-2.50198e-27
-2.50203e-27
-2.50206e-27
-2.50209e-27
-2.50209e-27
-2.50209e-27
-2.50206e-27
-2.50202e-27
-2.50197e-27
-2.5019e-27
-2.50181e-27
-2.5017e-27
-2.50157e-27
-2.50142e-27
-2.50125e-27
-2.50106e-27
-2.50085e-27
-2.50062e-27
-2.50036e-27
-2.50008e-27
-2.49977e-27
-2.49944e-27
-2.49908e-27
-2.49869e-27
-2.49828e-27
-2.49784e-27
-2.49736e-27
-2.49686e-27
-2.49633e-27
-2.49577e-27
-2.49517e-27
-2.49454e-27
-2.49388e-27
-2.49319e-27
-2.49245e-27
-2.49169e-27
-2.49088e-27
-2.49004e-27
-2.48916e-27
-2.48824e-27
-2.48728e-27
-2.48628e-27
-2.48525e-27
-2.48417e-27
-2.48304e-27
-2.48188e-27
-2.48067e-27
-2.47942e-27
-2.47812e-27
-2.47678e-27
-2.47539e-27
-2.47396e-27
-2.47248e-27
-2.47095e-27
-2.46938e-27
-2.46776e-27
-2.4661e-27
-2.46439e-27
-2.46263e-27
-2.46082e-27
-2.45897e-27
-2.45706e-27
-2.45512e-27
-2.45312e-27
-2.45108e-27
-2.449e-27
-2.44686e-27
-2.44469e-27
-2.44247e-27
-2.4402e-27
-2.4379e-27
-2.43555e-27
-2.43316e-27
-2.43073e-27
-2.42826e-27
-2.42576e-27
-2.42322e-27
-2.42064e-27
-2.41803e-27
-2.41538e-27
-2.41271e-27
-2.41e-27
-2.40727e-27
-2.40451e-27
-2.40172e-27
-2.39891e-27
-2.39608e-27
-2.39323e-27
-2.39034e-27
-2.3874e-27
-2.38417e-27
-2.37921e-27
-2.36302e-27
-2.27337e-27
-1.69882e-27
2.09768e-27
2.74323e-26
1.97529e-25
1.34536e-24
9.12581e-24
6.2077e-23
4.23764e-22
2.90274e-21
1.99506e-20
1.37603e-19
9.52848e-19
6.63011e-18
4.64105e-17
3.27027e-16
2.30046e-15
1.62105e-14
1.14307e-13
8.06104e-13
5.67715e-12
3.98608e-11
2.78495e-10
1.93232e-09
1.32879e-08
9.03837e-08
6.06985e-07
4.01784e-06
2.61762e-05
0.000167656
0.0010548
0.00651562
0.039516
0.23542
1.37943
7.96741
48.6373
321.347
2452.44
19323.2
157419
1.38634e+06
1.28565e+07
1.17326e+08
8.99352e+08
4.19248e+09
9.84973e+09
1.29841e+10
1.34621e+10
1.34321e+10
1.32492e+10
1.23482e+10
1.07226e+10
8.86864e+09
7.21597e+09
5.89563e+09
4.88102e+09
4.10343e+09
3.49886e+09
3.01867e+09
2.62846e+09
2.30445e+09
2.03029e+09
1.79455e+09
1.58934e+09
1.40897e+09
1.24937e+09
1.10749e+09
9.81027e+08
8.68185e+08
7.67492e+08
6.77718e+08
5.97788e+08
5.26749e+08
4.63741e+08
4.07986e+08
3.58832e+08
3.16645e+08
2.79819e+08
2.46988e+08
2.17821e+08
1.91909e+08
1.68899e+08
1.48474e+08
1.30351e+08
1.14276e+08
1.00028e+08
8.73967e+07
7.62196e+07
6.63331e+07
5.75977e+07
4.9889e+07
4.30961e+07
3.71198e+07
3.1871e+07
2.72703e+07
2.32461e+07
1.97341e+07
1.66763e+07
1.40226e+07
1.17214e+07
9.73872e+06
8.02917e+06
6.56317e+06
5.31326e+06
4.24391e+06
3.33908e+06
2.57525e+06
1.93257e+06
1.3944e+06
948767
576398
274327
25791.1
-175349
-336597
-464487
-564392
-640815
-698427
-741735
-770051
-789361
-800234
-804979
-805099
-801045
-794531
-786100
-776866
-766294
-755689
-745221
-735287
-725395
-717161
-710408
-707275
-710147
-727146
-769251
-778337
-738150
-713086
-697331
-687431
-679432
-676151
-673196
-671307
-669719
-669041
-668763
-668823
-669058
-669436
-669929
-670511
-671163
-671868
-672612
-673387
-674184
-674998
-675824
-676659
-677499
-678343
-679189
-680036
-680882
-681728
-682572
-683414
-684253
-685089
-685920
-686747
-687569
-688385
-689196
-690002
-690801
-691594
-692382
-693163
-693938
-694706
-695469
-696225
-696975
-697720
-698457
-699188
-699912
-700629
-701337
-702038
-702731
-703414
-704089
-704754
-705410
-706057
-706694
-707321
-707938
-708544
-709137
-709720
-710291
-710851
-711400
-711937
-712462
-712975
-713475
-713961
-714434
-714893
-715338
-715769
-716187
-716592
-716982
-717357
-717716
-718059
-718386
-718699
-718996
-719278
-719544
-719795
-720030
-720250
-720454
-720643
-720816
-720969
-721104
-721224
-721327
-721416
-721491
-721549
-721590
-721615
-721623
-721615
-721593
-721557
-721506
-721441
-721361
-721266
-721159
-721044
-720920
-720791
-720662
-720543
-720443
-720368
-720323
)
;

boundaryField
{
    boundary
    {
        type            empty;
    }
    inlet
    {
        type            calculated;
        value           uniform 0;
    }
    outlet
    {
        type            calculated;
        value           uniform 0;
    }
}


// ************************************************************************* //
