/*--------------------------------*- C++ -*----------------------------------*\
  =========                 |
  \\      /  F ield         | OpenFOAM: The Open Source CFD Toolbox
   \\    /   O peration     | Website:  https://openfoam.org
    \\  /    A nd           | Version:  7
     \\/     M anipulation  |
\*---------------------------------------------------------------------------*/
FoamFile
{
    version     2.0;
    format      ascii;
    class       volScalarField;
    location    "7e-05";
    object      rho;
}
// * * * * * * * * * * * * * * * * * * * * * * * * * * * * * * * * * * * * * //

dimensions      [1 -3 0 0 0 0 0];

internalField   nonuniform List<scalar> 
500
(
0.862272
0.8617
0.861053
0.860439
0.85992
0.859517
0.85923
0.859039
0.858922
0.858854
0.858817
0.858798
0.858789
0.858785
0.858783
0.858783
0.858783
0.858783
0.858783
0.858783
0.858783
0.858783
0.858784
0.858784
0.858784
0.858784
0.858785
0.858785
0.858785
0.858785
0.858786
0.858786
0.858786
0.858787
0.858787
0.858787
0.858788
0.858788
0.858789
0.858789
0.858789
0.85879
0.85879
0.858791
0.858791
0.858792
0.858792
0.858793
0.858793
0.858794
0.858794
0.858795
0.858795
0.858796
0.858796
0.858797
0.858798
0.858798
0.858799
0.858799
0.8588
0.858801
0.858801
0.858802
0.858802
0.858803
0.858804
0.858804
0.858805
0.858805
0.858806
0.858807
0.858807
0.858808
0.858808
0.858809
0.85881
0.85881
0.858811
0.858811
0.858812
0.858812
0.858813
0.858813
0.858814
0.858814
0.858815
0.858815
0.858816
0.858816
0.858817
0.858817
0.858817
0.858818
0.858818
0.858818
0.858818
0.858819
0.858819
0.858819
0.858819
0.858819
0.858819
0.858819
0.858819
0.858819
0.858819
0.858819
0.858818
0.858818
0.858818
0.858817
0.858817
0.858817
0.858816
0.858816
0.858815
0.858814
0.858814
0.858813
0.858812
0.858812
0.858811
0.85881
0.85881
0.858811
0.85881
0.858808
0.858806
0.858804
0.858802
0.858801
0.858799
0.858798
0.858796
0.858795
0.858793
0.858791
0.85879
0.858788
0.858786
0.858785
0.858783
0.858781
0.858779
0.858777
0.858775
0.858773
0.858771
0.858769
0.858767
0.858765
0.858763
0.858761
0.858759
0.858757
0.858755
0.858752
0.85875
0.858748
0.858746
0.858744
0.858742
0.85874
0.858738
0.858736
0.858734
0.858732
0.85873
0.858728
0.858726
0.858724
0.858723
0.858721
0.858719
0.858718
0.858716
0.858715
0.858713
0.858712
0.858711
0.85871
0.858709
0.858708
0.858707
0.858706
0.858705
0.858705
0.858704
0.858704
0.858703
0.858703
0.858703
0.858703
0.858703
0.858703
0.858704
0.858704
0.858705
0.858706
0.858707
0.858707
0.858709
0.85871
0.858711
0.858713
0.858714
0.858716
0.858718
0.858719
0.858721
0.858724
0.858726
0.858728
0.858731
0.858733
0.858736
0.858738
0.858741
0.858744
0.858747
0.85875
0.858753
0.858756
0.858759
0.858763
0.858766
0.858769
0.858773
0.858776
0.85878
0.858783
0.858787
0.85879
0.858794
0.858798
0.858801
0.858805
0.858809
0.858812
0.858816
0.85882
0.858823
0.858827
0.858831
0.858835
0.858839
0.858843
0.858848
0.858852
0.858858
0.858865
0.858869
0.858872
0.858876
0.85888
0.858885
0.85889
0.858895
0.858901
0.858907
0.858913
0.85892
0.858926
0.858933
0.858941
0.858948
0.858956
0.858965
0.858974
0.858983
0.858993
0.859001
0.858985
0.858836
0.858075
0.854838
0.842549
0.802587
0.706851
0.566019
0.439015
0.352993
0.297786
0.260394
0.233918
0.215057
0.201763
0.192178
0.185075
0.17964
0.175346
0.171844
0.168897
0.166346
0.164073
0.161995
0.160052
0.158197
0.156397
0.154628
0.152878
0.151136
0.149402
0.147677
0.145968
0.144283
0.142633
0.141026
0.139474
0.137987
0.136574
0.13528
0.134087
0.132966
0.131922
0.130958
0.130074
0.129269
0.128542
0.127891
0.127314
0.126806
0.126365
0.125986
0.125663
0.125394
0.125172
0.124993
0.124853
0.124746
0.124669
0.124617
0.124587
0.124575
0.124577
0.124592
0.124615
0.124646
0.124682
0.124721
0.124762
0.124804
0.124846
0.124886
0.124926
0.124963
0.124998
0.125031
0.125062
0.125089
0.125115
0.125137
0.125158
0.125176
0.125192
0.125207
0.125219
0.12523
0.125239
0.125248
0.125254
0.12526
0.125265
0.125269
0.125273
0.125275
0.125278
0.125279
0.125281
0.125282
0.125282
0.125283
0.125283
0.125282
0.125282
0.125281
0.125281
0.125281
0.12528
0.12528
0.125279
0.125278
0.125277
0.125277
0.125276
0.125275
0.125274
0.125273
0.125272
0.125271
0.12527
0.125269
0.125268
0.125267
0.125267
0.125266
0.125265
0.125264
0.125263
0.125262
0.125261
0.12526
0.125259
0.125258
0.125257
0.125256
0.125255
0.125254
0.125253
0.125252
0.125251
0.12525
0.125249
0.125248
0.125247
0.125246
0.125245
0.125244
0.125243
0.125242
0.125241
0.12524
0.125239
0.125238
0.125237
0.125236
0.125235
0.125234
0.125232
0.125231
0.12523
0.125229
0.125228
0.125227
0.125226
0.125225
0.125224
0.125223
0.125222
0.125221
0.12522
0.125219
0.125218
0.125217
0.125216
0.125215
0.125214
0.125213
0.125212
0.12521
0.125209
0.125208
0.125207
0.125206
0.125205
0.125204
0.125203
0.125202
0.125201
0.1252
0.125199
0.125198
0.125197
0.125196
0.125195
0.125194
0.125193
0.125192
0.125191
0.12519
0.125189
0.125188
0.125187
0.125186
0.125185
0.125184
0.125183
0.125182
0.125181
0.12518
0.125179
0.125178
0.125177
0.125176
0.125175
0.125175
0.125174
0.125173
0.125172
0.125171
0.12517
0.125169
0.125168
0.125167
0.125166
0.125165
0.125164
0.125163
0.125163
)
;

boundaryField
{
    boundary
    {
        type            empty;
    }
    inlet
    {
        type            calculated;
        value           uniform 0.862507;
    }
    outlet
    {
        type            calculated;
        value           uniform 0.125162;
    }
}


// ************************************************************************* //
