/*--------------------------------*- C++ -*----------------------------------*\
  =========                 |
  \\      /  F ield         | OpenFOAM: The Open Source CFD Toolbox
   \\    /   O peration     | Website:  https://openfoam.org
    \\  /    A nd           | Version:  7
     \\/     M anipulation  |
\*---------------------------------------------------------------------------*/
FoamFile
{
    version     2.0;
    format      ascii;
    class       volScalarField;
    location    "7e-05";
    object      T;
}
// * * * * * * * * * * * * * * * * * * * * * * * * * * * * * * * * * * * * * //

dimensions      [0 0 0 1 0 0 0];

internalField   nonuniform List<scalar> 
500
(
300.082
300.281
300.507
300.721
300.902
301.043
301.144
301.211
301.252
301.276
301.289
301.295
301.299
301.3
301.301
301.301
301.301
301.301
301.301
301.301
301.301
301.301
301.3
301.3
301.3
301.3
301.3
301.3
301.3
301.3
301.3
301.3
301.3
301.3
301.299
301.299
301.299
301.299
301.299
301.299
301.299
301.299
301.299
301.298
301.298
301.298
301.298
301.298
301.298
301.298
301.298
301.298
301.297
301.297
301.297
301.297
301.297
301.297
301.297
301.297
301.297
301.297
301.296
301.296
301.296
301.296
301.296
301.296
301.296
301.296
301.296
301.296
301.296
301.296
301.296
301.295
301.295
301.295
301.295
301.295
301.295
301.295
301.295
301.295
301.295
301.295
301.295
301.295
301.295
301.295
301.295
301.295
301.295
301.295
301.295
301.295
301.295
301.295
301.295
301.295
301.295
301.295
301.296
301.296
301.296
301.296
301.296
301.296
301.296
301.296
301.296
301.296
301.296
301.296
301.296
301.297
301.297
301.297
301.297
301.297
301.297
301.297
301.297
301.297
301.297
301.296
301.296
301.297
301.297
301.297
301.298
301.298
301.298
301.298
301.298
301.298
301.298
301.298
301.298
301.298
301.298
301.298
301.298
301.298
301.298
301.298
301.298
301.298
301.298
301.298
301.297
301.297
301.297
301.297
301.297
301.296
301.296
301.296
301.296
301.295
301.295
301.294
301.294
301.294
301.293
301.292
301.292
301.291
301.291
301.29
301.289
301.289
301.288
301.287
301.286
301.285
301.284
301.283
301.282
301.281
301.28
301.279
301.277
301.276
301.275
301.273
301.272
301.27
301.269
301.267
301.265
301.264
301.262
301.26
301.258
301.256
301.254
301.252
301.249
301.247
301.245
301.242
301.24
301.237
301.235
301.232
301.229
301.226
301.223
301.22
301.217
301.214
301.211
301.208
301.205
301.202
301.198
301.195
301.191
301.188
301.184
301.181
301.177
301.173
301.169
301.166
301.162
301.158
301.154
301.15
301.146
301.142
301.138
301.134
301.13
301.126
301.122
301.118
301.114
301.11
301.105
301.101
301.097
301.093
301.089
301.084
301.08
301.076
301.071
301.067
301.062
301.056
301.052
301.048
301.044
301.039
301.035
301.03
301.025
301.02
301.015
301.01
301.005
300.999
300.994
300.988
300.982
300.977
300.971
300.965
300.959
300.954
300.953
300.97
301.058
301.421
302.805
307.788
324.364
370.87
467.856
610.434
768.531
921.598
1064.51
1194.15
1305.82
1396.83
1470.13
1529.41
1578.09
1618.83
1653.68
1684.2
1711.54
1736.62
1760.16
1782.74
1804.81
1826.74
1848.79
1871.17
1893.99
1917.31
1941.13
1965.38
1989.97
2014.75
2039.58
2064.28
2088.64
2112.49
2134.99
2156.32
2176.93
2196.67
2215.46
2233.21
2249.87
2265.41
2279.8
2293.03
2305.12
2316.1
2326.01
2334.89
2342.8
2349.8
2355.96
2361.35
2366.04
2370.1
2373.59
2376.59
2379.14
2381.3
2383.13
2384.67
2385.97
2387.06
2387.97
2388.73
2389.37
2389.9
2390.35
2390.73
2391.05
2391.32
2391.55
2391.74
2391.91
2392.06
2392.18
2392.29
2392.39
2392.48
2392.55
2392.62
2392.68
2392.73
2392.78
2392.82
2392.86
2392.9
2392.93
2392.96
2392.98
2393.01
2393.03
2393.05
2393.07
2393.08
2393.1
2393.12
2393.14
2393.17
2393.19
2393.19
2393.19
2393.2
2393.2
2393.21
2393.21
2393.22
2393.22
2393.23
2393.23
2393.24
2393.25
2393.25
2393.26
2393.26
2393.27
2393.28
2393.28
2393.29
2393.29
2393.3
2393.31
2393.31
2393.32
2393.32
2393.33
2393.34
2393.34
2393.35
2393.35
2393.36
2393.36
2393.37
2393.38
2393.38
2393.39
2393.39
2393.4
2393.4
2393.41
2393.41
2393.42
2393.42
2393.43
2393.44
2393.44
2393.45
2393.45
2393.46
2393.46
2393.47
2393.47
2393.48
2393.48
2393.49
2393.49
2393.5
2393.5
2393.51
2393.51
2393.51
2393.52
2393.52
2393.53
2393.53
2393.54
2393.54
2393.54
2393.55
2393.55
2393.56
2393.56
2393.56
2393.57
2393.57
2393.57
2393.58
2393.58
2393.58
2393.59
2393.59
2393.59
2393.6
2393.6
2393.6
2393.6
2393.6
2393.61
2393.61
2393.61
2393.61
2393.61
2393.62
2393.62
2393.62
2393.62
2393.62
2393.62
2393.62
2393.62
2393.62
2393.62
2393.62
2393.62
2393.62
2393.62
2393.62
2393.62
2393.62
2393.62
2393.62
2393.62
2393.62
2393.62
2393.62
2393.61
2393.61
2393.61
2393.61
2393.61
2393.61
2393.61
2393.61
)
;

boundaryField
{
    boundary
    {
        type            empty;
    }
    inlet
    {
        type            fixedValue;
        value           uniform 300;
    }
    outlet
    {
        type            zeroGradient;
    }
}


// ************************************************************************* //
