/*--------------------------------*- C++ -*----------------------------------*\
  =========                 |
  \\      /  F ield         | OpenFOAM: The Open Source CFD Toolbox
   \\    /   O peration     | Website:  https://openfoam.org
    \\  /    A nd           | Version:  7
     \\/     M anipulation  |
\*---------------------------------------------------------------------------*/
FoamFile
{
    version     2.0;
    format      ascii;
    class       volVectorField;
    location    "7e-05";
    object      U;
}
// * * * * * * * * * * * * * * * * * * * * * * * * * * * * * * * * * * * * * //

dimensions      [0 1 -1 0 0 0 0];

internalField   nonuniform List<vector> 
500
(
(2.3501 0 0)
(2.3532 0 0)
(2.35464 0 0)
(2.35562 0 0)
(2.35696 0 0)
(2.35842 0 0)
(2.3598 0 0)
(2.36118 0 0)
(2.36265 0 0)
(2.36417 0 0)
(2.36574 0 0)
(2.36734 0 0)
(2.36893 0 0)
(2.37053 0 0)
(2.37213 0 0)
(2.37371 0 0)
(2.37528 0 0)
(2.37684 0 0)
(2.37839 0 0)
(2.37992 0 0)
(2.38143 0 0)
(2.38292 0 0)
(2.3844 0 0)
(2.38586 0 0)
(2.3873 0 0)
(2.38872 0 0)
(2.39011 0 0)
(2.3915 0 0)
(2.39287 0 0)
(2.39418 0 0)
(2.39547 0 0)
(2.39676 0 0)
(2.39803 0 0)
(2.39926 0 0)
(2.40047 0 0)
(2.40164 0 0)
(2.40279 0 0)
(2.40391 0 0)
(2.405 0 0)
(2.40606 0 0)
(2.4071 0 0)
(2.40809 0 0)
(2.40906 0 0)
(2.41 0 0)
(2.4109 0 0)
(2.41177 0 0)
(2.41259 0 0)
(2.4134 0 0)
(2.41416 0 0)
(2.41489 0 0)
(2.41558 0 0)
(2.41624 0 0)
(2.41685 0 0)
(2.41744 0 0)
(2.41798 0 0)
(2.41848 0 0)
(2.41895 0 0)
(2.41937 0 0)
(2.41976 0 0)
(2.42011 0 0)
(2.42041 0 0)
(2.42068 0 0)
(2.42091 0 0)
(2.42109 0 0)
(2.42124 0 0)
(2.42134 0 0)
(2.4214 0 0)
(2.42142 0 0)
(2.4214 0 0)
(2.42135 0 0)
(2.42123 0 0)
(2.42108 0 0)
(2.4209 0 0)
(2.42066 0 0)
(2.42039 0 0)
(2.42008 0 0)
(2.41972 0 0)
(2.41932 0 0)
(2.41888 0 0)
(2.4184 0 0)
(2.41788 0 0)
(2.41732 0 0)
(2.41671 0 0)
(2.41607 0 0)
(2.41539 0 0)
(2.41466 0 0)
(2.4139 0 0)
(2.41309 0 0)
(2.41224 0 0)
(2.41137 0 0)
(2.41044 0 0)
(2.40949 0 0)
(2.40849 0 0)
(2.40746 0 0)
(2.40639 0 0)
(2.40528 0 0)
(2.40415 0 0)
(2.40297 0 0)
(2.40176 0 0)
(2.40051 0 0)
(2.39924 0 0)
(2.39793 0 0)
(2.39658 0 0)
(2.39521 0 0)
(2.3938 0 0)
(2.39237 0 0)
(2.39091 0 0)
(2.3894 0 0)
(2.38789 0 0)
(2.38634 0 0)
(2.38476 0 0)
(2.38315 0 0)
(2.38152 0 0)
(2.37987 0 0)
(2.37819 0 0)
(2.37649 0 0)
(2.37476 0 0)
(2.37301 0 0)
(2.37124 0 0)
(2.36945 0 0)
(2.36763 0 0)
(2.3658 0 0)
(2.36395 0 0)
(2.36209 0 0)
(2.36015 0 0)
(2.35822 0 0)
(2.35639 0 0)
(2.35449 0 0)
(2.35249 0 0)
(2.3505 0 0)
(2.34853 0 0)
(2.34654 0 0)
(2.34454 0 0)
(2.34251 0 0)
(2.34048 0 0)
(2.33844 0 0)
(2.33638 0 0)
(2.33431 0 0)
(2.33224 0 0)
(2.33015 0 0)
(2.32805 0 0)
(2.32594 0 0)
(2.32383 0 0)
(2.3217 0 0)
(2.31957 0 0)
(2.31743 0 0)
(2.31528 0 0)
(2.31313 0 0)
(2.31096 0 0)
(2.30879 0 0)
(2.30662 0 0)
(2.30444 0 0)
(2.30225 0 0)
(2.30006 0 0)
(2.29786 0 0)
(2.29566 0 0)
(2.29344 0 0)
(2.29123 0 0)
(2.28901 0 0)
(2.28679 0 0)
(2.28457 0 0)
(2.28233 0 0)
(2.2801 0 0)
(2.27786 0 0)
(2.27562 0 0)
(2.27338 0 0)
(2.27113 0 0)
(2.26888 0 0)
(2.26662 0 0)
(2.26437 0 0)
(2.26212 0 0)
(2.25987 0 0)
(2.2576 0 0)
(2.25533 0 0)
(2.25307 0 0)
(2.25081 0 0)
(2.24854 0 0)
(2.24627 0 0)
(2.24401 0 0)
(2.24174 0 0)
(2.23948 0 0)
(2.23721 0 0)
(2.23494 0 0)
(2.23268 0 0)
(2.23042 0 0)
(2.22815 0 0)
(2.2259 0 0)
(2.22365 0 0)
(2.22138 0 0)
(2.21913 0 0)
(2.21688 0 0)
(2.21464 0 0)
(2.2124 0 0)
(2.21016 0 0)
(2.20792 0 0)
(2.20569 0 0)
(2.20346 0 0)
(2.20124 0 0)
(2.19903 0 0)
(2.19682 0 0)
(2.19461 0 0)
(2.19241 0 0)
(2.19023 0 0)
(2.18803 0 0)
(2.18585 0 0)
(2.18368 0 0)
(2.18151 0 0)
(2.17935 0 0)
(2.17719 0 0)
(2.17504 0 0)
(2.1729 0 0)
(2.17076 0 0)
(2.16863 0 0)
(2.16651 0 0)
(2.16439 0 0)
(2.16228 0 0)
(2.16017 0 0)
(2.15806 0 0)
(2.15597 0 0)
(2.15388 0 0)
(2.15179 0 0)
(2.1497 0 0)
(2.14762 0 0)
(2.14554 0 0)
(2.14346 0 0)
(2.14138 0 0)
(2.13931 0 0)
(2.13723 0 0)
(2.13515 0 0)
(2.13308 0 0)
(2.131 0 0)
(2.1289 0 0)
(2.12682 0 0)
(2.12473 0 0)
(2.12264 0 0)
(2.12053 0 0)
(2.11842 0 0)
(2.1163 0 0)
(2.11418 0 0)
(2.11205 0 0)
(2.10991 0 0)
(2.10775 0 0)
(2.10559 0 0)
(2.10342 0 0)
(2.10122 0 0)
(2.09901 0 0)
(2.09681 0 0)
(2.09459 0 0)
(2.09235 0 0)
(2.09009 0 0)
(2.08779 0 0)
(2.08551 0 0)
(2.08331 0 0)
(2.08103 0 0)
(2.07867 0 0)
(2.07632 0 0)
(2.07399 0 0)
(2.07165 0 0)
(2.06926 0 0)
(2.06688 0 0)
(2.0645 0 0)
(2.0621 0 0)
(2.05968 0 0)
(2.05724 0 0)
(2.0548 0 0)
(2.05235 0 0)
(2.0499 0 0)
(2.04743 0 0)
(2.04493 0 0)
(2.04242 0 0)
(2.03991 0 0)
(2.03738 0 0)
(2.03486 0 0)
(2.03246 0 0)
(2.03025 0 0)
(2.03121 0 0)
(2.0413 0 0)
(2.08169 0 0)
(2.19672 0 0)
(2.47314 0 0)
(3.05879 0 0)
(4.04912 0 0)
(5.25084 0 0)
(6.44132 0 0)
(7.51374 0 0)
(8.44896 0 0)
(9.24121 0 0)
(9.89054 0 0)
(10.4105 0 0)
(10.8233 0 0)
(11.1552 0 0)
(11.4293 0 0)
(11.6619 0 0)
(11.863 0 0)
(12.0394 0 0)
(12.1961 0 0)
(12.3366 0 0)
(12.4634 0 0)
(12.5782 0 0)
(12.6822 0 0)
(12.7764 0 0)
(12.8614 0 0)
(12.9374 0 0)
(13.005 0 0)
(13.0642 0 0)
(13.1153 0 0)
(13.1586 0 0)
(13.1944 0 0)
(13.223 0 0)
(13.2448 0 0)
(13.2602 0 0)
(13.2697 0 0)
(13.2741 0 0)
(13.2749 0 0)
(13.2728 0 0)
(13.2675 0 0)
(13.2599 0 0)
(13.2502 0 0)
(13.239 0 0)
(13.2267 0 0)
(13.2138 0 0)
(13.2006 0 0)
(13.1875 0 0)
(13.1747 0 0)
(13.1625 0 0)
(13.151 0 0)
(13.1404 0 0)
(13.1308 0 0)
(13.1222 0 0)
(13.1146 0 0)
(13.1081 0 0)
(13.1025 0 0)
(13.0979 0 0)
(13.0941 0 0)
(13.0911 0 0)
(13.0887 0 0)
(13.0869 0 0)
(13.0855 0 0)
(13.0846 0 0)
(13.0839 0 0)
(13.0834 0 0)
(13.0831 0 0)
(13.0828 0 0)
(13.0826 0 0)
(13.0823 0 0)
(13.0819 0 0)
(13.0814 0 0)
(13.0808 0 0)
(13.08 0 0)
(13.0791 0 0)
(13.0779 0 0)
(13.0766 0 0)
(13.0751 0 0)
(13.0734 0 0)
(13.0715 0 0)
(13.0695 0 0)
(13.0672 0 0)
(13.0649 0 0)
(13.0623 0 0)
(13.0597 0 0)
(13.0569 0 0)
(13.0539 0 0)
(13.0509 0 0)
(13.0478 0 0)
(13.0445 0 0)
(13.0412 0 0)
(13.0378 0 0)
(13.0343 0 0)
(13.0308 0 0)
(13.0272 0 0)
(13.0235 0 0)
(13.0198 0 0)
(13.016 0 0)
(13.0123 0 0)
(13.0084 0 0)
(13.0047 0 0)
(13.0005 0 0)
(12.9969 0 0)
(12.9927 0 0)
(12.9889 0 0)
(12.9848 0 0)
(12.9807 0 0)
(12.9767 0 0)
(12.9726 0 0)
(12.9685 0 0)
(12.9643 0 0)
(12.9602 0 0)
(12.956 0 0)
(12.9518 0 0)
(12.9475 0 0)
(12.9433 0 0)
(12.939 0 0)
(12.9347 0 0)
(12.9304 0 0)
(12.9261 0 0)
(12.9217 0 0)
(12.9173 0 0)
(12.9129 0 0)
(12.9085 0 0)
(12.904 0 0)
(12.8996 0 0)
(12.8951 0 0)
(12.8905 0 0)
(12.886 0 0)
(12.8814 0 0)
(12.8768 0 0)
(12.8722 0 0)
(12.8676 0 0)
(12.8629 0 0)
(12.8582 0 0)
(12.8535 0 0)
(12.8487 0 0)
(12.844 0 0)
(12.8392 0 0)
(12.8344 0 0)
(12.8295 0 0)
(12.8246 0 0)
(12.8197 0 0)
(12.8148 0 0)
(12.8099 0 0)
(12.8049 0 0)
(12.7999 0 0)
(12.7948 0 0)
(12.7898 0 0)
(12.7847 0 0)
(12.7796 0 0)
(12.7744 0 0)
(12.7692 0 0)
(12.764 0 0)
(12.7588 0 0)
(12.7535 0 0)
(12.7482 0 0)
(12.7429 0 0)
(12.7376 0 0)
(12.7322 0 0)
(12.7268 0 0)
(12.7214 0 0)
(12.7159 0 0)
(12.7104 0 0)
(12.7049 0 0)
(12.6994 0 0)
(12.6938 0 0)
(12.6882 0 0)
(12.6826 0 0)
(12.6769 0 0)
(12.6712 0 0)
(12.6655 0 0)
(12.6598 0 0)
(12.654 0 0)
(12.6482 0 0)
(12.6424 0 0)
(12.6365 0 0)
(12.6307 0 0)
(12.6248 0 0)
(12.6188 0 0)
(12.6129 0 0)
(12.6069 0 0)
(12.6009 0 0)
(12.5949 0 0)
(12.5888 0 0)
(12.5828 0 0)
(12.5767 0 0)
(12.5705 0 0)
(12.5644 0 0)
(12.5582 0 0)
(12.552 0 0)
(12.5458 0 0)
(12.5395 0 0)
(12.5333 0 0)
(12.527 0 0)
(12.5207 0 0)
(12.5144 0 0)
(12.508 0 0)
(12.5016 0 0)
(12.4952 0 0)
(12.4888 0 0)
(12.4824 0 0)
(12.4759 0 0)
(12.4695 0 0)
(12.463 0 0)
(12.4565 0 0)
(12.4499 0 0)
(12.4434 0 0)
(12.4368 0 0)
(12.4303 0 0)
(12.4237 0 0)
(12.417 0 0)
(12.4104 0 0)
(12.4038 0 0)
(12.3971 0 0)
(12.3904 0 0)
(12.3837 0 0)
(12.377 0 0)
(12.3703 0 0)
(12.3636 0 0)
(12.3568 0 0)
(12.3501 0 0)
(12.3432 0 0)
(12.3359 0 0)
(12.3273 0 0)
)
;

boundaryField
{
    boundary
    {
        type            empty;
    }
    inlet
    {
        type            fixedValue;
        value           uniform (2.34893 0 0);
    }
    outlet
    {
        type            zeroGradient;
    }
}


// ************************************************************************* //
