/*--------------------------------*- C++ -*----------------------------------*\
  =========                 |
  \\      /  F ield         | OpenFOAM: The Open Source CFD Toolbox
   \\    /   O peration     | Website:  https://openfoam.org
    \\  /    A nd           | Version:  7
     \\/     M anipulation  |
\*---------------------------------------------------------------------------*/
FoamFile
{
    version     2.0;
    format      ascii;
    class       volScalarField;
    location    "0.00062";
    object      H;
}
// * * * * * * * * * * * * * * * * * * * * * * * * * * * * * * * * * * * * * //

dimensions      [0 0 0 0 0 0 0];

internalField   nonuniform List<scalar> 
126
(
3.47794e-41
3.47793e-41
3.47793e-41
3.47792e-41
3.4779e-41
3.47787e-41
3.47786e-41
3.47787e-41
3.47791e-41
3.47799e-41
3.4781e-41
3.47825e-41
3.47842e-41
3.47861e-41
3.47882e-41
3.47903e-41
3.47925e-41
3.47948e-41
3.4797e-41
3.47992e-41
3.48014e-41
3.48036e-41
3.48058e-41
3.4808e-41
3.48102e-41
3.48125e-41
3.48147e-41
3.48169e-41
3.48192e-41
3.48214e-41
3.48237e-41
3.4826e-41
3.48284e-41
3.48308e-41
3.48332e-41
3.48356e-41
3.4838e-41
3.48405e-41
3.48431e-41
3.48456e-41
3.48482e-41
3.48508e-41
3.48534e-41
3.48561e-41
3.48587e-41
3.48614e-41
3.4864e-41
3.48666e-41
3.48692e-41
3.48718e-41
3.48743e-41
3.48768e-41
3.48792e-41
3.48816e-41
3.48838e-41
3.4886e-41
3.48881e-41
3.48901e-41
3.4892e-41
3.48938e-41
3.48955e-41
3.4897e-41
3.48985e-41
3.48997e-41
3.49008e-41
3.49018e-41
3.49026e-41
3.49033e-41
3.49037e-41
3.4904e-41
3.4904e-41
3.49039e-41
3.49035e-41
3.4903e-41
3.49021e-41
3.49011e-41
3.48997e-41
3.48981e-41
3.48963e-41
3.48941e-41
3.48916e-41
3.48888e-41
3.48857e-41
3.48823e-41
3.48786e-41
3.48748e-41
3.48716e-41
3.48716e-41
3.48845e-41
3.49449e-41
3.51779e-41
3.60286e-41
3.90729e-41
4.98495e-41
8.76871e-41
2.19566e-40
6.76002e-40
2.24492e-39
7.60156e-39
2.57694e-38
8.69887e-38
2.91969e-37
9.74058e-37
3.23013e-36
1.0649e-35
3.49085e-35
1.13812e-34
3.69131e-34
1.19132e-33
3.82696e-33
1.22402e-32
3.89916e-32
1.23754e-31
3.91489e-31
1.23493e-30
3.88641e-30
1.22097e-29
3.83218e-29
1.20282e-28
3.78049e-28
1.19194e-27
3.77885e-27
1.20851e-26
3.91498e-26
1.29127e-25
4.36184e-25
)
;

boundaryField
{
    boundary
    {
        type            empty;
    }
    inlet
    {
        type            fixedValue;
        value           nonuniform 0();
    }
    outlet
    {
        type            zeroGradient;
    }
    procBoundary3to1
    {
        type            processor;
        value           uniform 1.52516e-24;
    }
    procBoundary3to2
    {
        type            processor;
        value           uniform 3.47727e-41;
    }
}


// ************************************************************************* //
