/*--------------------------------*- C++ -*----------------------------------*\
  =========                 |
  \\      /  F ield         | OpenFOAM: The Open Source CFD Toolbox
   \\    /   O peration     | Website:  https://openfoam.org
    \\  /    A nd           | Version:  7
     \\/     M anipulation  |
\*---------------------------------------------------------------------------*/
FoamFile
{
    version     2.0;
    format      ascii;
    class       volScalarField;
    location    "0.00083";
    object      H2O2;
}
// * * * * * * * * * * * * * * * * * * * * * * * * * * * * * * * * * * * * * //

dimensions      [0 0 0 0 0 0 0];

internalField   nonuniform List<scalar> 
124
(
1.12196e-06
1.1082e-06
1.09471e-06
1.08149e-06
1.06854e-06
1.05584e-06
1.04339e-06
1.03118e-06
1.01921e-06
1.00748e-06
9.95961e-07
9.84666e-07
9.73583e-07
9.62707e-07
9.52034e-07
9.41558e-07
9.31274e-07
9.21177e-07
9.11263e-07
9.01527e-07
8.91964e-07
8.82572e-07
8.73344e-07
8.64278e-07
8.55369e-07
8.46614e-07
8.38009e-07
8.29551e-07
8.21235e-07
8.1306e-07
8.0502e-07
7.97114e-07
7.89338e-07
7.81689e-07
7.74165e-07
7.66762e-07
7.59478e-07
7.5231e-07
7.45256e-07
7.38312e-07
7.31478e-07
7.2475e-07
7.18126e-07
7.11605e-07
7.05183e-07
6.98859e-07
6.9263e-07
6.86496e-07
6.80454e-07
6.74501e-07
6.68637e-07
6.6286e-07
6.57168e-07
6.51559e-07
6.46031e-07
6.40584e-07
6.35216e-07
6.29924e-07
6.24709e-07
6.19567e-07
6.14499e-07
6.09502e-07
6.04575e-07
5.99718e-07
5.94928e-07
5.90204e-07
5.85546e-07
5.80951e-07
5.7642e-07
5.7195e-07
5.67541e-07
5.63191e-07
5.58899e-07
5.54665e-07
5.50487e-07
5.46364e-07
5.42296e-07
5.38281e-07
5.34318e-07
5.30406e-07
5.26544e-07
5.22732e-07
5.18968e-07
5.15252e-07
5.11582e-07
5.07958e-07
5.04379e-07
5.00843e-07
4.97351e-07
4.93901e-07
4.90492e-07
4.87124e-07
4.83796e-07
4.80507e-07
4.77256e-07
4.74042e-07
4.70865e-07
4.67724e-07
4.64618e-07
4.61546e-07
4.58508e-07
4.55502e-07
4.52528e-07
4.49586e-07
4.46674e-07
4.43792e-07
4.40939e-07
4.38115e-07
4.35318e-07
4.32548e-07
4.29805e-07
4.27087e-07
4.24396e-07
4.21731e-07
4.19092e-07
4.16483e-07
4.13907e-07
4.1137e-07
4.08885e-07
4.06473e-07
4.04175e-07
4.02064e-07
4.0028e-07
3.99104e-07
)
;

boundaryField
{
    boundary
    {
        type            empty;
    }
    inlet
    {
        type            fixedValue;
        value           nonuniform 0();
    }
    outlet
    {
        type            zeroGradient;
    }
    procBoundary0to1
    {
        type            processor;
        value           uniform 1.13594e-06;
    }
}


// ************************************************************************* //
