/*--------------------------------*- C++ -*----------------------------------*\
  =========                 |
  \\      /  F ield         | OpenFOAM: The Open Source CFD Toolbox
   \\    /   O peration     | Website:  https://openfoam.org
    \\  /    A nd           | Version:  7
     \\/     M anipulation  |
\*---------------------------------------------------------------------------*/
FoamFile
{
    version     2.0;
    format      ascii;
    class       volScalarField;
    location    "0.00053";
    object      H;
}
// * * * * * * * * * * * * * * * * * * * * * * * * * * * * * * * * * * * * * //

dimensions      [0 0 0 0 0 0 0];

internalField   nonuniform List<scalar> 
500
(
1.48541e-41
2.01285e-41
2.12826e-41
2.15524e-41
2.16335e-41
2.1675e-41
2.17085e-41
2.17408e-41
2.17734e-41
2.1807e-41
2.18422e-41
2.18798e-41
2.19206e-41
2.19658e-41
2.20165e-41
2.20743e-41
2.21411e-41
2.22187e-41
2.23094e-41
2.24157e-41
2.25401e-41
2.26854e-41
2.28542e-41
2.30492e-41
2.32731e-41
2.3528e-41
2.38158e-41
2.4138e-41
2.44952e-41
2.48876e-41
2.53144e-41
2.57738e-41
2.62631e-41
2.67789e-41
2.73165e-41
2.78708e-41
2.84357e-41
2.90048e-41
2.95714e-41
3.01289e-41
3.06708e-41
3.11911e-41
3.16846e-41
3.2147e-41
3.25749e-41
3.29661e-41
3.33194e-41
3.36345e-41
3.39124e-41
3.41544e-41
3.43628e-41
3.45402e-41
3.46895e-41
3.48138e-41
3.49161e-41
3.49994e-41
3.50665e-41
3.512e-41
3.51623e-41
3.51953e-41
3.52208e-41
3.52403e-41
3.52552e-41
3.52663e-41
3.52747e-41
3.52808e-41
3.52853e-41
3.52886e-41
3.52909e-41
3.52926e-41
3.52939e-41
3.52948e-41
3.52954e-41
3.52959e-41
3.52963e-41
3.52966e-41
3.52968e-41
3.5297e-41
3.52972e-41
3.52974e-41
3.52976e-41
3.52978e-41
3.5298e-41
3.52983e-41
3.52985e-41
3.52988e-41
3.5299e-41
3.52993e-41
3.52996e-41
3.53e-41
3.53003e-41
3.53007e-41
3.53011e-41
3.53015e-41
3.53019e-41
3.53024e-41
3.53029e-41
3.53034e-41
3.53039e-41
3.53045e-41
3.53051e-41
3.53057e-41
3.53063e-41
3.5307e-41
3.53077e-41
3.53084e-41
3.53092e-41
3.531e-41
3.53108e-41
3.53117e-41
3.53126e-41
3.53135e-41
3.53145e-41
3.53155e-41
3.53166e-41
3.53176e-41
3.53188e-41
3.53199e-41
3.53211e-41
3.53223e-41
3.53236e-41
3.53248e-41
3.53259e-41
3.5327e-41
3.53281e-41
3.53291e-41
3.53291e-41
3.53298e-41
3.53312e-41
3.53331e-41
3.53353e-41
3.53377e-41
3.53401e-41
3.53425e-41
3.53448e-41
3.53469e-41
3.5349e-41
3.53511e-41
3.5353e-41
3.5355e-41
3.5357e-41
3.53589e-41
3.53609e-41
3.53629e-41
3.53649e-41
3.5367e-41
3.5369e-41
3.53711e-41
3.53732e-41
3.53753e-41
3.53774e-41
3.53796e-41
3.53818e-41
3.5384e-41
3.53862e-41
3.53885e-41
3.53908e-41
3.53932e-41
3.53956e-41
3.5398e-41
3.54005e-41
3.54029e-41
3.54054e-41
3.5408e-41
3.54105e-41
3.5413e-41
3.54154e-41
3.54179e-41
3.54203e-41
3.54227e-41
3.5425e-41
3.54272e-41
3.54293e-41
3.54314e-41
3.54334e-41
3.54353e-41
3.5437e-41
3.54387e-41
3.54402e-41
3.54417e-41
3.54429e-41
3.54441e-41
3.54451e-41
3.54459e-41
3.54466e-41
3.54471e-41
3.54474e-41
3.54476e-41
3.54475e-41
3.54473e-41
3.54468e-41
3.54461e-41
3.54452e-41
3.5444e-41
3.54426e-41
3.54409e-41
3.54389e-41
3.54366e-41
3.5434e-41
3.54311e-41
3.54279e-41
3.54243e-41
3.54204e-41
3.54161e-41
3.54114e-41
3.54064e-41
3.54009e-41
3.53951e-41
3.53888e-41
3.53821e-41
3.53749e-41
3.53674e-41
3.53598e-41
3.53532e-41
3.53519e-41
3.53729e-41
3.54817e-41
3.59299e-41
3.76725e-41
4.43093e-41
6.9289e-41
1.62435e-40
5.06771e-40
1.76901e-39
6.35753e-39
2.29003e-38
8.20531e-38
2.91851e-37
1.02996e-36
3.60613e-36
1.2527e-35
4.31797e-35
1.47705e-34
5.01483e-34
1.69022e-33
5.65649e-33
1.88009e-32
6.20832e-32
2.03749e-31
6.64875e-31
2.15848e-30
6.97608e-30
2.24642e-29
7.21502e-29
2.31435e-28
7.42712e-28
2.39001e-27
7.73517e-27
2.52764e-26
8.3797e-26
2.83422e-25
9.89165e-25
3.55024e-24
1.31847e-23
5.08169e-23
2.03089e-22
8.38584e-22
3.55945e-21
1.54474e-20
6.82141e-20
3.05368e-19
1.38247e-18
6.32305e-18
2.92296e-17
1.36842e-16
6.51242e-16
3.16831e-15
1.58717e-14
8.25318e-14
4.49137e-13
2.79407e-12
2.07825e-11
2.05737e-10
1.90868e-09
1.79334e-08
1.65356e-07
1.4258e-06
1.04065e-05
5.53279e-05
0.000185109
0.00041214
0.000719909
0.00107802
0.00142598
0.00169553
0.00185633
0.00192194
0.00191645
0.00187087
0.00180475
0.00173029
0.00165447
0.001581
0.00151164
0.00144705
0.00138731
0.00133222
0.00128143
0.00123456
0.00119121
0.00115104
0.00111371
0.00107894
0.00104647
0.00101608
0.000987559
0.000960742
0.000935476
0.000911626
0.000889071
0.000867707
0.00084744
0.000828749
0.000811346
0.000794653
0.000778626
0.000763225
0.000748414
0.000734157
0.000720422
0.000707181
0.000694407
0.000682073
0.000670158
0.000658638
0.000647494
0.000636707
0.00062626
0.000616136
0.000606321
0.000596799
0.000587557
0.000578583
0.000569865
0.000561392
0.000553153
0.000545139
0.00053734
0.000529747
0.000522353
0.000515149
0.000508128
0.000501283
0.000494608
0.000488095
0.000481739
0.000475535
0.000469476
0.000463558
0.000457776
0.000452124
0.0004466
0.000441198
0.000435914
0.000430745
0.000425687
0.000420736
0.000415888
0.000411142
0.000406493
0.00040194
0.000397478
0.000393105
0.00038882
0.000384618
0.000380499
0.00037646
0.000372499
0.000368613
0.000364802
0.000361063
0.000357394
0.000353795
0.000350264
0.000346799
0.000343399
0.000340053
0.000336754
0.000333514
0.00033033
0.000327201
0.000324126
0.000321104
0.000318133
0.000315213
0.000312341
0.000309518
0.000306742
0.000304012
0.000301327
0.000298687
0.00029609
0.000293536
0.000291023
0.000288552
0.000286121
0.000283729
0.000281376
0.000279061
0.000276784
0.000274544
0.00027234
0.000270173
0.00026804
0.000265942
0.000263878
0.000261848
0.000259852
0.000257888
0.000255956
0.000254057
0.000252189
0.000250352
0.000248546
0.000246769
0.00024502
0.000243295
0.000241585
0.000239861
0.000238071
0.000236451
0.000234861
0.000233299
0.000231763
0.000230252
0.000228765
0.0002273
0.000225858
0.000224437
0.000223037
0.000221657
0.000220296
0.000218954
0.000217631
0.000216324
0.000215035
0.000213761
0.000212502
0.000211257
0.000210026
0.000208808
0.0002076
0.000206404
0.000205217
0.000204039
0.000202869
0.000201705
0.000200547
0.000199393
0.000198243
0.000197095
0.000195949
0.000194803
0.000193657
0.000192508
0.000191357
0.000190203
0.000189043
0.000187879
0.000186708
0.000185529
0.000184343
0.000183148
0.000181944
0.00018073
0.000179505
0.00017827
0.000177023
0.000175764
0.000174494
0.000173211
0.000171916
0.000170609
0.000169289
0.000167957
0.000166613
0.000165256
0.000163888
0.000162507
0.000161116
0.000159714
0.000158302
0.000156881
0.000155451
0.000154013
0.000152571
0.000151124
0.000149676
0.00014823
0.000146791
0.000145364
0.000143957
0.000142579
0.000141244
0.00013997
0.000138779
0.000137705
0.00013679
0.000136093
0.000135695
)
;

boundaryField
{
    boundary
    {
        type            empty;
    }
    inlet
    {
        type            fixedValue;
        value           uniform 0;
    }
    outlet
    {
        type            zeroGradient;
    }
}


// ************************************************************************* //
