/*--------------------------------*- C++ -*----------------------------------*\
  =========                 |
  \\      /  F ield         | OpenFOAM: The Open Source CFD Toolbox
   \\    /   O peration     | Website:  https://openfoam.org
    \\  /    A nd           | Version:  7
     \\/     M anipulation  |
\*---------------------------------------------------------------------------*/
FoamFile
{
    version     2.0;
    format      ascii;
    class       volScalarField;
    location    "0.00053";
    object      HO2;
}
// * * * * * * * * * * * * * * * * * * * * * * * * * * * * * * * * * * * * * //

dimensions      [0 0 0 0 0 0 0];

internalField   nonuniform List<scalar> 
500
(
5.60212e-38
1.27569e-37
1.99487e-37
2.71573e-37
3.43783e-37
4.16105e-37
4.88539e-37
5.61097e-37
6.33795e-37
7.06661e-37
7.79733e-37
8.53063e-37
9.26721e-37
1.0008e-36
1.07541e-36
1.15069e-36
1.22682e-36
1.304e-36
1.38244e-36
1.46241e-36
1.54418e-36
1.62803e-36
1.71424e-36
1.80308e-36
1.89477e-36
1.98947e-36
2.08728e-36
2.1882e-36
2.29209e-36
2.39869e-36
2.50762e-36
2.61834e-36
2.73017e-36
2.84234e-36
2.95397e-36
3.06411e-36
3.17181e-36
3.27611e-36
3.37611e-36
3.47098e-36
3.56004e-36
3.64273e-36
3.71865e-36
3.78757e-36
3.84943e-36
3.90431e-36
3.95244e-36
3.99418e-36
4.02995e-36
4.06025e-36
4.08564e-36
4.10667e-36
4.12389e-36
4.13783e-36
4.14901e-36
4.15785e-36
4.16479e-36
4.17017e-36
4.1743e-36
4.17743e-36
4.17979e-36
4.18154e-36
4.18284e-36
4.18378e-36
4.18447e-36
4.18496e-36
4.18531e-36
4.18556e-36
4.18574e-36
4.18586e-36
4.18595e-36
4.18601e-36
4.18606e-36
4.1861e-36
4.18613e-36
4.18616e-36
4.18618e-36
4.1862e-36
4.18622e-36
4.18625e-36
4.18627e-36
4.1863e-36
4.18632e-36
4.18635e-36
4.18638e-36
4.18641e-36
4.18644e-36
4.18648e-36
4.18652e-36
4.18656e-36
4.1866e-36
4.18664e-36
4.18669e-36
4.18674e-36
4.18679e-36
4.18685e-36
4.1869e-36
4.18696e-36
4.18703e-36
4.18709e-36
4.18716e-36
4.18723e-36
4.18731e-36
4.18739e-36
4.18747e-36
4.18756e-36
4.18765e-36
4.18774e-36
4.18784e-36
4.18794e-36
4.18804e-36
4.18815e-36
4.18826e-36
4.18838e-36
4.1885e-36
4.18863e-36
4.18876e-36
4.18889e-36
4.18903e-36
4.18916e-36
4.18929e-36
4.18937e-36
4.18925e-36
4.18832e-36
4.18422e-36
4.17606e-36
4.17627e-36
4.17653e-36
4.17685e-36
4.17725e-36
4.17775e-36
4.17837e-36
4.17912e-36
4.18001e-36
4.18104e-36
4.18217e-36
4.18338e-36
4.18462e-36
4.18584e-36
4.18696e-36
4.18794e-36
4.18875e-36
4.18934e-36
4.18972e-36
4.18988e-36
4.18987e-36
4.18971e-36
4.18944e-36
4.18912e-36
4.1888e-36
4.1885e-36
4.18828e-36
4.18816e-36
4.18815e-36
4.18828e-36
4.18854e-36
4.18893e-36
4.18944e-36
4.19006e-36
4.19077e-36
4.19155e-36
4.19237e-36
4.19323e-36
4.1941e-36
4.19496e-36
4.1958e-36
4.19661e-36
4.19738e-36
4.1981e-36
4.19877e-36
4.19939e-36
4.19995e-36
4.20046e-36
4.20092e-36
4.20133e-36
4.2017e-36
4.20203e-36
4.20232e-36
4.20257e-36
4.2028e-36
4.203e-36
4.20317e-36
4.20332e-36
4.20344e-36
4.20354e-36
4.20362e-36
4.20367e-36
4.20371e-36
4.20371e-36
4.2037e-36
4.20366e-36
4.20359e-36
4.2035e-36
4.20338e-36
4.20322e-36
4.20304e-36
4.20283e-36
4.20258e-36
4.2023e-36
4.20199e-36
4.20163e-36
4.20124e-36
4.20081e-36
4.20034e-36
4.19982e-36
4.19926e-36
4.19865e-36
4.198e-36
4.1973e-36
4.19655e-36
4.19575e-36
4.19489e-36
4.19399e-36
4.19303e-36
4.19203e-36
4.19104e-36
4.19024e-36
4.19038e-36
4.19437e-36
4.21337e-36
4.29003e-36
4.58591e-36
5.70798e-36
9.91895e-36
2.559e-35
8.34677e-35
2.95723e-34
1.06908e-33
3.87046e-33
1.39683e-32
5.02302e-32
1.80147e-31
6.45376e-31
2.31421e-30
8.3264e-30
3.01425e-29
1.1012e-28
4.07186e-28
1.52791e-27
5.82925e-27
2.26337e-26
8.94266e-26
3.59125e-25
1.46304e-24
6.03215e-24
2.51087e-23
1.0527e-22
4.43647e-22
1.87635e-21
7.95385e-21
3.3761e-20
1.44358e-19
6.14839e-19
2.61178e-18
1.10846e-17
4.70182e-17
1.99341e-16
8.44738e-16
3.57813e-15
1.515e-14
6.41209e-14
2.71287e-13
1.14736e-12
4.85069e-12
2.04986e-11
8.65832e-11
3.65503e-10
1.54184e-09
6.49829e-09
2.73551e-08
1.14889e-07
4.80482e-07
1.98733e-06
8.04915e-06
3.11109e-05
0.000108309
0.000297218
0.000497376
0.000504867
0.000410702
0.00029962
0.000211087
0.00014785
0.000103315
7.25123e-05
5.21893e-05
3.65723e-05
2.80105e-05
2.24915e-05
1.88378e-05
1.633e-05
1.45348e-05
1.31933e-05
1.21498e-05
1.13095e-05
1.06128e-05
1.00216e-05
9.51053e-06
9.06225e-06
8.66443e-06
8.30806e-06
7.98636e-06
7.69409e-06
7.42711e-06
7.18208e-06
6.9563e-06
6.74749e-06
6.55378e-06
6.37356e-06
6.20549e-06
6.04846e-06
5.90157e-06
5.76818e-06
5.6442e-06
5.52653e-06
5.41471e-06
5.3083e-06
5.20693e-06
5.11024e-06
5.01791e-06
4.92967e-06
4.84526e-06
4.76443e-06
4.68696e-06
4.61267e-06
4.54135e-06
4.47285e-06
4.407e-06
4.34366e-06
4.2827e-06
4.22398e-06
4.1674e-06
4.11283e-06
4.06019e-06
4.00937e-06
3.96029e-06
3.91285e-06
3.86699e-06
3.82263e-06
3.77969e-06
3.73811e-06
3.69784e-06
3.6588e-06
3.62095e-06
3.58424e-06
3.5486e-06
3.514e-06
3.48039e-06
3.44774e-06
3.41599e-06
3.38511e-06
3.35508e-06
3.32584e-06
3.29738e-06
3.26965e-06
3.24264e-06
3.21632e-06
3.19065e-06
3.16562e-06
3.14121e-06
3.11738e-06
3.09413e-06
3.07143e-06
3.04926e-06
3.02761e-06
3.00645e-06
2.98578e-06
2.96558e-06
2.94583e-06
2.92652e-06
2.90763e-06
2.88915e-06
2.87107e-06
2.85337e-06
2.83604e-06
2.81906e-06
2.80243e-06
2.78617e-06
2.77024e-06
2.75465e-06
2.73937e-06
2.72439e-06
2.70971e-06
2.69532e-06
2.68121e-06
2.66737e-06
2.65379e-06
2.64047e-06
2.62738e-06
2.61454e-06
2.60192e-06
2.58952e-06
2.57734e-06
2.56536e-06
2.55357e-06
2.54198e-06
2.53057e-06
2.51933e-06
2.50825e-06
2.49734e-06
2.48658e-06
2.47595e-06
2.46547e-06
2.45511e-06
2.44487e-06
2.43474e-06
2.42471e-06
2.41478e-06
2.40492e-06
2.39515e-06
2.38544e-06
2.37579e-06
2.36618e-06
2.35663e-06
2.3471e-06
2.33762e-06
2.32819e-06
2.31876e-06
2.30806e-06
2.29589e-06
2.28637e-06
2.27664e-06
2.26675e-06
2.25673e-06
2.24655e-06
2.23622e-06
2.22571e-06
2.21502e-06
2.20413e-06
2.19303e-06
2.1817e-06
2.17013e-06
2.15831e-06
2.14623e-06
2.13388e-06
2.12126e-06
2.10834e-06
2.09513e-06
2.08163e-06
2.06782e-06
2.05371e-06
2.03931e-06
2.0246e-06
2.0096e-06
1.99432e-06
1.97877e-06
1.96295e-06
1.94689e-06
1.9306e-06
1.91411e-06
1.89743e-06
1.8806e-06
1.86365e-06
1.84659e-06
1.82948e-06
1.81234e-06
1.79522e-06
1.77815e-06
1.76117e-06
1.74433e-06
1.72767e-06
1.71123e-06
1.69507e-06
1.67922e-06
1.66374e-06
1.64867e-06
1.63404e-06
1.61992e-06
1.60633e-06
1.59332e-06
1.58093e-06
1.56918e-06
1.55813e-06
1.54779e-06
1.53819e-06
1.52937e-06
1.52132e-06
1.51409e-06
1.50766e-06
1.50206e-06
1.49729e-06
1.49335e-06
1.49022e-06
1.48791e-06
1.4864e-06
1.48566e-06
1.48568e-06
1.48644e-06
1.48789e-06
1.49e-06
1.49275e-06
1.49607e-06
1.49993e-06
1.50426e-06
1.509e-06
1.51407e-06
1.5193e-06
1.52449e-06
1.52916e-06
1.53241e-06
)
;

boundaryField
{
    boundary
    {
        type            empty;
    }
    inlet
    {
        type            fixedValue;
        value           uniform 0;
    }
    outlet
    {
        type            zeroGradient;
    }
}


// ************************************************************************* //
