/*--------------------------------*- C++ -*----------------------------------*\
  =========                 |
  \\      /  F ield         | OpenFOAM: The Open Source CFD Toolbox
   \\    /   O peration     | Website:  https://openfoam.org
    \\  /    A nd           | Version:  7
     \\/     M anipulation  |
\*---------------------------------------------------------------------------*/
FoamFile
{
    version     2.0;
    format      ascii;
    class       volScalarField;
    location    "0.00053";
    object      O;
}
// * * * * * * * * * * * * * * * * * * * * * * * * * * * * * * * * * * * * * //

dimensions      [0 0 0 0 0 0 0];

internalField   nonuniform List<scalar> 
500
(
1.57988e-47
3.7725e-47
5.98164e-47
8.19628e-47
1.0414e-46
1.26344e-46
1.48577e-46
1.70843e-46
1.93153e-46
2.1552e-46
2.37964e-46
2.6051e-46
2.8319e-46
3.06045e-46
3.29125e-46
3.52491e-46
3.76215e-46
4.00379e-46
4.25075e-46
4.50404e-46
4.76473e-46
5.03394e-46
5.31275e-46
5.60219e-46
5.90318e-46
6.21642e-46
6.54238e-46
6.88118e-46
7.23258e-46
7.5959e-46
7.96999e-46
8.35323e-46
8.74354e-46
9.13842e-46
9.53497e-46
9.93006e-46
1.03203e-45
1.07024e-45
1.1073e-45
1.14288e-45
1.17672e-45
1.20856e-45
1.23821e-45
1.26553e-45
1.29043e-45
1.31288e-45
1.3329e-45
1.35056e-45
1.36597e-45
1.37926e-45
1.39061e-45
1.40019e-45
1.40819e-45
1.4148e-45
1.42021e-45
1.42458e-45
1.42808e-45
1.43085e-45
1.43302e-45
1.43471e-45
1.43601e-45
1.437e-45
1.43774e-45
1.4383e-45
1.43871e-45
1.43901e-45
1.43923e-45
1.43939e-45
1.4395e-45
1.43958e-45
1.43964e-45
1.43969e-45
1.43972e-45
1.43974e-45
1.43976e-45
1.43977e-45
1.43979e-45
1.4398e-45
1.43981e-45
1.43982e-45
1.43983e-45
1.43984e-45
1.43985e-45
1.43986e-45
1.43988e-45
1.43989e-45
1.4399e-45
1.43992e-45
1.43994e-45
1.43995e-45
1.43997e-45
1.43999e-45
1.44001e-45
1.44003e-45
1.44006e-45
1.44008e-45
1.44011e-45
1.44013e-45
1.44016e-45
1.44019e-45
1.44022e-45
1.44025e-45
1.44028e-45
1.44032e-45
1.44036e-45
1.44039e-45
1.44043e-45
1.44048e-45
1.44052e-45
1.44056e-45
1.44061e-45
1.44066e-45
1.44071e-45
1.44076e-45
1.44081e-45
1.44087e-45
1.44092e-45
1.44098e-45
1.44104e-45
1.4411e-45
1.44114e-45
1.44114e-45
1.44099e-45
1.44041e-45
1.43857e-45
1.4359e-45
1.43614e-45
1.43645e-45
1.43683e-45
1.4373e-45
1.43784e-45
1.43844e-45
1.43908e-45
1.43971e-45
1.44032e-45
1.44087e-45
1.44136e-45
1.44176e-45
1.44209e-45
1.44234e-45
1.44253e-45
1.44268e-45
1.44279e-45
1.44288e-45
1.44296e-45
1.44302e-45
1.44308e-45
1.44313e-45
1.44319e-45
1.44324e-45
1.4433e-45
1.44335e-45
1.44341e-45
1.44348e-45
1.44355e-45
1.44363e-45
1.44373e-45
1.44383e-45
1.44394e-45
1.44407e-45
1.44421e-45
1.44436e-45
1.44453e-45
1.4447e-45
1.44487e-45
1.44506e-45
1.44524e-45
1.44543e-45
1.44561e-45
1.44579e-45
1.44596e-45
1.44613e-45
1.44629e-45
1.44644e-45
1.44658e-45
1.44672e-45
1.44684e-45
1.44695e-45
1.44705e-45
1.44714e-45
1.44722e-45
1.4473e-45
1.44736e-45
1.44741e-45
1.44745e-45
1.44749e-45
1.44751e-45
1.44752e-45
1.44752e-45
1.44751e-45
1.44749e-45
1.44746e-45
1.44741e-45
1.44736e-45
1.44729e-45
1.4472e-45
1.44711e-45
1.44704e-45
1.44708e-45
1.44772e-45
1.45105e-45
1.46635e-45
1.53421e-45
1.83094e-45
3.1158e-45
8.63234e-45
3.21229e-44
1.31331e-43
5.46875e-43
2.27305e-42
9.38405e-42
3.84336e-41
1.56111e-40
6.28803e-40
2.5115e-39
9.94661e-39
3.90599e-38
1.52087e-37
5.87156e-37
2.24756e-36
8.53037e-36
3.21014e-35
1.19781e-34
4.43169e-34
1.62586e-33
5.91487e-33
2.13393e-32
7.63504e-32
2.70938e-31
9.53657e-31
3.32978e-30
1.1534e-29
3.96406e-29
1.35191e-28
4.57578e-28
1.53733e-27
5.12784e-27
1.69852e-26
5.58835e-26
1.82687e-25
5.93582e-25
1.91762e-24
6.16186e-24
1.97015e-23
6.27028e-23
1.98719e-22
6.27351e-22
1.97355e-21
6.18866e-21
1.93503e-20
6.03472e-20
1.88775e-19
5.87919e-19
1.82324e-18
5.64119e-18
1.74276e-17
5.37788e-17
1.65808e-16
5.10862e-16
1.57318e-15
4.84269e-15
1.4903e-14
4.5854e-14
1.41065e-13
4.33921e-13
1.33464e-12
4.10464e-12
1.26225e-11
3.88132e-11
1.19337e-10
3.669e-10
1.12828e-09
3.47537e-09
1.0794e-08
3.47299e-08
1.26392e-07
6.13563e-07
4.08461e-06
2.62892e-05
0.000124372
0.000470343
0.00129377
0.00255338
0.00391031
0.00503458
0.00580232
0.00624569
0.00641927
0.00644227
0.00637397
0.00625344
0.00610542
0.00594505
0.00578129
0.00561929
0.0054619
0.00531057
0.00516593
0.00502815
0.00489713
0.00477261
0.00465427
0.00454176
0.00443472
0.0043328
0.00423568
0.00414304
0.00405458
0.00397006
0.00388922
0.00381186
0.00373781
0.00366906
0.00360414
0.00354143
0.00348081
0.00342217
0.0033654
0.00331042
0.00325714
0.00320549
0.00315539
0.00310676
0.00305956
0.00301371
0.00296916
0.00292585
0.00288374
0.00284277
0.0028029
0.00276408
0.00272628
0.00268945
0.00265356
0.00261856
0.00258443
0.00255114
0.00251864
0.00248692
0.00245594
0.00242568
0.0023961
0.00236719
0.00233892
0.00231127
0.00228421
0.00225773
0.0022318
0.00220641
0.00218154
0.00215716
0.00213328
0.00210986
0.00208689
0.00206437
0.00204227
0.00202059
0.00199931
0.00197842
0.00195791
0.00193777
0.00191799
0.00189856
0.00187947
0.00186071
0.00184228
0.00182417
0.00180636
0.00178886
0.00177165
0.00175474
0.0017381
0.00172174
0.00170564
0.00168981
0.00167423
0.0016589
0.00164379
0.00162893
0.0016143
0.0015999
0.00158572
0.00157176
0.00155801
0.00154447
0.00153113
0.00151799
0.00150505
0.00149229
0.00147972
0.00146733
0.00145511
0.00144307
0.00143119
0.00141948
0.00140793
0.00139653
0.00138528
0.00137418
0.00136322
0.00135241
0.00134172
0.00133117
0.00132074
0.00131044
0.00130026
0.00129019
0.00128023
0.00127037
0.00126062
0.00125097
0.00124141
0.00123193
0.00122255
0.00121324
0.00120402
0.00119488
0.00118576
0.00117619
0.00116534
0.00115648
0.00114755
0.00113861
0.00112968
0.00112074
0.0011118
0.00110285
0.00109388
0.00108489
0.00107587
0.00106683
0.00105774
0.00104861
0.00103943
0.0010302
0.00102091
0.00101157
0.00100216
0.000992689
0.000983151
0.000973546
0.000963873
0.000954132
0.000944324
0.000934451
0.000924516
0.000914522
0.000904473
0.000894375
0.000884234
0.000874057
0.00086385
0.000853624
0.000843387
0.00083315
0.000822922
0.000812716
0.000802543
0.000792415
0.000782345
0.000772345
0.000762429
0.000752609
0.000742898
0.000733308
0.000723852
0.000714541
0.000705387
0.000696401
0.000687592
0.00067897
0.000670542
0.000662318
0.000654301
0.0006465
0.000638917
0.000631555
0.000624419
0.000617507
0.000610822
0.000604362
0.000598126
0.000592112
0.000586316
0.000580736
0.000575369
0.00057021
0.000565258
0.00056051
0.000555966
0.000551628
0.000547502
0.000543598
0.000539932
0.000536531
0.00053343
0.000530683
0.000528365
0.000526582
0.000525511
)
;

boundaryField
{
    boundary
    {
        type            empty;
    }
    inlet
    {
        type            fixedValue;
        value           uniform 0;
    }
    outlet
    {
        type            zeroGradient;
    }
}


// ************************************************************************* //
