/*--------------------------------*- C++ -*----------------------------------*\
  =========                 |
  \\      /  F ield         | OpenFOAM: The Open Source CFD Toolbox
   \\    /   O peration     | Website:  https://openfoam.org
    \\  /    A nd           | Version:  7
     \\/     M anipulation  |
\*---------------------------------------------------------------------------*/
FoamFile
{
    version     2.0;
    format      ascii;
    class       volScalarField;
    location    "0.00053";
    object      OH;
}
// * * * * * * * * * * * * * * * * * * * * * * * * * * * * * * * * * * * * * //

dimensions      [0 0 0 0 0 0 0];

internalField   nonuniform List<scalar> 
500
(
9.38979e-48
1.83095e-47
2.44247e-47
2.85846e-47
3.14161e-47
3.33522e-47
3.46865e-47
3.56169e-47
3.62769e-47
3.67567e-47
3.71175e-47
3.7401e-47
3.76361e-47
3.78432e-47
3.80373e-47
3.82298e-47
3.84298e-47
3.86455e-47
3.88841e-47
3.91526e-47
3.94578e-47
3.98063e-47
4.02047e-47
4.06595e-47
4.11766e-47
4.17614e-47
4.24186e-47
4.31516e-47
4.39626e-47
4.48521e-47
4.58188e-47
4.68594e-47
4.79683e-47
4.9138e-47
5.03585e-47
5.16184e-47
5.29041e-47
5.42014e-47
5.54949e-47
5.67695e-47
5.80102e-47
5.92032e-47
6.03364e-47
6.13995e-47
6.23844e-47
6.32857e-47
6.41004e-47
6.48278e-47
6.54694e-47
6.60286e-47
6.65103e-47
6.69203e-47
6.72654e-47
6.75525e-47
6.77888e-47
6.79812e-47
6.8136e-47
6.82594e-47
6.83567e-47
6.84327e-47
6.84914e-47
6.85363e-47
6.85704e-47
6.8596e-47
6.8615e-47
6.86291e-47
6.86394e-47
6.86469e-47
6.86523e-47
6.86562e-47
6.86591e-47
6.86611e-47
6.86627e-47
6.86638e-47
6.86647e-47
6.86654e-47
6.8666e-47
6.86666e-47
6.86671e-47
6.86676e-47
6.86682e-47
6.86687e-47
6.86693e-47
6.86699e-47
6.86705e-47
6.86712e-47
6.86719e-47
6.86726e-47
6.86734e-47
6.86742e-47
6.86751e-47
6.8676e-47
6.8677e-47
6.86781e-47
6.86791e-47
6.86803e-47
6.86815e-47
6.86827e-47
6.86841e-47
6.86854e-47
6.86869e-47
6.86884e-47
6.869e-47
6.86916e-47
6.86933e-47
6.86951e-47
6.8697e-47
6.86989e-47
6.8701e-47
6.87031e-47
6.87052e-47
6.87075e-47
6.87098e-47
6.87123e-47
6.87148e-47
6.87174e-47
6.87201e-47
6.87228e-47
6.87257e-47
6.87286e-47
6.87316e-47
6.87344e-47
6.87368e-47
6.87378e-47
6.87352e-47
6.873e-47
6.87326e-47
6.87361e-47
6.87407e-47
6.87463e-47
6.87526e-47
6.87592e-47
6.8766e-47
6.87726e-47
6.87789e-47
6.87849e-47
6.87905e-47
6.87959e-47
6.8801e-47
6.88059e-47
6.88108e-47
6.88155e-47
6.88203e-47
6.8825e-47
6.88298e-47
6.88346e-47
6.88394e-47
6.88442e-47
6.88491e-47
6.8854e-47
6.8859e-47
6.88641e-47
6.88692e-47
6.88743e-47
6.88796e-47
6.8885e-47
6.88905e-47
6.88961e-47
6.89017e-47
6.89075e-47
6.89134e-47
6.89194e-47
6.89254e-47
6.89314e-47
6.89375e-47
6.89435e-47
6.89495e-47
6.89555e-47
6.89613e-47
6.89671e-47
6.89727e-47
6.89781e-47
6.89833e-47
6.89883e-47
6.89932e-47
6.89977e-47
6.9002e-47
6.90061e-47
6.90098e-47
6.90133e-47
6.90164e-47
6.90192e-47
6.90217e-47
6.90238e-47
6.90255e-47
6.90269e-47
6.90278e-47
6.90282e-47
6.90282e-47
6.90278e-47
6.90268e-47
6.90253e-47
6.90233e-47
6.90206e-47
6.90174e-47
6.90135e-47
6.9009e-47
6.90039e-47
6.89983e-47
6.8993e-47
6.89916e-47
6.90102e-47
6.91191e-47
6.9624e-47
7.18422e-47
8.14044e-47
1.22181e-46
2.94523e-46
1.01683e-45
4.01897e-45
1.6393e-44
6.69696e-44
2.71959e-43
1.0958e-42
4.37878e-42
1.73505e-41
6.81687e-41
2.6556e-40
1.02574e-39
3.92834e-39
1.49168e-38
5.61614e-38
2.09656e-37
7.76053e-37
2.84843e-36
1.03674e-35
3.74199e-35
1.33948e-34
4.75553e-34
1.67467e-33
5.8502e-33
2.02754e-32
6.97237e-32
2.37942e-31
8.05967e-31
2.71027e-30
9.05046e-30
3.00216e-29
9.89637e-29
3.24353e-28
1.05763e-27
3.43372e-27
1.1111e-26
3.58804e-26
1.15825e-25
3.74581e-25
1.2171e-24
3.98796e-24
1.32383e-23
4.47668e-23
1.5514e-22
5.57336e-22
2.06592e-21
7.92701e-21
3.15164e-20
1.29463e-19
5.46789e-19
2.36127e-18
1.03713e-17
4.61245e-17
2.06969e-16
9.34541e-16
4.23821e-15
1.92784e-14
8.78734e-14
4.01106e-13
1.83262e-12
8.37803e-12
3.83118e-11
1.75244e-10
8.12634e-10
3.79703e-09
1.78648e-08
8.50879e-08
4.22989e-07
2.36242e-06
1.55946e-05
0.000101892
0.000403298
0.000726066
0.000886419
0.00113472
0.00173689
0.00277652
0.00410391
0.00547834
0.00688427
0.00793793
0.00877376
0.0094273
0.00993629
0.0103344
0.0106484
0.0108983
0.0110988
0.0112608
0.0113921
0.0114989
0.0115856
0.0116557
0.0117119
0.0117564
0.0117909
0.0118168
0.0118354
0.0118476
0.0118543
0.0118562
0.0118539
0.0118478
0.0118384
0.0118262
0.0118119
0.011796
0.0117784
0.0117592
0.0117385
0.0117164
0.0116932
0.011669
0.0116437
0.0116177
0.0115908
0.0115633
0.0115351
0.0115065
0.0114773
0.0114477
0.0114178
0.0113875
0.011357
0.0113262
0.0112952
0.011264
0.0112327
0.0112013
0.0111698
0.0111381
0.0111065
0.0110748
0.011043
0.0110113
0.0109795
0.0109478
0.010916
0.0108843
0.0108526
0.010821
0.0107894
0.0107578
0.0107263
0.0106949
0.0106635
0.0106322
0.0106009
0.0105697
0.0105386
0.0105076
0.0104767
0.0104459
0.0104152
0.0103845
0.010354
0.0103236
0.0102933
0.0102631
0.0102331
0.0102032
0.0101734
0.0101437
0.0101142
0.0100848
0.0100556
0.0100265
0.00999746
0.00996861
0.0099399
0.00991132
0.00988291
0.00985465
0.00982654
0.00979859
0.00977079
0.00974314
0.00971564
0.00968829
0.00966108
0.00963403
0.00960712
0.00958035
0.00955373
0.00952725
0.00950091
0.00947471
0.00944864
0.00942269
0.00939688
0.00937118
0.0093456
0.00932014
0.00929479
0.00926953
0.00924437
0.0092193
0.00919431
0.0091694
0.00914455
0.00911975
0.009095
0.00907028
0.00904559
0.0090209
0.00899621
0.0089715
0.00894675
0.00892199
0.00889721
0.0088724
0.00884608
0.00881595
0.00879092
0.00876536
0.00873946
0.00871325
0.00868674
0.0086599
0.00863272
0.00860517
0.00857721
0.00854883
0.00852
0.00849069
0.00846089
0.00843057
0.00839971
0.00836829
0.0083363
0.00830373
0.00827056
0.00823679
0.00820242
0.00816745
0.00813188
0.00809571
0.00805897
0.00802166
0.00798382
0.00794546
0.00790663
0.00786735
0.00782767
0.00778764
0.00774731
0.00770674
0.00766598
0.00762511
0.00758418
0.00754328
0.00750247
0.00746183
0.00742145
0.0073814
0.00734175
0.00730259
0.007264
0.00722604
0.0071888
0.00715234
0.00711673
0.00708202
0.00704828
0.00701554
0.00698386
0.00695327
0.0069238
0.00689546
0.00686827
0.00684224
0.00681737
0.00679363
0.00677103
0.00674953
0.0067291
0.00670971
0.00669133
0.0066739
0.0066574
0.00664178
0.00662701
0.00661307
0.00659995
0.00658766
0.00657624
0.00656577
0.00655638
0.00654823
0.00654154
0.00653653
0.00653332
0.00653181
)
;

boundaryField
{
    boundary
    {
        type            empty;
    }
    inlet
    {
        type            fixedValue;
        value           uniform 0;
    }
    outlet
    {
        type            zeroGradient;
    }
}


// ************************************************************************* //
