/*--------------------------------*- C++ -*----------------------------------*\
  =========                 |
  \\      /  F ield         | OpenFOAM: The Open Source CFD Toolbox
   \\    /   O peration     | Website:  https://openfoam.org
    \\  /    A nd           | Version:  7
     \\/     M anipulation  |
\*---------------------------------------------------------------------------*/
FoamFile
{
    version     2.0;
    format      ascii;
    class       surfaceScalarField;
    location    "0.00053";
    object      phi;
}
// * * * * * * * * * * * * * * * * * * * * * * * * * * * * * * * * * * * * * //

dimensions      [1 0 -1 0 0 0 0];

internalField   nonuniform List<scalar> 
499
(
6.93634e-06
6.93649e-06
6.9366e-06
6.9367e-06
6.93678e-06
6.93685e-06
6.93692e-06
6.93699e-06
6.93706e-06
6.93712e-06
6.93719e-06
6.93724e-06
6.93729e-06
6.93732e-06
6.93734e-06
6.93734e-06
6.93732e-06
6.93726e-06
6.93717e-06
6.93703e-06
6.93683e-06
6.93658e-06
6.93625e-06
6.93585e-06
6.93537e-06
6.93479e-06
6.93413e-06
6.93337e-06
6.93251e-06
6.93155e-06
6.93051e-06
6.9294e-06
6.92821e-06
6.92696e-06
6.92567e-06
6.92436e-06
6.92303e-06
6.92172e-06
6.92043e-06
6.91918e-06
6.91799e-06
6.91687e-06
6.91582e-06
6.91487e-06
6.91401e-06
6.91324e-06
6.91257e-06
6.91199e-06
6.91151e-06
6.91111e-06
6.91079e-06
6.91055e-06
6.91037e-06
6.91025e-06
6.91019e-06
6.91017e-06
6.91018e-06
6.91023e-06
6.9103e-06
6.9104e-06
6.91051e-06
6.91064e-06
6.91077e-06
6.91092e-06
6.91107e-06
6.91123e-06
6.91139e-06
6.91156e-06
6.91173e-06
6.9119e-06
6.91207e-06
6.91224e-06
6.91241e-06
6.91258e-06
6.91275e-06
6.91292e-06
6.91309e-06
6.91327e-06
6.91344e-06
6.91361e-06
6.91378e-06
6.91395e-06
6.91413e-06
6.9143e-06
6.91447e-06
6.91464e-06
6.91481e-06
6.91498e-06
6.91515e-06
6.91533e-06
6.9155e-06
6.91567e-06
6.91584e-06
6.91601e-06
6.91618e-06
6.91635e-06
6.91652e-06
6.91669e-06
6.91686e-06
6.91703e-06
6.9172e-06
6.91737e-06
6.91754e-06
6.91771e-06
6.91788e-06
6.91805e-06
6.91822e-06
6.91839e-06
6.91856e-06
6.91872e-06
6.91889e-06
6.91906e-06
6.91923e-06
6.9194e-06
6.91957e-06
6.91973e-06
6.9199e-06
6.92007e-06
6.92024e-06
6.9204e-06
6.92057e-06
6.92074e-06
6.92091e-06
6.92107e-06
6.92124e-06
6.92142e-06
6.92159e-06
6.92175e-06
6.92192e-06
6.92209e-06
6.92225e-06
6.92242e-06
6.92258e-06
6.92274e-06
6.92291e-06
6.92307e-06
6.92324e-06
6.9234e-06
6.92356e-06
6.92373e-06
6.92389e-06
6.92406e-06
6.92422e-06
6.92439e-06
6.92455e-06
6.92471e-06
6.92488e-06
6.92504e-06
6.92521e-06
6.92537e-06
6.92553e-06
6.9257e-06
6.92586e-06
6.92602e-06
6.92619e-06
6.92635e-06
6.92651e-06
6.92667e-06
6.92684e-06
6.927e-06
6.92716e-06
6.92732e-06
6.92748e-06
6.92765e-06
6.92781e-06
6.92797e-06
6.92813e-06
6.92829e-06
6.92845e-06
6.92862e-06
6.92878e-06
6.92894e-06
6.9291e-06
6.92926e-06
6.92942e-06
6.92959e-06
6.92975e-06
6.92991e-06
6.93007e-06
6.93024e-06
6.9304e-06
6.93056e-06
6.93073e-06
6.93089e-06
6.93105e-06
6.93122e-06
6.93138e-06
6.93155e-06
6.93171e-06
6.93188e-06
6.93205e-06
6.93221e-06
6.93238e-06
6.93255e-06
6.93271e-06
6.93288e-06
6.93305e-06
6.93322e-06
6.93339e-06
6.93356e-06
6.93373e-06
6.9339e-06
6.93407e-06
6.93425e-06
6.93442e-06
6.93459e-06
6.93477e-06
6.93494e-06
6.93512e-06
6.9353e-06
6.93548e-06
6.93566e-06
6.93584e-06
6.93602e-06
6.9362e-06
6.93638e-06
6.93656e-06
6.93675e-06
6.93694e-06
6.93712e-06
6.93731e-06
6.9375e-06
6.93769e-06
6.93788e-06
6.93807e-06
6.93827e-06
6.93846e-06
6.93866e-06
6.93886e-06
6.93906e-06
6.93926e-06
6.93946e-06
6.93966e-06
6.93986e-06
6.94007e-06
6.94027e-06
6.94048e-06
6.94069e-06
6.9409e-06
6.94111e-06
6.94132e-06
6.94154e-06
6.94175e-06
6.94197e-06
6.94218e-06
6.9424e-06
6.94262e-06
6.94284e-06
6.94306e-06
6.94328e-06
6.94351e-06
6.94374e-06
6.94397e-06
6.94419e-06
6.94442e-06
6.94465e-06
6.94487e-06
6.9451e-06
6.94533e-06
6.94555e-06
6.94578e-06
6.94601e-06
6.94624e-06
6.94648e-06
6.94671e-06
6.94694e-06
6.94718e-06
6.94741e-06
6.94765e-06
6.94791e-06
6.94823e-06
6.94873e-06
6.94976e-06
6.95237e-06
6.95938e-06
6.9775e-06
7.01631e-06
7.0723e-06
7.12299e-06
7.15732e-06
7.17933e-06
7.19424e-06
7.20481e-06
7.21232e-06
7.21766e-06
7.22146e-06
7.22425e-06
7.22636e-06
7.22803e-06
7.22938e-06
7.23051e-06
7.23146e-06
7.23229e-06
7.23301e-06
7.23364e-06
7.23421e-06
7.23473e-06
7.23519e-06
7.23562e-06
7.23601e-06
7.23638e-06
7.23672e-06
7.23703e-06
7.23733e-06
7.23761e-06
7.23787e-06
7.23812e-06
7.23836e-06
7.23859e-06
7.23881e-06
7.23902e-06
7.23922e-06
7.2394e-06
7.23958e-06
7.23975e-06
7.23992e-06
7.24008e-06
7.24024e-06
7.24039e-06
7.24054e-06
7.24068e-06
7.24082e-06
7.24095e-06
7.24108e-06
7.24121e-06
7.24133e-06
7.24145e-06
7.24156e-06
7.24167e-06
7.24178e-06
7.24188e-06
7.24198e-06
7.24208e-06
7.24217e-06
7.24225e-06
7.24234e-06
7.24242e-06
7.2425e-06
7.24257e-06
7.24265e-06
7.24272e-06
7.24279e-06
7.24285e-06
7.24292e-06
7.24298e-06
7.24305e-06
7.24311e-06
7.24317e-06
7.24323e-06
7.24329e-06
7.24335e-06
7.24342e-06
7.24348e-06
7.24354e-06
7.2436e-06
7.24366e-06
7.24372e-06
7.24378e-06
7.24384e-06
7.2439e-06
7.24396e-06
7.24402e-06
7.24409e-06
7.24415e-06
7.24421e-06
7.24427e-06
7.24432e-06
7.24438e-06
7.24444e-06
7.2445e-06
7.24455e-06
7.2446e-06
7.24466e-06
7.24471e-06
7.24476e-06
7.2448e-06
7.24485e-06
7.24489e-06
7.24493e-06
7.24497e-06
7.24501e-06
7.24505e-06
7.24508e-06
7.24511e-06
7.24514e-06
7.24517e-06
7.2452e-06
7.24522e-06
7.24524e-06
7.24525e-06
7.24527e-06
7.24528e-06
7.24528e-06
7.24529e-06
7.24529e-06
7.24529e-06
7.24529e-06
7.24528e-06
7.24527e-06
7.24526e-06
7.24524e-06
7.24523e-06
7.24521e-06
7.24519e-06
7.24517e-06
7.24514e-06
7.24512e-06
7.2451e-06
7.24509e-06
7.24507e-06
7.24506e-06
7.24505e-06
7.24506e-06
7.24507e-06
7.24509e-06
7.24514e-06
7.24508e-06
7.24549e-06
7.24397e-06
7.24421e-06
7.24434e-06
7.24444e-06
7.24455e-06
7.24467e-06
7.2448e-06
7.24495e-06
7.24512e-06
7.2453e-06
7.2455e-06
7.24572e-06
7.24595e-06
7.24621e-06
7.24649e-06
7.24679e-06
7.24711e-06
7.24745e-06
7.24782e-06
7.24819e-06
7.24859e-06
7.24899e-06
7.2494e-06
7.24982e-06
7.25024e-06
7.25065e-06
7.25104e-06
7.25142e-06
7.25177e-06
7.25208e-06
7.25235e-06
7.25255e-06
7.25269e-06
7.25275e-06
7.25272e-06
7.25258e-06
7.25232e-06
7.25194e-06
7.2514e-06
7.25071e-06
7.24984e-06
7.24878e-06
7.24752e-06
7.24605e-06
7.24435e-06
7.24242e-06
7.24024e-06
7.2378e-06
7.2351e-06
7.23213e-06
7.22888e-06
7.22536e-06
7.22157e-06
7.2175e-06
7.21316e-06
7.20856e-06
7.20371e-06
7.19861e-06
7.19329e-06
7.18775e-06
7.18202e-06
7.17611e-06
7.17005e-06
7.16386e-06
7.15756e-06
7.15118e-06
7.14475e-06
7.1383e-06
7.13184e-06
7.12543e-06
7.11907e-06
7.1128e-06
7.10665e-06
7.10064e-06
7.09479e-06
7.08914e-06
7.08369e-06
7.07847e-06
7.07348e-06
7.06873e-06
7.06417e-06
)
;

boundaryField
{
    boundary
    {
        type            empty;
        value           nonuniform 0();
    }
    inlet
    {
        type            calculated;
        value           uniform -6.93614e-06;
    }
    outlet
    {
        type            calculated;
        value           uniform 7.05976e-06;
    }
}


// ************************************************************************* //
