/*--------------------------------*- C++ -*----------------------------------*\
  =========                 |
  \\      /  F ield         | OpenFOAM: The Open Source CFD Toolbox
   \\    /   O peration     | Website:  https://openfoam.org
    \\  /    A nd           | Version:  7
     \\/     M anipulation  |
\*---------------------------------------------------------------------------*/
FoamFile
{
    version     2.0;
    format      ascii;
    class       volScalarField;
    location    "0.00053";
    object      Qdot;
}
// * * * * * * * * * * * * * * * * * * * * * * * * * * * * * * * * * * * * * //

dimensions      [1 -1 -3 0 0 0 0];

internalField   nonuniform List<scalar> 
500
(
-2.45437e-27
-1.86552e-27
-1.74007e-27
-1.7147e-27
-1.71102e-27
-1.71207e-27
-1.71416e-27
-1.71651e-27
-1.71895e-27
-1.72149e-27
-1.72415e-27
-1.72698e-27
-1.73006e-27
-1.73347e-27
-1.7373e-27
-1.74167e-27
-1.74672e-27
-1.75259e-27
-1.75946e-27
-1.76752e-27
-1.77696e-27
-1.78799e-27
-1.80081e-27
-1.81563e-27
-1.83264e-27
-1.85202e-27
-1.8739e-27
-1.89838e-27
-1.92552e-27
-1.95533e-27
-1.98772e-27
-2.02257e-27
-2.05966e-27
-2.09872e-27
-2.1394e-27
-2.18128e-27
-2.22392e-27
-2.26682e-27
-2.30947e-27
-2.35135e-27
-2.392e-27
-2.43095e-27
-2.46783e-27
-2.5023e-27
-2.53414e-27
-2.56317e-27
-2.58932e-27
-2.6126e-27
-2.63307e-27
-2.65085e-27
-2.66612e-27
-2.67908e-27
-2.68995e-27
-2.69898e-27
-2.70639e-27
-2.7124e-27
-2.71724e-27
-2.72108e-27
-2.7241e-27
-2.72645e-27
-2.72827e-27
-2.72965e-27
-2.7307e-27
-2.73148e-27
-2.73207e-27
-2.7325e-27
-2.73281e-27
-2.73304e-27
-2.7332e-27
-2.73332e-27
-2.7334e-27
-2.73346e-27
-2.73351e-27
-2.73354e-27
-2.73356e-27
-2.73358e-27
-2.7336e-27
-2.73362e-27
-2.73363e-27
-2.73364e-27
-2.73366e-27
-2.73367e-27
-2.73369e-27
-2.7337e-27
-2.73372e-27
-2.73374e-27
-2.73376e-27
-2.73378e-27
-2.7338e-27
-2.73383e-27
-2.73385e-27
-2.73388e-27
-2.73391e-27
-2.73394e-27
-2.73397e-27
-2.734e-27
-2.73404e-27
-2.73407e-27
-2.73411e-27
-2.73415e-27
-2.7342e-27
-2.73424e-27
-2.73429e-27
-2.73434e-27
-2.73439e-27
-2.73444e-27
-2.7345e-27
-2.73456e-27
-2.73462e-27
-2.73468e-27
-2.73475e-27
-2.73482e-27
-2.73489e-27
-2.73496e-27
-2.73504e-27
-2.73512e-27
-2.7352e-27
-2.73529e-27
-2.73537e-27
-2.73546e-27
-2.73556e-27
-2.73565e-27
-2.73573e-27
-2.73581e-27
-2.73588e-27
-2.73596e-27
-2.73594e-27
-2.73599e-27
-2.7361e-27
-2.73625e-27
-2.73642e-27
-2.7366e-27
-2.73678e-27
-2.73695e-27
-2.73712e-27
-2.73728e-27
-2.73744e-27
-2.73759e-27
-2.73773e-27
-2.73787e-27
-2.73802e-27
-2.73816e-27
-2.73831e-27
-2.73846e-27
-2.73861e-27
-2.73876e-27
-2.73891e-27
-2.73906e-27
-2.73921e-27
-2.73937e-27
-2.73953e-27
-2.73969e-27
-2.73985e-27
-2.74001e-27
-2.74018e-27
-2.74035e-27
-2.74052e-27
-2.74069e-27
-2.74087e-27
-2.74105e-27
-2.74123e-27
-2.74141e-27
-2.7416e-27
-2.74178e-27
-2.74197e-27
-2.74215e-27
-2.74234e-27
-2.74252e-27
-2.74269e-27
-2.74287e-27
-2.74304e-27
-2.7432e-27
-2.74336e-27
-2.74351e-27
-2.74366e-27
-2.7438e-27
-2.74393e-27
-2.74405e-27
-2.74416e-27
-2.74426e-27
-2.74436e-27
-2.74444e-27
-2.74451e-27
-2.74457e-27
-2.74462e-27
-2.74465e-27
-2.74468e-27
-2.74469e-27
-2.74468e-27
-2.74466e-27
-2.74462e-27
-2.74457e-27
-2.74449e-27
-2.7444e-27
-2.74429e-27
-2.74416e-27
-2.74401e-27
-2.74384e-27
-2.74365e-27
-2.74343e-27
-2.74318e-27
-2.74292e-27
-2.74262e-27
-2.7423e-27
-2.74195e-27
-2.74157e-27
-2.74116e-27
-2.74072e-27
-2.74025e-27
-2.73974e-27
-2.73919e-27
-2.73856e-27
-2.7377e-27
-2.73607e-27
-2.73148e-27
-2.71529e-27
-2.65397e-27
-2.41813e-27
-1.51276e-27
1.9395e-27
1.49976e-26
6.3976e-26
2.46135e-25
9.17889e-25
3.37429e-24
1.22814e-23
4.43106e-23
1.58533e-22
5.62543e-22
1.97997e-21
6.91307e-21
2.39464e-20
8.23039e-20
2.80718e-19
9.50298e-19
3.19356e-18
1.06565e-17
3.53186e-17
1.16302e-16
3.80666e-16
1.23906e-15
4.01317e-15
1.29436e-14
4.16082e-14
1.33461e-13
4.27768e-13
1.37266e-12
4.42077e-12
1.43361e-11
4.7009e-11
1.56661e-10
5.36568e-10
1.8843e-09
6.82665e-09
2.56441e-08
9.99954e-08
4.03919e-07
1.68284e-06
7.19206e-06
3.13563e-05
0.0001388
0.000621395
0.00280603
0.0127595
0.0583845
0.268904
1.24828
5.85559
27.9117
146.548
834.377
6084.83
45627.3
396259
3.70228e+06
3.52777e+07
3.09818e+08
1.98736e+09
6.83409e+09
1.19648e+10
1.37342e+10
1.39224e+10
1.39435e+10
1.35828e+10
1.24238e+10
1.05863e+10
8.5899e+09
6.97886e+09
5.78063e+09
4.86496e+09
4.16621e+09
3.62475e+09
3.1969e+09
2.85202e+09
2.5688e+09
2.33235e+09
2.13207e+09
1.96034e+09
1.81152e+09
1.68136e+09
1.56664e+09
1.4648e+09
1.37386e+09
1.2922e+09
1.21852e+09
1.15175e+09
1.091e+09
1.03553e+09
9.84707e+08
9.38014e+08
8.95017e+08
8.55399e+08
8.19776e+08
7.87191e+08
7.56566e+08
7.27843e+08
7.00833e+08
6.75398e+08
6.51397e+08
6.28726e+08
6.07282e+08
5.86975e+08
5.6772e+08
5.49442e+08
5.32075e+08
5.15556e+08
4.99827e+08
4.84837e+08
4.70538e+08
4.56887e+08
4.43844e+08
4.3137e+08
4.19433e+08
4.08e+08
3.97042e+08
3.86532e+08
3.76445e+08
3.66758e+08
3.57448e+08
3.48496e+08
3.39882e+08
3.31589e+08
3.236e+08
3.15901e+08
3.08476e+08
3.01312e+08
2.94395e+08
2.87716e+08
2.81262e+08
2.75023e+08
2.68988e+08
2.6315e+08
2.57497e+08
2.52024e+08
2.46721e+08
2.41582e+08
2.36599e+08
2.31767e+08
2.27078e+08
2.22527e+08
2.18109e+08
2.13818e+08
2.09648e+08
2.05597e+08
2.01659e+08
1.9783e+08
1.94105e+08
1.90482e+08
1.86955e+08
1.83523e+08
1.80182e+08
1.76929e+08
1.73761e+08
1.70677e+08
1.67677e+08
1.64765e+08
1.61912e+08
1.59107e+08
1.56375e+08
1.53712e+08
1.51114e+08
1.48578e+08
1.46103e+08
1.43685e+08
1.41324e+08
1.39018e+08
1.36764e+08
1.34561e+08
1.32408e+08
1.30303e+08
1.28245e+08
1.26232e+08
1.24263e+08
1.22337e+08
1.20452e+08
1.18608e+08
1.16802e+08
1.15035e+08
1.13305e+08
1.1161e+08
1.09951e+08
1.08326e+08
1.06734e+08
1.05175e+08
1.03647e+08
1.02149e+08
1.00682e+08
9.92438e+07
9.7834e+07
9.64521e+07
9.50975e+07
9.37695e+07
9.24683e+07
9.11944e+07
8.99521e+07
8.87527e+07
8.76584e+07
8.66752e+07
8.47344e+07
8.36065e+07
8.25667e+07
8.14997e+07
8.04329e+07
7.93738e+07
7.83263e+07
7.7292e+07
7.62714e+07
7.52652e+07
7.4272e+07
7.32922e+07
7.23253e+07
7.13706e+07
7.04277e+07
6.94959e+07
6.85746e+07
6.76634e+07
6.67615e+07
6.58684e+07
6.49834e+07
6.41059e+07
6.32353e+07
6.23715e+07
6.15111e+07
6.0657e+07
5.9807e+07
5.89605e+07
5.81169e+07
5.72755e+07
5.64357e+07
5.5597e+07
5.47588e+07
5.39205e+07
5.30817e+07
5.22419e+07
5.14007e+07
5.05571e+07
4.9712e+07
4.88643e+07
4.80139e+07
4.71606e+07
4.63044e+07
4.54451e+07
4.45828e+07
4.37175e+07
4.28494e+07
4.19785e+07
4.11052e+07
4.02296e+07
3.93521e+07
3.8473e+07
3.75928e+07
3.67118e+07
3.58305e+07
3.49494e+07
3.40689e+07
3.31897e+07
3.23122e+07
3.1437e+07
3.05646e+07
2.96959e+07
2.88311e+07
2.7971e+07
2.71162e+07
2.62673e+07
2.54251e+07
2.459e+07
2.37629e+07
2.29444e+07
2.21352e+07
2.13359e+07
2.0547e+07
1.97696e+07
1.90039e+07
1.82508e+07
1.751e+07
1.67815e+07
1.60666e+07
1.53693e+07
1.47119e+07
1.4205e+07
)
;

boundaryField
{
    boundary
    {
        type            empty;
    }
    inlet
    {
        type            calculated;
        value           uniform 0;
    }
    outlet
    {
        type            calculated;
        value           uniform 0;
    }
}


// ************************************************************************* //
