/*--------------------------------*- C++ -*----------------------------------*\
  =========                 |
  \\      /  F ield         | OpenFOAM: The Open Source CFD Toolbox
   \\    /   O peration     | Website:  https://openfoam.org
    \\  /    A nd           | Version:  7
     \\/     M anipulation  |
\*---------------------------------------------------------------------------*/
FoamFile
{
    version     2.0;
    format      ascii;
    class       volVectorField;
    location    "0.00053";
    object      U;
}
// * * * * * * * * * * * * * * * * * * * * * * * * * * * * * * * * * * * * * //

dimensions      [0 1 -1 0 0 0 0];

internalField   nonuniform List<vector> 
500
(
(2.34896 0 0)
(2.34905 0 0)
(2.34912 0 0)
(2.34918 0 0)
(2.34924 0 0)
(2.3493 0 0)
(2.34936 0 0)
(2.34942 0 0)
(2.34948 0 0)
(2.34954 0 0)
(2.3496 0 0)
(2.34967 0 0)
(2.34973 0 0)
(2.3498 0 0)
(2.34986 0 0)
(2.34993 0 0)
(2.35 0 0)
(2.35008 0 0)
(2.35015 0 0)
(2.35023 0 0)
(2.35032 0 0)
(2.3504 0 0)
(2.35049 0 0)
(2.35058 0 0)
(2.35067 0 0)
(2.35077 0 0)
(2.35086 0 0)
(2.35096 0 0)
(2.35105 0 0)
(2.35114 0 0)
(2.35123 0 0)
(2.35132 0 0)
(2.3514 0 0)
(2.35147 0 0)
(2.35154 0 0)
(2.3516 0 0)
(2.35166 0 0)
(2.35171 0 0)
(2.35175 0 0)
(2.35179 0 0)
(2.35183 0 0)
(2.35186 0 0)
(2.35188 0 0)
(2.35191 0 0)
(2.35193 0 0)
(2.35196 0 0)
(2.35198 0 0)
(2.35201 0 0)
(2.35203 0 0)
(2.35206 0 0)
(2.35209 0 0)
(2.35213 0 0)
(2.35217 0 0)
(2.35221 0 0)
(2.35225 0 0)
(2.3523 0 0)
(2.35234 0 0)
(2.35239 0 0)
(2.35244 0 0)
(2.3525 0 0)
(2.35255 0 0)
(2.35261 0 0)
(2.35266 0 0)
(2.35272 0 0)
(2.35278 0 0)
(2.35283 0 0)
(2.35289 0 0)
(2.35295 0 0)
(2.35301 0 0)
(2.35307 0 0)
(2.35313 0 0)
(2.35318 0 0)
(2.35324 0 0)
(2.3533 0 0)
(2.35336 0 0)
(2.35342 0 0)
(2.35348 0 0)
(2.35354 0 0)
(2.3536 0 0)
(2.35366 0 0)
(2.35371 0 0)
(2.35377 0 0)
(2.35383 0 0)
(2.35389 0 0)
(2.35395 0 0)
(2.35401 0 0)
(2.35407 0 0)
(2.35413 0 0)
(2.35419 0 0)
(2.35424 0 0)
(2.3543 0 0)
(2.35436 0 0)
(2.35442 0 0)
(2.35448 0 0)
(2.35454 0 0)
(2.3546 0 0)
(2.35465 0 0)
(2.35471 0 0)
(2.35477 0 0)
(2.35483 0 0)
(2.35489 0 0)
(2.35495 0 0)
(2.35501 0 0)
(2.35506 0 0)
(2.35512 0 0)
(2.35518 0 0)
(2.35524 0 0)
(2.3553 0 0)
(2.35536 0 0)
(2.35542 0 0)
(2.35547 0 0)
(2.35553 0 0)
(2.35559 0 0)
(2.35565 0 0)
(2.35571 0 0)
(2.35576 0 0)
(2.35582 0 0)
(2.35588 0 0)
(2.35594 0 0)
(2.356 0 0)
(2.35606 0 0)
(2.35611 0 0)
(2.35617 0 0)
(2.35623 0 0)
(2.35629 0 0)
(2.35635 0 0)
(2.35641 0 0)
(2.35647 0 0)
(2.35653 0 0)
(2.35658 0 0)
(2.35664 0 0)
(2.3567 0 0)
(2.35676 0 0)
(2.35681 0 0)
(2.35687 0 0)
(2.35693 0 0)
(2.35699 0 0)
(2.35705 0 0)
(2.3571 0 0)
(2.35716 0 0)
(2.35722 0 0)
(2.35728 0 0)
(2.35733 0 0)
(2.35739 0 0)
(2.35745 0 0)
(2.35751 0 0)
(2.35757 0 0)
(2.35762 0 0)
(2.35768 0 0)
(2.35774 0 0)
(2.3578 0 0)
(2.35785 0 0)
(2.35791 0 0)
(2.35797 0 0)
(2.35803 0 0)
(2.35808 0 0)
(2.35814 0 0)
(2.3582 0 0)
(2.35826 0 0)
(2.35831 0 0)
(2.35837 0 0)
(2.35843 0 0)
(2.35849 0 0)
(2.35854 0 0)
(2.3586 0 0)
(2.35866 0 0)
(2.35871 0 0)
(2.35877 0 0)
(2.35883 0 0)
(2.35889 0 0)
(2.35894 0 0)
(2.359 0 0)
(2.35906 0 0)
(2.35911 0 0)
(2.35917 0 0)
(2.35923 0 0)
(2.35929 0 0)
(2.35934 0 0)
(2.3594 0 0)
(2.35946 0 0)
(2.35951 0 0)
(2.35957 0 0)
(2.35963 0 0)
(2.35968 0 0)
(2.35974 0 0)
(2.3598 0 0)
(2.35985 0 0)
(2.35991 0 0)
(2.35997 0 0)
(2.36002 0 0)
(2.36008 0 0)
(2.36014 0 0)
(2.36019 0 0)
(2.36025 0 0)
(2.36031 0 0)
(2.36036 0 0)
(2.36042 0 0)
(2.36048 0 0)
(2.36053 0 0)
(2.36059 0 0)
(2.36064 0 0)
(2.3607 0 0)
(2.36076 0 0)
(2.36081 0 0)
(2.36087 0 0)
(2.36093 0 0)
(2.36098 0 0)
(2.36104 0 0)
(2.36109 0 0)
(2.36115 0 0)
(2.36121 0 0)
(2.36126 0 0)
(2.36132 0 0)
(2.36137 0 0)
(2.36143 0 0)
(2.36149 0 0)
(2.36154 0 0)
(2.3616 0 0)
(2.36165 0 0)
(2.36171 0 0)
(2.36176 0 0)
(2.36182 0 0)
(2.36187 0 0)
(2.36193 0 0)
(2.36199 0 0)
(2.36204 0 0)
(2.3621 0 0)
(2.36215 0 0)
(2.36221 0 0)
(2.36226 0 0)
(2.36232 0 0)
(2.36237 0 0)
(2.36243 0 0)
(2.36248 0 0)
(2.36254 0 0)
(2.36259 0 0)
(2.36265 0 0)
(2.3627 0 0)
(2.36276 0 0)
(2.36281 0 0)
(2.36287 0 0)
(2.36292 0 0)
(2.36298 0 0)
(2.36304 0 0)
(2.36309 0 0)
(2.36314 0 0)
(2.3632 0 0)
(2.36325 0 0)
(2.36331 0 0)
(2.36336 0 0)
(2.36342 0 0)
(2.36347 0 0)
(2.36353 0 0)
(2.36358 0 0)
(2.36364 0 0)
(2.36369 0 0)
(2.36375 0 0)
(2.3638 0 0)
(2.36386 0 0)
(2.36391 0 0)
(2.36397 0 0)
(2.36402 0 0)
(2.36408 0 0)
(2.36413 0 0)
(2.36418 0 0)
(2.36424 0 0)
(2.36429 0 0)
(2.36435 0 0)
(2.36443 0 0)
(2.36458 0 0)
(2.36501 0 0)
(2.36628 0 0)
(2.37018 0 0)
(2.38151 0 0)
(2.41183 0 0)
(2.48636 0 0)
(2.6601 0 0)
(3.03604 0 0)
(3.79237 0 0)
(4.90245 0 0)
(6.14329 0 0)
(7.32311 0 0)
(8.37211 0 0)
(9.2755 0 0)
(10.0306 0 0)
(10.6566 0 0)
(11.1766 0 0)
(11.5969 0 0)
(11.9301 0 0)
(12.2031 0 0)
(12.4371 0 0)
(12.6419 0 0)
(12.8231 0 0)
(12.9847 0 0)
(13.1302 0 0)
(13.2623 0 0)
(13.3829 0 0)
(13.4938 0 0)
(13.5962 0 0)
(13.6912 0 0)
(13.7797 0 0)
(13.8623 0 0)
(13.9397 0 0)
(14.0125 0 0)
(14.0811 0 0)
(14.1458 0 0)
(14.2071 0 0)
(14.2652 0 0)
(14.3204 0 0)
(14.3729 0 0)
(14.4228 0 0)
(14.4704 0 0)
(14.5146 0 0)
(14.5559 0 0)
(14.596 0 0)
(14.6346 0 0)
(14.672 0 0)
(14.7081 0 0)
(14.743 0 0)
(14.7768 0 0)
(14.8096 0 0)
(14.8413 0 0)
(14.8722 0 0)
(14.9021 0 0)
(14.9312 0 0)
(14.9594 0 0)
(14.9869 0 0)
(15.0136 0 0)
(15.0397 0 0)
(15.0651 0 0)
(15.0898 0 0)
(15.1139 0 0)
(15.1374 0 0)
(15.1604 0 0)
(15.1828 0 0)
(15.2046 0 0)
(15.226 0 0)
(15.2469 0 0)
(15.2674 0 0)
(15.2874 0 0)
(15.3069 0 0)
(15.3261 0 0)
(15.3448 0 0)
(15.3632 0 0)
(15.3812 0 0)
(15.3988 0 0)
(15.4161 0 0)
(15.433 0 0)
(15.4496 0 0)
(15.4659 0 0)
(15.482 0 0)
(15.4977 0 0)
(15.5131 0 0)
(15.5282 0 0)
(15.5431 0 0)
(15.5577 0 0)
(15.5721 0 0)
(15.5862 0 0)
(15.6001 0 0)
(15.6138 0 0)
(15.6272 0 0)
(15.6404 0 0)
(15.6534 0 0)
(15.6662 0 0)
(15.6788 0 0)
(15.6912 0 0)
(15.7034 0 0)
(15.7154 0 0)
(15.7273 0 0)
(15.7389 0 0)
(15.7504 0 0)
(15.7618 0 0)
(15.7729 0 0)
(15.7839 0 0)
(15.7948 0 0)
(15.8054 0 0)
(15.8159 0 0)
(15.8264 0 0)
(15.8366 0 0)
(15.8467 0 0)
(15.8567 0 0)
(15.8666 0 0)
(15.8763 0 0)
(15.8859 0 0)
(15.8954 0 0)
(15.9048 0 0)
(15.914 0 0)
(15.9231 0 0)
(15.9321 0 0)
(15.941 0 0)
(15.9498 0 0)
(15.9585 0 0)
(15.9671 0 0)
(15.9756 0 0)
(15.984 0 0)
(15.9923 0 0)
(16.0004 0 0)
(16.0085 0 0)
(16.0165 0 0)
(16.0244 0 0)
(16.0323 0 0)
(16.04 0 0)
(16.0477 0 0)
(16.0552 0 0)
(16.0627 0 0)
(16.0701 0 0)
(16.0774 0 0)
(16.0846 0 0)
(16.0918 0 0)
(16.0989 0 0)
(16.1059 0 0)
(16.1128 0 0)
(16.1196 0 0)
(16.1264 0 0)
(16.1331 0 0)
(16.1397 0 0)
(16.1463 0 0)
(16.1533 0 0)
(16.1592 0 0)
(16.1649 0 0)
(16.1718 0 0)
(16.1782 0 0)
(16.1844 0 0)
(16.1905 0 0)
(16.1965 0 0)
(16.2025 0 0)
(16.2085 0 0)
(16.2143 0 0)
(16.2201 0 0)
(16.2259 0 0)
(16.2316 0 0)
(16.2372 0 0)
(16.2428 0 0)
(16.2484 0 0)
(16.2539 0 0)
(16.2593 0 0)
(16.2647 0 0)
(16.27 0 0)
(16.2753 0 0)
(16.2806 0 0)
(16.2858 0 0)
(16.291 0 0)
(16.2962 0 0)
(16.3013 0 0)
(16.3064 0 0)
(16.3115 0 0)
(16.3165 0 0)
(16.3215 0 0)
(16.3265 0 0)
(16.3315 0 0)
(16.3365 0 0)
(16.3414 0 0)
(16.3463 0 0)
(16.3512 0 0)
(16.3561 0 0)
(16.361 0 0)
(16.3658 0 0)
(16.3706 0 0)
(16.3754 0 0)
(16.3802 0 0)
(16.3849 0 0)
(16.3896 0 0)
(16.3943 0 0)
(16.3989 0 0)
(16.4035 0 0)
(16.4081 0 0)
(16.4125 0 0)
(16.4169 0 0)
(16.4213 0 0)
(16.4255 0 0)
(16.4297 0 0)
(16.4338 0 0)
(16.4378 0 0)
(16.4417 0 0)
(16.4454 0 0)
(16.4491 0 0)
(16.4526 0 0)
(16.456 0 0)
(16.4592 0 0)
(16.4623 0 0)
(16.4652 0 0)
(16.468 0 0)
(16.4707 0 0)
(16.4732 0 0)
(16.4755 0 0)
(16.4777 0 0)
(16.4797 0 0)
(16.4816 0 0)
(16.4834 0 0)
(16.485 0 0)
(16.4866 0 0)
(16.488 0 0)
(16.4894 0 0)
(16.4907 0 0)
(16.492 0 0)
(16.4933 0 0)
(16.4944 0 0)
(16.495 0 0)
(16.4937 0 0)
(16.4876 0 0)
)
;

boundaryField
{
    boundary
    {
        type            empty;
    }
    inlet
    {
        type            fixedValue;
        value           uniform (2.34893 0 0);
    }
    outlet
    {
        type            zeroGradient;
    }
}


// ************************************************************************* //
