/*--------------------------------*- C++ -*----------------------------------*\
  =========                 |
  \\      /  F ield         | OpenFOAM: The Open Source CFD Toolbox
   \\    /   O peration     | Website:  https://openfoam.org
    \\  /    A nd           | Version:  7
     \\/     M anipulation  |
\*---------------------------------------------------------------------------*/
FoamFile
{
    version     2.0;
    format      ascii;
    class       volScalarField;
    location    "0.00065";
    object      O;
}
// * * * * * * * * * * * * * * * * * * * * * * * * * * * * * * * * * * * * * //

dimensions      [0 0 0 0 0 0 0];

internalField   nonuniform List<scalar> 
125
(
1.57117e-47
3.74235e-47
5.92053e-47
8.09642e-47
1.027e-46
1.24432e-46
1.46185e-46
1.67978e-46
1.89828e-46
2.11747e-46
2.33741e-46
2.55816e-46
2.77973e-46
3.00214e-46
3.22544e-46
3.4497e-46
3.67504e-46
3.90164e-46
4.12977e-46
4.35974e-46
4.592e-46
4.82704e-46
5.06549e-46
5.30803e-46
5.55548e-46
5.80869e-46
6.06863e-46
6.33629e-46
6.61268e-46
6.89881e-46
7.19566e-46
7.5041e-46
7.82486e-46
8.15851e-46
8.50536e-46
8.86545e-46
9.2385e-46
9.62388e-46
1.00206e-45
1.04272e-45
1.08419e-45
1.12627e-45
1.1687e-45
1.21122e-45
1.25353e-45
1.29534e-45
1.33635e-45
1.37624e-45
1.41476e-45
1.45163e-45
1.48663e-45
1.51957e-45
1.55031e-45
1.57873e-45
1.60479e-45
1.62847e-45
1.64978e-45
1.6688e-45
1.68562e-45
1.70036e-45
1.71316e-45
1.72418e-45
1.73358e-45
1.74153e-45
1.7482e-45
1.75374e-45
1.7583e-45
1.76202e-45
1.76504e-45
1.76746e-45
1.76939e-45
1.77092e-45
1.77211e-45
1.77304e-45
1.77376e-45
1.7743e-45
1.77472e-45
1.77504e-45
1.77527e-45
1.77545e-45
1.77558e-45
1.77568e-45
1.77576e-45
1.77581e-45
1.77586e-45
1.77589e-45
1.77592e-45
1.77594e-45
1.77596e-45
1.77598e-45
1.776e-45
1.77602e-45
1.77604e-45
1.77605e-45
1.77607e-45
1.77609e-45
1.77612e-45
1.77614e-45
1.77616e-45
1.77618e-45
1.77621e-45
1.77624e-45
1.77627e-45
1.7763e-45
1.77633e-45
1.77636e-45
1.7764e-45
1.77643e-45
1.77647e-45
1.77651e-45
1.77655e-45
1.77659e-45
1.77664e-45
1.77669e-45
1.77674e-45
1.77679e-45
1.77684e-45
1.77689e-45
1.77695e-45
1.777e-45
1.77703e-45
1.77702e-45
1.77686e-45
1.77628e-45
1.77445e-45
)
;

boundaryField
{
    boundary
    {
        type            empty;
    }
    inlet
    {
        type            fixedValue;
        value           uniform 0;
    }
    outlet
    {
        type            zeroGradient;
    }
    procBoundary2to3
    {
        type            processor;
        value           uniform 1.77179e-45;
    }
}


// ************************************************************************* //
