/*--------------------------------*- C++ -*----------------------------------*\
  =========                 |
  \\      /  F ield         | OpenFOAM: The Open Source CFD Toolbox
   \\    /   O peration     | Website:  https://openfoam.org
    \\  /    A nd           | Version:  7
     \\/     M anipulation  |
\*---------------------------------------------------------------------------*/
FoamFile
{
    version     2.0;
    format      ascii;
    class       volScalarField;
    location    "0.00065";
    object      OH;
}
// * * * * * * * * * * * * * * * * * * * * * * * * * * * * * * * * * * * * * //

dimensions      [0 0 0 0 0 0 0];

internalField   nonuniform List<scalar> 
125
(
9.35187e-48
1.81864e-47
2.41892e-47
2.82204e-47
3.09176e-47
3.27221e-47
3.39334e-47
3.47529e-47
3.53156e-47
3.57113e-47
3.59997e-47
3.62197e-47
3.63969e-47
3.65479e-47
3.66835e-47
3.68107e-47
3.69343e-47
3.70577e-47
3.71839e-47
3.73152e-47
3.74542e-47
3.76034e-47
3.77657e-47
3.79442e-47
3.81421e-47
3.83634e-47
3.86118e-47
3.88916e-47
3.92072e-47
3.9563e-47
3.99633e-47
4.04125e-47
4.09145e-47
4.14728e-47
4.20902e-47
4.27691e-47
4.35105e-47
4.43147e-47
4.51805e-47
4.61057e-47
4.70865e-47
4.81177e-47
4.91927e-47
5.03037e-47
5.14418e-47
5.25969e-47
5.37585e-47
5.49155e-47
5.60569e-47
5.71718e-47
5.82502e-47
5.9283e-47
6.0262e-47
6.11809e-47
6.20346e-47
6.28199e-47
6.3535e-47
6.41797e-47
6.47552e-47
6.5264e-47
6.57095e-47
6.60958e-47
6.64277e-47
6.67101e-47
6.69483e-47
6.71474e-47
6.73123e-47
6.74477e-47
6.7558e-47
6.7647e-47
6.77183e-47
6.77749e-47
6.78196e-47
6.78545e-47
6.78816e-47
6.79025e-47
6.79186e-47
6.79308e-47
6.79401e-47
6.79471e-47
6.79525e-47
6.79565e-47
6.79596e-47
6.7962e-47
6.79639e-47
6.79655e-47
6.79668e-47
6.79679e-47
6.79689e-47
6.79699e-47
6.79708e-47
6.79717e-47
6.79726e-47
6.79735e-47
6.79744e-47
6.79754e-47
6.79764e-47
6.79775e-47
6.79786e-47
6.79797e-47
6.79809e-47
6.79822e-47
6.79835e-47
6.79849e-47
6.79863e-47
6.79878e-47
6.79893e-47
6.79909e-47
6.79926e-47
6.79943e-47
6.79961e-47
6.7998e-47
6.8e-47
6.8002e-47
6.80041e-47
6.80063e-47
6.80085e-47
6.80108e-47
6.80133e-47
6.80158e-47
6.80184e-47
6.80214e-47
6.80249e-47
6.803e-47
6.80392e-47
)
;

boundaryField
{
    boundary
    {
        type            empty;
    }
    inlet
    {
        type            fixedValue;
        value           uniform 0;
    }
    outlet
    {
        type            zeroGradient;
    }
    procBoundary2to3
    {
        type            processor;
        value           uniform 6.80507e-47;
    }
}


// ************************************************************************* //
