/*--------------------------------*- C++ -*----------------------------------*\
  =========                 |
  \\      /  F ield         | OpenFOAM: The Open Source CFD Toolbox
   \\    /   O peration     | Website:  https://openfoam.org
    \\  /    A nd           | Version:  7
     \\/     M anipulation  |
\*---------------------------------------------------------------------------*/
FoamFile
{
    version     2.0;
    format      ascii;
    class       volScalarField;
    location    "0.00065";
    object      p;
}
// * * * * * * * * * * * * * * * * * * * * * * * * * * * * * * * * * * * * * //

dimensions      [1 -1 -2 0 0 0 0];

internalField   nonuniform List<scalar> 
125
(
103133
103133
103133
103133
103133
103133
103133
103133
103133
103133
103133
103133
103133
103133
103133
103133
103133
103133
103133
103133
103133
103133
103133
103133
103133
103133
103133
103133
103133
103133
103133
103133
103133
103133
103133
103133
103133
103133
103133
103133
103133
103133
103133
103133
103133
103133
103133
103133
103133
103133
103133
103133
103133
103133
103133
103133
103133
103133
103133
103133
103133
103133
103133
103133
103133
103133
103133
103133
103133
103133
103133
103133
103133
103133
103133
103133
103133
103133
103133
103133
103133
103133
103133
103133
103133
103133
103133
103133
103133
103133
103133
103133
103133
103133
103133
103133
103133
103133
103133
103133
103133
103133
103133
103133
103133
103133
103133
103133
103133
103133
103133
103133
103133
103133
103133
103133
103133
103133
103133
103133
103133
103133
103133
103133
103133
)
;

boundaryField
{
    boundary
    {
        type            empty;
    }
    inlet
    {
        type            zeroGradient;
    }
    outlet
    {
        type            waveTransmissive;
        gamma           1.4;
        value           nonuniform 0();
    }
    procBoundary2to3
    {
        type            processor;
        value           uniform 103133;
    }
}


// ************************************************************************* //
