/*--------------------------------*- C++ -*----------------------------------*\
  =========                 |
  \\      /  F ield         | OpenFOAM: The Open Source CFD Toolbox
   \\    /   O peration     | Website:  https://openfoam.org
    \\  /    A nd           | Version:  7
     \\/     M anipulation  |
\*---------------------------------------------------------------------------*/
FoamFile
{
    version     2.0;
    format      ascii;
    class       volScalarField;
    location    "0.00064";
    object      H;
}
// * * * * * * * * * * * * * * * * * * * * * * * * * * * * * * * * * * * * * //

dimensions      [0 0 0 0 0 0 0];

internalField   nonuniform List<scalar> 
500
(
1.4824e-41
2.00356e-41
2.11164e-41
2.13099e-41
2.13171e-41
2.12903e-41
2.12632e-41
2.12431e-41
2.12315e-41
2.12282e-41
2.12325e-41
2.12433e-41
2.12599e-41
2.12812e-41
2.13067e-41
2.13358e-41
2.13684e-41
2.14044e-41
2.14442e-41
2.14883e-41
2.15376e-41
2.15929e-41
2.16556e-41
2.17271e-41
2.18089e-41
2.19029e-41
2.20108e-41
2.21347e-41
2.22765e-41
2.24383e-41
2.26219e-41
2.28293e-41
2.3062e-41
2.33213e-41
2.36084e-41
2.39237e-41
2.42673e-41
2.46389e-41
2.50375e-41
2.54613e-41
2.59081e-41
2.6375e-41
2.68586e-41
2.73548e-41
2.78592e-41
2.83672e-41
2.88737e-41
2.93739e-41
2.9863e-41
3.03364e-41
3.07901e-41
3.12205e-41
3.16247e-41
3.20004e-41
3.23461e-41
3.2661e-41
3.2945e-41
3.31986e-41
3.34228e-41
3.36192e-41
3.37895e-41
3.39358e-41
3.40604e-41
3.41654e-41
3.42532e-41
3.43259e-41
3.43857e-41
3.44343e-41
3.44735e-41
3.4505e-41
3.45299e-41
3.45496e-41
3.4565e-41
3.4577e-41
3.45862e-41
3.45932e-41
3.45986e-41
3.46027e-41
3.46058e-41
3.46082e-41
3.46099e-41
3.46113e-41
3.46124e-41
3.46132e-41
3.46139e-41
3.46145e-41
3.4615e-41
3.46154e-41
3.46158e-41
3.46162e-41
3.46166e-41
3.4617e-41
3.46174e-41
3.46178e-41
3.46183e-41
3.46187e-41
3.46192e-41
3.46197e-41
3.46202e-41
3.46207e-41
3.46212e-41
3.46218e-41
3.46224e-41
3.4623e-41
3.46237e-41
3.46243e-41
3.4625e-41
3.46257e-41
3.46265e-41
3.46273e-41
3.46281e-41
3.46289e-41
3.46298e-41
3.46307e-41
3.46316e-41
3.46326e-41
3.46336e-41
3.46347e-41
3.46357e-41
3.46369e-41
3.46381e-41
3.46395e-41
3.46414e-41
3.46445e-41
3.46505e-41
3.4657e-41
3.46579e-41
3.46585e-41
3.46588e-41
3.46589e-41
3.46589e-41
3.46588e-41
3.46588e-41
3.4659e-41
3.46594e-41
3.46601e-41
3.4661e-41
3.46623e-41
3.46638e-41
3.46656e-41
3.46675e-41
3.46696e-41
3.46717e-41
3.46739e-41
3.46762e-41
3.46784e-41
3.46806e-41
3.46829e-41
3.46851e-41
3.46873e-41
3.46895e-41
3.46918e-41
3.4694e-41
3.46963e-41
3.46985e-41
3.47008e-41
3.47031e-41
3.47055e-41
3.47078e-41
3.47102e-41
3.47126e-41
3.4715e-41
3.47175e-41
3.472e-41
3.47225e-41
3.47251e-41
3.47277e-41
3.47303e-41
3.47329e-41
3.47356e-41
3.47382e-41
3.47409e-41
3.47435e-41
3.47462e-41
3.47488e-41
3.47514e-41
3.47539e-41
3.47564e-41
3.47589e-41
3.47613e-41
3.47636e-41
3.47658e-41
3.4768e-41
3.47701e-41
3.4772e-41
3.47739e-41
3.47756e-41
3.47773e-41
3.47787e-41
3.47801e-41
3.47813e-41
3.47824e-41
3.47833e-41
3.4784e-41
3.47846e-41
3.47849e-41
3.47851e-41
3.47851e-41
3.47848e-41
3.47844e-41
3.47837e-41
3.47828e-41
3.47816e-41
3.47801e-41
3.47784e-41
3.47764e-41
3.47741e-41
3.47715e-41
3.47686e-41
3.47654e-41
3.47624e-41
3.47605e-41
3.47636e-41
3.47856e-41
3.48764e-41
3.52119e-41
3.64103e-41
4.06284e-41
5.5339e-41
1.0626e-40
2.81318e-40
8.79159e-40
2.90766e-39
9.74686e-39
3.26628e-38
1.08982e-37
3.61662e-37
1.19346e-36
3.91661e-36
1.27845e-35
4.1516e-35
1.34157e-34
4.31502e-34
1.38179e-33
4.40671e-33
1.4e-32
4.43219e-32
1.39874e-31
4.40192e-31
1.38204e-30
4.33096e-30
1.35549e-29
4.24021e-29
1.32705e-28
4.16076e-28
1.30924e-27
4.14461e-27
1.32424e-26
4.28827e-26
1.41471e-25
4.78258e-25
1.6746e-24
6.05368e-24
2.26963e-23
8.83491e-23
3.56172e-22
1.48008e-21
6.30446e-21
2.73785e-20
1.20673e-19
5.38039e-19
2.42197e-18
1.10005e-17
5.0456e-17
2.34288e-16
1.10611e-15
5.34294e-15
2.66183e-14
1.37972e-13
7.64758e-13
4.96335e-12
4.28289e-11
4.09471e-10
3.81453e-09
3.57835e-08
3.25466e-07
2.69638e-06
1.81371e-05
8.43488e-05
0.000244545
0.000497967
0.000825199
0.0011879
0.00151858
0.00175667
0.00188613
0.0019273
0.00190741
0.00185415
0.00178464
0.00170927
0.0016339
0.00156154
0.00149355
0.0014304
0.00137205
0.00131825
0.00126864
0.00122282
0.00118042
0.00114109
0.00110452
0.00107043
0.00103856
0.00100871
0.000980686
0.000954315
0.000929453
0.00090597
0.000883752
0.000862696
0.000842711
0.000824272
0.000807097
0.000790616
0.000774788
0.000759573
0.000744936
0.000730842
0.000717261
0.000704165
0.000691526
0.000679321
0.000667526
0.000656121
0.000645085
0.000634401
0.000624051
0.000614019
0.000604291
0.000594851
0.000585688
0.000576789
0.000568142
0.000559736
0.000551561
0.000543608
0.000535867
0.000528329
0.000520987
0.000513833
0.000506859
0.000500058
0.000493425
0.000486953
0.000480635
0.000474467
0.000468442
0.000462557
0.000456805
0.000451183
0.000445686
0.00044031
0.00043505
0.000429904
0.000424867
0.000419936
0.000415107
0.000410378
0.000405745
0.000401205
0.000396756
0.000392395
0.000388119
0.000383927
0.000379814
0.00037578
0.000371822
0.000367938
0.000364127
0.000360385
0.000356712
0.000353106
0.000349566
0.000346089
0.000342675
0.000339317
0.000336013
0.000332765
0.000329573
0.000326435
0.000323349
0.000320315
0.000317331
0.000314396
0.000311509
0.000308668
0.000305873
0.000303123
0.000300416
0.000297752
0.000295129
0.000292547
0.000290005
0.000287502
0.000285037
0.00028261
0.000280219
0.000277864
0.000275544
0.000273258
0.000271006
0.000268788
0.000266601
0.000264447
0.000262324
0.000260231
0.000258169
0.000256136
0.000254133
0.000252158
0.000250211
0.000248291
0.000246399
0.000244534
0.000242695
0.000240882
0.000239094
0.000237332
0.000235594
0.000233882
0.000232193
0.000230528
0.000228886
0.000227268
0.000225673
0.0002241
0.00022255
0.000221022
0.000219516
0.000218032
0.000216569
0.000215128
0.000213707
0.000212307
0.000210928
0.00020957
0.000208231
0.000206913
0.000205615
0.000204336
0.000203077
0.000201837
0.000200617
0.000199416
0.000198233
0.000197069
0.000195924
0.000194796
0.000193685
0.00019259
0.000191505
0.000190309
0.000189234
0.000188189
0.000187166
0.000186161
0.000185174
0.000184201
0.000183244
0.0001823
0.000181369
0.000180451
0.000179545
0.000178651
0.000177768
0.000176896
0.000176033
0.000175181
0.000174337
0.000173501
0.000172673
0.000171852
0.000171037
0.000170228
0.000169423
0.000168623
0.000167827
0.000167033
0.000166242
0.000165453
0.000164664
0.000163876
0.000163088
0.000162301
0.000161512
0.000160723
0.000159934
0.000159144
0.000158355
0.000157568
0.000156784
0.000156006
0.00015524
0.000154491
0.000153771
0.000153097
0.000152498
0.00015202
0.000151734
)
;

boundaryField
{
    boundary
    {
        type            empty;
    }
    inlet
    {
        type            fixedValue;
        value           uniform 0;
    }
    outlet
    {
        type            zeroGradient;
    }
}


// ************************************************************************* //
