/*--------------------------------*- C++ -*----------------------------------*\
  =========                 |
  \\      /  F ield         | OpenFOAM: The Open Source CFD Toolbox
   \\    /   O peration     | Website:  https://openfoam.org
    \\  /    A nd           | Version:  7
     \\/     M anipulation  |
\*---------------------------------------------------------------------------*/
FoamFile
{
    version     2.0;
    format      ascii;
    class       volScalarField;
    location    "0.00064";
    object      H2;
}
// * * * * * * * * * * * * * * * * * * * * * * * * * * * * * * * * * * * * * //

dimensions      [0 0 0 0 0 0 0];

internalField   nonuniform List<scalar> 
500
(
0.0285116
0.0285116
0.0285116
0.0285116
0.0285116
0.0285116
0.0285116
0.0285116
0.0285116
0.0285116
0.0285116
0.0285116
0.0285116
0.0285116
0.0285116
0.0285116
0.0285116
0.0285116
0.0285116
0.0285116
0.0285116
0.0285116
0.0285116
0.0285116
0.0285116
0.0285116
0.0285116
0.0285116
0.0285116
0.0285116
0.0285116
0.0285116
0.0285116
0.0285116
0.0285116
0.0285116
0.0285116
0.0285116
0.0285116
0.0285116
0.0285116
0.0285116
0.0285116
0.0285116
0.0285116
0.0285116
0.0285116
0.0285116
0.0285116
0.0285116
0.0285116
0.0285116
0.0285116
0.0285116
0.0285116
0.0285116
0.0285116
0.0285116
0.0285116
0.0285116
0.0285116
0.0285116
0.0285116
0.0285116
0.0285116
0.0285116
0.0285116
0.0285116
0.0285116
0.0285116
0.0285116
0.0285116
0.0285116
0.0285116
0.0285116
0.0285116
0.0285116
0.0285116
0.0285116
0.0285116
0.0285116
0.0285116
0.0285116
0.0285116
0.0285116
0.0285116
0.0285116
0.0285116
0.0285116
0.0285116
0.0285116
0.0285116
0.0285116
0.0285116
0.0285116
0.0285116
0.0285116
0.0285116
0.0285116
0.0285116
0.0285116
0.0285116
0.0285116
0.0285116
0.0285116
0.0285116
0.0285116
0.0285116
0.0285116
0.0285116
0.0285116
0.0285116
0.0285116
0.0285116
0.0285116
0.0285116
0.0285116
0.0285116
0.0285116
0.0285116
0.0285116
0.0285116
0.0285116
0.0285116
0.0285116
0.0285116
0.0285116
0.0285116
0.0285116
0.0285116
0.0285116
0.0285116
0.0285116
0.0285116
0.0285116
0.0285116
0.0285116
0.0285116
0.0285116
0.0285116
0.0285116
0.0285116
0.0285116
0.0285116
0.0285116
0.0285116
0.0285116
0.0285116
0.0285116
0.0285116
0.0285116
0.0285116
0.0285116
0.0285116
0.0285116
0.0285116
0.0285116
0.0285116
0.0285116
0.0285116
0.0285116
0.0285116
0.0285116
0.0285116
0.0285116
0.0285116
0.0285116
0.0285116
0.0285116
0.0285116
0.0285116
0.0285116
0.0285116
0.0285116
0.0285116
0.0285116
0.0285116
0.0285116
0.0285116
0.0285116
0.0285116
0.0285116
0.0285116
0.0285116
0.0285116
0.0285116
0.0285116
0.0285116
0.0285116
0.0285116
0.0285116
0.0285116
0.0285116
0.0285116
0.0285116
0.0285116
0.0285116
0.0285116
0.0285116
0.0285116
0.0285116
0.0285116
0.0285116
0.0285116
0.0285116
0.0285116
0.0285116
0.0285116
0.0285116
0.0285116
0.0285116
0.0285116
0.0285116
0.0285116
0.0285116
0.0285116
0.0285116
0.0285116
0.0285116
0.0285116
0.0285116
0.0285116
0.0285116
0.0285116
0.0285116
0.0285116
0.0285116
0.0285116
0.0285116
0.0285116
0.0285116
0.0285116
0.0285116
0.0285116
0.0285116
0.0285116
0.0285116
0.0285116
0.0285116
0.0285116
0.0285116
0.0285116
0.0285116
0.0285116
0.0285116
0.0285116
0.0285116
0.0285116
0.0285116
0.0285116
0.0285116
0.0285116
0.0285116
0.0285116
0.0285116
0.0285116
0.0285116
0.0285116
0.0285116
0.0285116
0.0285116
0.0285116
0.0285115
0.0285115
0.0285114
0.0285111
0.0285106
0.0285095
0.0285072
0.0285025
0.0284926
0.0284722
0.0284297
0.0283419
0.0281618
0.0278008
0.0271137
0.0259257
0.0241257
0.0218019
0.0191159
0.0161509
0.0130875
0.01028
0.00804359
0.00646177
0.00534113
0.00468971
0.00428742
0.00403936
0.00388418
0.00378395
0.00371585
0.00366636
0.00362756
0.00359488
0.00356568
0.00353847
0.00351242
0.00348709
0.00346225
0.00343777
0.00341361
0.00338976
0.00336623
0.00334302
0.00332015
0.00329762
0.00327544
0.00325363
0.00323217
0.00321109
0.003191
0.00317171
0.00315268
0.00313393
0.00311543
0.00309718
0.00307919
0.00306144
0.00304394
0.00302668
0.00300966
0.00299287
0.00297631
0.00295998
0.00294387
0.00292798
0.0029123
0.00289683
0.00288157
0.00286651
0.00285165
0.00283699
0.00282251
0.00280823
0.00279412
0.0027802
0.00276645
0.00275288
0.00273947
0.00272623
0.00271315
0.00270023
0.00268747
0.00267486
0.0026624
0.00265008
0.00263791
0.00262588
0.00261399
0.00260224
0.00259061
0.00257912
0.00256776
0.00255652
0.0025454
0.0025344
0.00252352
0.00251276
0.00250211
0.00249157
0.00248113
0.00247081
0.00246059
0.00245048
0.00244046
0.00243055
0.00242073
0.00241101
0.00240139
0.00239186
0.00238242
0.00237307
0.00236381
0.00235464
0.00234555
0.00233654
0.0023276
0.00231875
0.00230998
0.00230129
0.00229268
0.00228414
0.00227569
0.00226731
0.00225901
0.00225079
0.00224264
0.00223456
0.00222656
0.00221863
0.00221077
0.00220299
0.00219528
0.00218764
0.00218007
0.00217257
0.00216514
0.00215778
0.0021505
0.00214328
0.00213613
0.00212904
0.00212203
0.00211508
0.00210821
0.0021014
0.00209465
0.00208798
0.00208137
0.00207483
0.00206835
0.00206195
0.00205561
0.00204934
0.00204313
0.00203699
0.00203092
0.00202492
0.00201899
0.00201313
0.00200734
0.00200161
0.00199596
0.00199038
0.00198487
0.00197944
0.00197408
0.0019688
0.0019636
0.00195848
0.00195343
0.00194847
0.00194359
0.0019388
0.0019341
0.00192949
0.00192497
0.00192055
0.00191622
0.00191199
0.00190787
0.00190385
0.00189994
0.00189615
0.00189247
0.00188891
0.00188548
0.00188218
0.00187905
0.00187609
0.00187293
0.00187023
0.00186765
0.0018652
0.0018629
0.00186075
0.00185876
0.00185692
0.00185526
0.00185376
0.00185243
0.00185127
0.0018503
0.0018495
0.00184888
0.00184844
0.00184819
0.00184812
0.00184824
0.00184853
0.00184901
0.00184967
0.0018505
0.00185151
0.00185268
0.00185402
0.00185552
0.00185716
0.00185896
0.00186088
0.00186293
0.0018651
0.00186738
0.00186975
0.00187221
0.00187475
0.00187735
0.00188
0.0018827
0.00188543
0.00188819
0.00189097
0.00189374
0.00189649
0.00189914
0.00190159
0.00190363
0.00190491
)
;

boundaryField
{
    boundary
    {
        type            empty;
    }
    inlet
    {
        type            fixedValue;
        value           uniform 0.0285116;
    }
    outlet
    {
        type            zeroGradient;
    }
}


// ************************************************************************* //
