/*--------------------------------*- C++ -*----------------------------------*\
  =========                 |
  \\      /  F ield         | OpenFOAM: The Open Source CFD Toolbox
   \\    /   O peration     | Website:  https://openfoam.org
    \\  /    A nd           | Version:  7
     \\/     M anipulation  |
\*---------------------------------------------------------------------------*/
FoamFile
{
    version     2.0;
    format      ascii;
    class       volScalarField;
    location    "0.00064";
    object      H2O;
}
// * * * * * * * * * * * * * * * * * * * * * * * * * * * * * * * * * * * * * //

dimensions      [0 0 0 0 0 0 0];

internalField   nonuniform List<scalar> 
500
(
7.84966e-48
2.26582e-47
4.07336e-47
6.10185e-47
8.28103e-47
1.05645e-46
1.29219e-46
1.53331e-46
1.77849e-46
2.02683e-46
2.27773e-46
2.53076e-46
2.78565e-46
3.04221e-46
3.30038e-46
3.56016e-46
3.82164e-46
4.08502e-46
4.3506e-46
4.61877e-46
4.89003e-46
5.16504e-46
5.44453e-46
5.72939e-46
6.02063e-46
6.31937e-46
6.62682e-46
6.94426e-46
7.27302e-46
7.6144e-46
7.96963e-46
8.33983e-46
8.72589e-46
9.12846e-46
9.54781e-46
9.98382e-46
1.04359e-45
1.0903e-45
1.13834e-45
1.18751e-45
1.23753e-45
1.2881e-45
1.33887e-45
1.38946e-45
1.43949e-45
1.48854e-45
1.53624e-45
1.58222e-45
1.62614e-45
1.66771e-45
1.70669e-45
1.7429e-45
1.77621e-45
1.80657e-45
1.83397e-45
1.85845e-45
1.88013e-45
1.89913e-45
1.91563e-45
1.92981e-45
1.94189e-45
1.95209e-45
1.9606e-45
1.96765e-45
1.97344e-45
1.97814e-45
1.98192e-45
1.98495e-45
1.98734e-45
1.98921e-45
1.99067e-45
1.99179e-45
1.99265e-45
1.9933e-45
1.99379e-45
1.99416e-45
1.99443e-45
1.99464e-45
1.99478e-45
1.99489e-45
1.99498e-45
1.99504e-45
1.99508e-45
1.99512e-45
1.99515e-45
1.99517e-45
1.99519e-45
1.99521e-45
1.99523e-45
1.99525e-45
1.99526e-45
1.99528e-45
1.9953e-45
1.99532e-45
1.99534e-45
1.99537e-45
1.99539e-45
1.99541e-45
1.99544e-45
1.99547e-45
1.9955e-45
1.99553e-45
1.99556e-45
1.9956e-45
1.99563e-45
1.99567e-45
1.99571e-45
1.99575e-45
1.9958e-45
1.99584e-45
1.99589e-45
1.99594e-45
1.99599e-45
1.99604e-45
1.9961e-45
1.99616e-45
1.99622e-45
1.99628e-45
1.99635e-45
1.99641e-45
1.99647e-45
1.99651e-45
1.99645e-45
1.99602e-45
1.99424e-45
1.9909e-45
1.99098e-45
1.99106e-45
1.99115e-45
1.99124e-45
1.99134e-45
1.99145e-45
1.99158e-45
1.99174e-45
1.99193e-45
1.99215e-45
1.99242e-45
1.99274e-45
1.99311e-45
1.99352e-45
1.99399e-45
1.99449e-45
1.99502e-45
1.99558e-45
1.99614e-45
1.9967e-45
1.99724e-45
1.99774e-45
1.99821e-45
1.99863e-45
1.99899e-45
1.9993e-45
1.99955e-45
1.99975e-45
1.9999e-45
2.00001e-45
2.00009e-45
2.00015e-45
2.00019e-45
2.00022e-45
2.00026e-45
2.0003e-45
2.00035e-45
2.00043e-45
2.00052e-45
2.00064e-45
2.00079e-45
2.00095e-45
2.00115e-45
2.00136e-45
2.0016e-45
2.00185e-45
2.00211e-45
2.00238e-45
2.00266e-45
2.00293e-45
2.00321e-45
2.00347e-45
2.00373e-45
2.00398e-45
2.00421e-45
2.00444e-45
2.00464e-45
2.00483e-45
2.00501e-45
2.00517e-45
2.00532e-45
2.00545e-45
2.00557e-45
2.00567e-45
2.00576e-45
2.00583e-45
2.00589e-45
2.00593e-45
2.00596e-45
2.00598e-45
2.00598e-45
2.00598e-45
2.00599e-45
2.00613e-45
2.00679e-45
2.00961e-45
2.02109e-45
2.06671e-45
2.24619e-45
2.94676e-45
5.66326e-45
1.6133e-44
5.62583e-44
2.09253e-43
7.89993e-43
2.98619e-42
1.12688e-41
4.2457e-41
1.59881e-40
6.02652e-40
2.27782e-39
8.64928e-39
3.30585e-38
1.27412e-37
4.95927e-37
1.95138e-36
7.76539e-36
3.12445e-35
1.26998e-34
5.20776e-34
2.15084e-33
8.9308e-33
3.72157e-32
1.55384e-31
6.49099e-31
2.70971e-30
1.12935e-29
4.69583e-29
1.94691e-28
8.04584e-28
3.31358e-27
1.35982e-26
5.5606e-26
2.26596e-25
9.20293e-25
3.72582e-24
1.50393e-23
6.05396e-23
2.43087e-22
9.73867e-22
3.89364e-21
1.55393e-20
6.19194e-20
2.46395e-19
9.79345e-19
3.91024e-18
1.55559e-17
6.17277e-17
2.44715e-16
9.69678e-16
3.841e-15
1.52102e-14
6.02159e-14
2.38322e-13
9.42929e-13
3.72927e-12
1.4742e-11
5.82403e-11
2.2991e-10
9.06748e-10
3.57216e-09
1.40543e-08
5.52147e-08
2.16568e-07
8.47915e-07
3.31299e-06
1.29095e-05
5.00683e-05
0.000192134
0.000717372
0.00249801
0.00746876
0.0176207
0.0324766
0.0507956
0.07292
0.0983686
0.123977
0.145808
0.161866
0.175537
0.183411
0.188712
0.192352
0.194944
0.196876
0.19839
0.199633
0.200697
0.201638
0.20249
0.203275
0.204008
0.204697
0.20535
0.205971
0.206564
0.207132
0.207676
0.208198
0.2087
0.209184
0.209651
0.210101
0.210535
0.210954
0.211346
0.211721
0.212085
0.212441
0.212787
0.213126
0.213456
0.213779
0.214094
0.214403
0.214704
0.215
0.215289
0.215572
0.215849
0.216121
0.216388
0.216649
0.216906
0.217157
0.217404
0.217647
0.217885
0.218119
0.218349
0.218575
0.218797
0.219016
0.219231
0.219442
0.219651
0.219855
0.220057
0.220256
0.220451
0.220644
0.220834
0.221021
0.221205
0.221387
0.221566
0.221742
0.221916
0.222088
0.222257
0.222424
0.222589
0.222751
0.222912
0.22307
0.223226
0.22338
0.223533
0.223683
0.223831
0.223978
0.224123
0.224266
0.224407
0.224546
0.224684
0.22482
0.224954
0.225086
0.225217
0.225347
0.225475
0.225602
0.225728
0.225852
0.225974
0.226095
0.226215
0.226334
0.226451
0.226567
0.226682
0.226796
0.226909
0.22702
0.227131
0.22724
0.227348
0.227456
0.227562
0.227667
0.227771
0.227875
0.227977
0.228079
0.22818
0.228279
0.228378
0.228477
0.228574
0.228671
0.228767
0.228862
0.228956
0.22905
0.229143
0.229235
0.229327
0.229418
0.229509
0.229598
0.229688
0.229776
0.229864
0.229952
0.230039
0.230126
0.230212
0.230298
0.230383
0.230468
0.230552
0.230636
0.23072
0.230804
0.230887
0.230971
0.231054
0.231137
0.231219
0.231302
0.231385
0.231468
0.231551
0.231634
0.231717
0.231801
0.231885
0.231969
0.232054
0.232139
0.232224
0.232311
0.232397
0.23248
0.232601
0.232694
0.232787
0.23288
0.232975
0.23307
0.233168
0.233266
0.233367
0.233468
0.233572
0.233677
0.233783
0.233892
0.234002
0.234114
0.234227
0.234342
0.234459
0.234578
0.234698
0.23482
0.234943
0.235068
0.235194
0.235321
0.235449
0.235579
0.235709
0.235839
0.23597
0.236101
0.236233
0.236364
0.236495
0.236626
0.236756
0.236884
0.237012
0.237138
0.237262
0.237384
0.237503
0.237618
0.237727
0.237828
0.237912
0.237969
)
;

boundaryField
{
    boundary
    {
        type            empty;
    }
    inlet
    {
        type            fixedValue;
        value           uniform 0;
    }
    outlet
    {
        type            zeroGradient;
    }
}


// ************************************************************************* //
