/*--------------------------------*- C++ -*----------------------------------*\
  =========                 |
  \\      /  F ield         | OpenFOAM: The Open Source CFD Toolbox
   \\    /   O peration     | Website:  https://openfoam.org
    \\  /    A nd           | Version:  7
     \\/     M anipulation  |
\*---------------------------------------------------------------------------*/
FoamFile
{
    version     2.0;
    format      ascii;
    class       volScalarField;
    location    "0.00064";
    object      O2;
}
// * * * * * * * * * * * * * * * * * * * * * * * * * * * * * * * * * * * * * //

dimensions      [0 0 0 0 0 0 0];

internalField   nonuniform List<scalar> 
500
(
0.226269
0.226269
0.226269
0.226269
0.226269
0.226269
0.226269
0.226269
0.226269
0.226269
0.226269
0.226269
0.226269
0.226269
0.226269
0.226269
0.226269
0.226269
0.226269
0.226269
0.226269
0.226269
0.226269
0.226269
0.226269
0.226269
0.226269
0.226269
0.226269
0.226269
0.226269
0.226269
0.226269
0.226269
0.226269
0.226269
0.226269
0.226269
0.226269
0.226269
0.226269
0.226269
0.226269
0.226269
0.226269
0.226269
0.226269
0.226269
0.226269
0.226269
0.226269
0.226269
0.226269
0.226269
0.226269
0.226269
0.226269
0.226269
0.226269
0.226269
0.226269
0.226269
0.226269
0.226269
0.226269
0.226269
0.226269
0.226269
0.226269
0.226269
0.226269
0.226269
0.226269
0.226269
0.226269
0.226269
0.226269
0.226269
0.226269
0.226269
0.226269
0.226269
0.226269
0.226269
0.226269
0.226269
0.226269
0.226269
0.226269
0.226269
0.226269
0.226269
0.226269
0.226269
0.226269
0.226269
0.226269
0.226269
0.226269
0.226269
0.226269
0.226269
0.226269
0.226269
0.226269
0.226269
0.226269
0.226269
0.226269
0.226269
0.226269
0.226269
0.226269
0.226269
0.226269
0.226269
0.226269
0.226269
0.226269
0.226269
0.226269
0.226269
0.226269
0.226269
0.226269
0.226269
0.226269
0.226269
0.226269
0.226269
0.226269
0.226269
0.226269
0.226269
0.226269
0.226269
0.226269
0.226269
0.226269
0.226269
0.226269
0.226269
0.226269
0.226269
0.226269
0.226269
0.226269
0.226269
0.226269
0.226269
0.226269
0.226269
0.226269
0.226269
0.226269
0.226269
0.226269
0.226269
0.226269
0.226269
0.226269
0.226269
0.226269
0.226269
0.226269
0.226269
0.226269
0.226269
0.226269
0.226269
0.226269
0.226269
0.226269
0.226269
0.226269
0.226269
0.226269
0.226269
0.226269
0.226269
0.226269
0.226269
0.226269
0.226269
0.226269
0.226269
0.226269
0.226269
0.226269
0.226269
0.226269
0.226269
0.226269
0.226269
0.226269
0.226269
0.226269
0.226269
0.226269
0.226269
0.226269
0.226269
0.226269
0.226269
0.226269
0.226269
0.226269
0.226269
0.226269
0.226269
0.226269
0.226269
0.226269
0.226269
0.226269
0.226269
0.226269
0.226269
0.226269
0.226269
0.226269
0.226269
0.226269
0.226269
0.226269
0.226269
0.226269
0.226269
0.226269
0.226269
0.226269
0.226269
0.226269
0.226269
0.226269
0.226269
0.226269
0.226269
0.226269
0.226269
0.226269
0.226269
0.226269
0.226269
0.226269
0.226269
0.226269
0.226269
0.226269
0.226269
0.226269
0.226269
0.226269
0.226269
0.226269
0.226269
0.226269
0.226269
0.226269
0.226269
0.226269
0.226269
0.226269
0.226269
0.226269
0.226269
0.226269
0.226269
0.22627
0.226271
0.226273
0.226276
0.226278
0.226264
0.226168
0.225747
0.224283
0.220275
0.211823
0.199326
0.183524
0.163274
0.138614
0.112818
0.090286
0.0735198
0.0587278
0.0502555
0.0445314
0.040619
0.0378735
0.035875
0.0343576
0.0331548
0.0321631
0.0313172
0.0305758
0.0299121
0.0293086
0.0287533
0.0282378
0.0277561
0.0273035
0.0268767
0.0264728
0.0260896
0.0257251
0.0253778
0.0250462
0.0247293
0.0244261
0.024136
0.023867
0.0236115
0.0233642
0.0231246
0.0228923
0.0226669
0.022448
0.0222352
0.0220284
0.0218271
0.0216311
0.0214402
0.0212542
0.0210727
0.0208956
0.0207228
0.020554
0.0203891
0.0202278
0.0200702
0.0199159
0.0197649
0.0196171
0.0194724
0.0193305
0.0191915
0.0190552
0.0189215
0.0187904
0.0186617
0.0185354
0.0184114
0.0182896
0.0181699
0.0180523
0.0179368
0.0178232
0.0177115
0.0176016
0.0174935
0.0173872
0.0172826
0.0171797
0.0170783
0.0169785
0.0168803
0.0167836
0.0166883
0.0165944
0.016502
0.0164109
0.0163211
0.0162326
0.0161454
0.0160595
0.0159748
0.0158913
0.015809
0.0157278
0.0156478
0.0155689
0.0154911
0.0154145
0.015339
0.0152645
0.0151907
0.015118
0.0150462
0.0149753
0.0149053
0.0148362
0.0147679
0.0147005
0.0146339
0.014568
0.0145029
0.0144386
0.014375
0.0143121
0.0142499
0.0141883
0.0141274
0.0140671
0.0140074
0.0139483
0.0138898
0.0138318
0.0137743
0.0137174
0.013661
0.013605
0.0135495
0.0134945
0.01344
0.0133859
0.0133322
0.0132789
0.013226
0.0131735
0.0131214
0.0130697
0.0130183
0.0129673
0.0129166
0.0128662
0.0128162
0.0127664
0.012717
0.0126678
0.0126189
0.0125703
0.0125219
0.0124737
0.0124257
0.0123779
0.0123302
0.0122828
0.0122354
0.0121881
0.012141
0.0120938
0.0120467
0.0119996
0.0119525
0.0119053
0.011858
0.0118106
0.011763
0.0117152
0.0116671
0.0116187
0.01157
0.0115209
0.0114714
0.0114214
0.0113709
0.0113199
0.0112683
0.0112165
0.011167
0.011089
0.0110309
0.0109731
0.0109145
0.0108549
0.010794
0.0107317
0.010668
0.0106028
0.010536
0.0104676
0.0103975
0.0103258
0.0102524
0.0101771
0.0101001
0.0100213
0.00994065
0.00985821
0.00977396
0.00968795
0.0096002
0.00951076
0.00941969
0.00932708
0.00923299
0.00913754
0.00904083
0.00894299
0.00884415
0.00874447
0.0086441
0.00854321
0.00844198
0.0083406
0.00823926
0.00813817
0.00803754
0.0079376
0.00783858
0.00774077
0.00764449
0.00755021
0.0074586
0.00737084
0.00728921
0.0072185
0.0071697
)
;

boundaryField
{
    boundary
    {
        type            empty;
    }
    inlet
    {
        type            fixedValue;
        value           uniform 0.226269;
    }
    outlet
    {
        type            zeroGradient;
    }
}


// ************************************************************************* //
