/*--------------------------------*- C++ -*----------------------------------*\
  =========                 |
  \\      /  F ield         | OpenFOAM: The Open Source CFD Toolbox
   \\    /   O peration     | Website:  https://openfoam.org
    \\  /    A nd           | Version:  7
     \\/     M anipulation  |
\*---------------------------------------------------------------------------*/
FoamFile
{
    version     2.0;
    format      ascii;
    class       volScalarField;
    location    "0.00064";
    object      T;
}
// * * * * * * * * * * * * * * * * * * * * * * * * * * * * * * * * * * * * * //

dimensions      [0 0 0 1 0 0 0];

internalField   nonuniform List<scalar> 
500
(
299.994
299.986
299.978
299.97
299.963
299.957
299.953
299.95
299.948
299.948
299.948
299.95
299.952
299.956
299.959
299.964
299.969
299.974
299.98
299.987
299.994
300.002
300.011
300.022
300.034
300.048
300.063
300.081
300.102
300.125
300.151
300.18
300.212
300.248
300.287
300.33
300.376
300.424
300.476
300.53
300.586
300.643
300.702
300.761
300.819
300.878
300.935
300.99
301.043
301.094
301.142
301.187
301.228
301.266
301.301
301.332
301.36
301.385
301.407
301.426
301.442
301.456
301.468
301.478
301.486
301.493
301.498
301.503
301.506
301.509
301.512
301.513
301.515
301.516
301.517
301.518
301.518
301.518
301.519
301.519
301.519
301.519
301.519
301.519
301.519
301.519
301.52
301.52
301.52
301.52
301.52
301.52
301.52
301.52
301.52
301.52
301.52
301.52
301.52
301.52
301.52
301.52
301.52
301.52
301.52
301.52
301.52
301.521
301.521
301.521
301.521
301.521
301.521
301.521
301.521
301.521
301.521
301.521
301.521
301.522
301.522
301.522
301.522
301.522
301.523
301.523
301.524
301.524
301.524
301.524
301.524
301.524
301.524
301.524
301.524
301.524
301.524
301.524
301.524
301.524
301.524
301.525
301.525
301.525
301.525
301.525
301.526
301.526
301.526
301.526
301.526
301.527
301.527
301.527
301.527
301.528
301.528
301.528
301.528
301.528
301.529
301.529
301.529
301.529
301.53
301.53
301.53
301.53
301.531
301.531
301.531
301.531
301.532
301.532
301.532
301.532
301.532
301.533
301.533
301.533
301.533
301.534
301.534
301.534
301.534
301.534
301.535
301.535
301.535
301.535
301.535
301.535
301.535
301.535
301.535
301.535
301.535
301.535
301.535
301.535
301.535
301.535
301.535
301.535
301.535
301.535
301.534
301.534
301.534
301.534
301.533
301.533
301.532
301.532
301.532
301.531
301.53
301.53
301.529
301.529
301.528
301.527
301.526
301.525
301.525
301.524
301.523
301.522
301.52
301.519
301.518
301.517
301.516
301.514
301.513
301.511
301.51
301.508
301.507
301.505
301.503
301.501
301.499
301.498
301.496
301.494
301.491
301.489
301.487
301.485
301.483
301.481
301.479
301.476
301.473
301.471
301.468
301.465
301.462
301.46
301.457
301.454
301.451
301.448
301.445
301.443
301.441
301.442
301.45
301.477
301.558
301.794
302.466
304.373
309.763
324.731
363.322
445.426
575.164
728.516
881.597
1026.55
1160.32
1277.57
1373.53
1454.39
1523.51
1578.7
1622.96
1660.98
1694.03
1723.15
1749.11
1772.5
1793.72
1813.12
1830.96
1847.44
1862.75
1877
1890.34
1902.85
1914.61
1925.71
1936.2
1946.14
1955.57
1964.54
1973.08
1981.23
1989
1996.42
2003.31
2009.8
2016.09
2022.16
2028.04
2033.73
2039.24
2044.59
2049.78
2054.82
2059.72
2064.48
2069.11
2073.62
2078.01
2082.29
2086.46
2090.53
2094.5
2098.37
2102.15
2105.85
2109.46
2112.99
2116.44
2119.82
2123.12
2126.36
2129.53
2132.63
2135.67
2138.66
2141.58
2144.45
2147.26
2150.02
2152.72
2155.38
2157.99
2160.56
2163.08
2165.55
2167.98
2170.37
2172.73
2175.04
2177.31
2179.55
2181.75
2183.92
2186.05
2188.15
2190.22
2192.26
2194.26
2196.24
2198.19
2200.11
2202.01
2203.87
2205.72
2207.53
2209.32
2211.09
2212.84
2214.56
2216.26
2217.93
2219.59
2221.23
2222.84
2224.43
2226.01
2227.56
2229.1
2230.61
2232.11
2233.59
2235.05
2236.5
2237.93
2239.34
2240.73
2242.11
2243.47
2244.82
2246.15
2247.46
2248.77
2250.05
2251.32
2252.58
2253.82
2255.05
2256.27
2257.47
2258.66
2259.84
2261.01
2262.16
2263.3
2264.43
2265.55
2266.65
2267.75
2268.83
2269.9
2270.96
2272.02
2273.06
2274.09
2275.11
2276.12
2277.12
2278.11
2279.09
2280.06
2281.03
2281.98
2282.92
2283.86
2284.78
2285.7
2286.6
2287.49
2288.38
2289.25
2290.12
2290.97
2291.81
2292.64
2293.46
2294.27
2295.06
2295.84
2296.61
2297.36
2298.1
2298.82
2299.57
2300.42
2301.18
2301.87
2302.53
2303.18
2303.81
2304.42
2305.02
2305.6
2306.16
2306.71
2307.24
2307.75
2308.24
2308.72
2309.18
2309.63
2310.06
2310.49
2310.9
2311.3
2311.69
2312.07
2312.45
2312.83
2313.21
2313.6
2313.99
2314.39
2314.8
2315.24
2315.69
2316.17
2316.67
2317.22
2317.79
2318.41
2319.08
2319.79
2320.56
2321.38
2322.26
2323.2
2324.18
2325.2
2326.21
2327.12
2327.74
)
;

boundaryField
{
    boundary
    {
        type            empty;
    }
    inlet
    {
        type            fixedValue;
        value           uniform 300;
    }
    outlet
    {
        type            zeroGradient;
    }
}


// ************************************************************************* //
