/*--------------------------------*- C++ -*----------------------------------*\
  =========                 |
  \\      /  F ield         | OpenFOAM: The Open Source CFD Toolbox
   \\    /   O peration     | Website:  https://openfoam.org
    \\  /    A nd           | Version:  7
     \\/     M anipulation  |
\*---------------------------------------------------------------------------*/
FoamFile
{
    version     2.0;
    format      ascii;
    class       volVectorField;
    location    "0.00064";
    object      U;
}
// * * * * * * * * * * * * * * * * * * * * * * * * * * * * * * * * * * * * * //

dimensions      [0 1 -1 0 0 0 0];

internalField   nonuniform List<vector> 
500
(
(2.34896 0 0)
(2.34908 0 0)
(2.34923 0 0)
(2.34938 0 0)
(2.34952 0 0)
(2.34966 0 0)
(2.3498 0 0)
(2.34994 0 0)
(2.35008 0 0)
(2.35022 0 0)
(2.35036 0 0)
(2.3505 0 0)
(2.35063 0 0)
(2.35077 0 0)
(2.3509 0 0)
(2.35104 0 0)
(2.35117 0 0)
(2.35131 0 0)
(2.35144 0 0)
(2.35158 0 0)
(2.35171 0 0)
(2.35185 0 0)
(2.35199 0 0)
(2.35213 0 0)
(2.35228 0 0)
(2.35242 0 0)
(2.35257 0 0)
(2.35272 0 0)
(2.35287 0 0)
(2.35303 0 0)
(2.35318 0 0)
(2.35334 0 0)
(2.3535 0 0)
(2.35366 0 0)
(2.35381 0 0)
(2.35397 0 0)
(2.35413 0 0)
(2.35428 0 0)
(2.35444 0 0)
(2.35458 0 0)
(2.35473 0 0)
(2.35487 0 0)
(2.35501 0 0)
(2.35514 0 0)
(2.35526 0 0)
(2.35539 0 0)
(2.3555 0 0)
(2.35562 0 0)
(2.35573 0 0)
(2.35583 0 0)
(2.35594 0 0)
(2.35604 0 0)
(2.35614 0 0)
(2.35624 0 0)
(2.35634 0 0)
(2.35644 0 0)
(2.35654 0 0)
(2.35664 0 0)
(2.35675 0 0)
(2.35685 0 0)
(2.35696 0 0)
(2.35707 0 0)
(2.35719 0 0)
(2.3573 0 0)
(2.35742 0 0)
(2.35753 0 0)
(2.35765 0 0)
(2.35777 0 0)
(2.3579 0 0)
(2.35802 0 0)
(2.35815 0 0)
(2.35827 0 0)
(2.3584 0 0)
(2.35853 0 0)
(2.35865 0 0)
(2.35878 0 0)
(2.35891 0 0)
(2.35904 0 0)
(2.35917 0 0)
(2.35929 0 0)
(2.35942 0 0)
(2.35955 0 0)
(2.35968 0 0)
(2.35981 0 0)
(2.35994 0 0)
(2.36007 0 0)
(2.3602 0 0)
(2.36033 0 0)
(2.36046 0 0)
(2.36059 0 0)
(2.36072 0 0)
(2.36085 0 0)
(2.36097 0 0)
(2.3611 0 0)
(2.36123 0 0)
(2.36136 0 0)
(2.36149 0 0)
(2.36162 0 0)
(2.36175 0 0)
(2.36188 0 0)
(2.36201 0 0)
(2.36214 0 0)
(2.36227 0 0)
(2.3624 0 0)
(2.36253 0 0)
(2.36266 0 0)
(2.36278 0 0)
(2.36291 0 0)
(2.36304 0 0)
(2.36317 0 0)
(2.3633 0 0)
(2.36343 0 0)
(2.36356 0 0)
(2.36369 0 0)
(2.36382 0 0)
(2.36395 0 0)
(2.36408 0 0)
(2.36421 0 0)
(2.36434 0 0)
(2.36447 0 0)
(2.3646 0 0)
(2.36473 0 0)
(2.36486 0 0)
(2.36499 0 0)
(2.36513 0 0)
(2.36527 0 0)
(2.36538 0 0)
(2.3655 0 0)
(2.36563 0 0)
(2.36577 0 0)
(2.3659 0 0)
(2.36602 0 0)
(2.36615 0 0)
(2.36628 0 0)
(2.36641 0 0)
(2.36654 0 0)
(2.36666 0 0)
(2.36679 0 0)
(2.36692 0 0)
(2.36705 0 0)
(2.36718 0 0)
(2.36731 0 0)
(2.36744 0 0)
(2.36756 0 0)
(2.36769 0 0)
(2.36782 0 0)
(2.36795 0 0)
(2.36808 0 0)
(2.36821 0 0)
(2.36834 0 0)
(2.36846 0 0)
(2.36859 0 0)
(2.36872 0 0)
(2.36885 0 0)
(2.36898 0 0)
(2.36911 0 0)
(2.36923 0 0)
(2.36936 0 0)
(2.36949 0 0)
(2.36962 0 0)
(2.36975 0 0)
(2.36988 0 0)
(2.37001 0 0)
(2.37013 0 0)
(2.37026 0 0)
(2.37039 0 0)
(2.37052 0 0)
(2.37065 0 0)
(2.37078 0 0)
(2.3709 0 0)
(2.37103 0 0)
(2.37116 0 0)
(2.37129 0 0)
(2.37142 0 0)
(2.37155 0 0)
(2.37167 0 0)
(2.3718 0 0)
(2.37193 0 0)
(2.37206 0 0)
(2.37219 0 0)
(2.37231 0 0)
(2.37244 0 0)
(2.37257 0 0)
(2.3727 0 0)
(2.37283 0 0)
(2.37295 0 0)
(2.37308 0 0)
(2.37321 0 0)
(2.37334 0 0)
(2.37347 0 0)
(2.37359 0 0)
(2.37372 0 0)
(2.37385 0 0)
(2.37398 0 0)
(2.37411 0 0)
(2.37423 0 0)
(2.37436 0 0)
(2.37449 0 0)
(2.37462 0 0)
(2.37474 0 0)
(2.37487 0 0)
(2.375 0 0)
(2.37513 0 0)
(2.37525 0 0)
(2.37538 0 0)
(2.37551 0 0)
(2.37564 0 0)
(2.37577 0 0)
(2.37589 0 0)
(2.37602 0 0)
(2.37615 0 0)
(2.37627 0 0)
(2.3764 0 0)
(2.37653 0 0)
(2.37666 0 0)
(2.37678 0 0)
(2.37691 0 0)
(2.37704 0 0)
(2.37717 0 0)
(2.37729 0 0)
(2.37742 0 0)
(2.37755 0 0)
(2.37767 0 0)
(2.3778 0 0)
(2.37793 0 0)
(2.37806 0 0)
(2.37818 0 0)
(2.37831 0 0)
(2.37844 0 0)
(2.37856 0 0)
(2.37869 0 0)
(2.37882 0 0)
(2.37894 0 0)
(2.37907 0 0)
(2.3792 0 0)
(2.37932 0 0)
(2.37945 0 0)
(2.37958 0 0)
(2.3797 0 0)
(2.37983 0 0)
(2.37996 0 0)
(2.38009 0 0)
(2.38021 0 0)
(2.38034 0 0)
(2.38047 0 0)
(2.38059 0 0)
(2.38072 0 0)
(2.38085 0 0)
(2.38097 0 0)
(2.3811 0 0)
(2.38124 0 0)
(2.38137 0 0)
(2.38148 0 0)
(2.3816 0 0)
(2.38173 0 0)
(2.38186 0 0)
(2.38199 0 0)
(2.38211 0 0)
(2.38224 0 0)
(2.38236 0 0)
(2.38249 0 0)
(2.38262 0 0)
(2.38274 0 0)
(2.38287 0 0)
(2.38299 0 0)
(2.38312 0 0)
(2.38324 0 0)
(2.38338 0 0)
(2.38355 0 0)
(2.38385 0 0)
(2.38457 0 0)
(2.38656 0 0)
(2.39229 0 0)
(2.40814 0 0)
(2.4488 0 0)
(2.54604 0 0)
(2.76863 0 0)
(3.24239 0 0)
(4.12267 0 0)
(5.29671 0 0)
(6.53152 0 0)
(7.67401 0 0)
(8.68059 0 0)
(9.54088 0 0)
(10.2526 0 0)
(10.8388 0 0)
(11.3266 0 0)
(11.723 0 0)
(12.0391 0 0)
(12.2997 0 0)
(12.5242 0 0)
(12.7216 0 0)
(12.8968 0 0)
(13.0536 0 0)
(13.1952 0 0)
(13.3239 0 0)
(13.4417 0 0)
(13.5502 0 0)
(13.6506 0 0)
(13.7438 0 0)
(13.8306 0 0)
(13.9119 0 0)
(13.9881 0 0)
(14.0598 0 0)
(14.1274 0 0)
(14.1913 0 0)
(14.2518 0 0)
(14.3092 0 0)
(14.3638 0 0)
(14.4157 0 0)
(14.4651 0 0)
(14.5123 0 0)
(14.556 0 0)
(14.597 0 0)
(14.6367 0 0)
(14.6751 0 0)
(14.7122 0 0)
(14.748 0 0)
(14.7827 0 0)
(14.8163 0 0)
(14.8489 0 0)
(14.8804 0 0)
(14.9111 0 0)
(14.9409 0 0)
(14.9698 0 0)
(14.9979 0 0)
(15.0253 0 0)
(15.0519 0 0)
(15.0779 0 0)
(15.1031 0 0)
(15.1278 0 0)
(15.1518 0 0)
(15.1753 0 0)
(15.1981 0 0)
(15.2205 0 0)
(15.2423 0 0)
(15.2637 0 0)
(15.2845 0 0)
(15.3049 0 0)
(15.3249 0 0)
(15.3444 0 0)
(15.3635 0 0)
(15.3822 0 0)
(15.4006 0 0)
(15.4186 0 0)
(15.4362 0 0)
(15.4535 0 0)
(15.4704 0 0)
(15.487 0 0)
(15.5033 0 0)
(15.5193 0 0)
(15.5351 0 0)
(15.5505 0 0)
(15.5656 0 0)
(15.5805 0 0)
(15.5952 0 0)
(15.6096 0 0)
(15.6237 0 0)
(15.6376 0 0)
(15.6513 0 0)
(15.6647 0 0)
(15.678 0 0)
(15.691 0 0)
(15.7038 0 0)
(15.7164 0 0)
(15.7288 0 0)
(15.7411 0 0)
(15.7531 0 0)
(15.765 0 0)
(15.7767 0 0)
(15.7882 0 0)
(15.7996 0 0)
(15.8108 0 0)
(15.8218 0 0)
(15.8326 0 0)
(15.8433 0 0)
(15.8539 0 0)
(15.8645 0 0)
(15.8749 0 0)
(15.8849 0 0)
(15.8949 0 0)
(15.9048 0 0)
(15.9146 0 0)
(15.9243 0 0)
(15.9338 0 0)
(15.9432 0 0)
(15.9525 0 0)
(15.9617 0 0)
(15.9707 0 0)
(15.9797 0 0)
(15.9885 0 0)
(15.9972 0 0)
(16.0059 0 0)
(16.0144 0 0)
(16.0228 0 0)
(16.0311 0 0)
(16.0394 0 0)
(16.0475 0 0)
(16.0555 0 0)
(16.0635 0 0)
(16.0714 0 0)
(16.0791 0 0)
(16.0868 0 0)
(16.0944 0 0)
(16.102 0 0)
(16.1094 0 0)
(16.1168 0 0)
(16.1241 0 0)
(16.1313 0 0)
(16.1384 0 0)
(16.1455 0 0)
(16.1525 0 0)
(16.1594 0 0)
(16.1663 0 0)
(16.1731 0 0)
(16.1798 0 0)
(16.1864 0 0)
(16.193 0 0)
(16.1995 0 0)
(16.206 0 0)
(16.2124 0 0)
(16.2187 0 0)
(16.225 0 0)
(16.2312 0 0)
(16.2374 0 0)
(16.2435 0 0)
(16.2495 0 0)
(16.2555 0 0)
(16.2615 0 0)
(16.2674 0 0)
(16.2732 0 0)
(16.279 0 0)
(16.2847 0 0)
(16.2904 0 0)
(16.296 0 0)
(16.3016 0 0)
(16.3071 0 0)
(16.3126 0 0)
(16.318 0 0)
(16.3234 0 0)
(16.3287 0 0)
(16.334 0 0)
(16.3392 0 0)
(16.3444 0 0)
(16.3496 0 0)
(16.3547 0 0)
(16.3598 0 0)
(16.3648 0 0)
(16.3697 0 0)
(16.3747 0 0)
(16.3794 0 0)
(16.3844 0 0)
(16.3895 0 0)
(16.3943 0 0)
(16.3989 0 0)
(16.4036 0 0)
(16.4082 0 0)
(16.4128 0 0)
(16.4173 0 0)
(16.4219 0 0)
(16.4263 0 0)
(16.4308 0 0)
(16.4352 0 0)
(16.4396 0 0)
(16.444 0 0)
(16.4483 0 0)
(16.4526 0 0)
(16.4568 0 0)
(16.4611 0 0)
(16.4653 0 0)
(16.4695 0 0)
(16.4736 0 0)
(16.4778 0 0)
(16.4819 0 0)
(16.486 0 0)
(16.4901 0 0)
(16.4942 0 0)
(16.4982 0 0)
(16.5023 0 0)
(16.5063 0 0)
(16.5103 0 0)
(16.5143 0 0)
(16.5183 0 0)
(16.5223 0 0)
(16.5263 0 0)
(16.5303 0 0)
(16.5343 0 0)
(16.5382 0 0)
(16.5422 0 0)
(16.5461 0 0)
(16.5501 0 0)
(16.554 0 0)
(16.5579 0 0)
(16.5617 0 0)
(16.5655 0 0)
(16.5691 0 0)
(16.5724 0 0)
(16.5753 0 0)
(16.5758 0 0)
(16.5731 0 0)
)
;

boundaryField
{
    boundary
    {
        type            empty;
    }
    inlet
    {
        type            fixedValue;
        value           uniform (2.34893 0 0);
    }
    outlet
    {
        type            zeroGradient;
    }
}


// ************************************************************************* //
