/*--------------------------------*- C++ -*----------------------------------*\
  =========                 |
  \\      /  F ield         | OpenFOAM: The Open Source CFD Toolbox
   \\    /   O peration     | Website:  https://openfoam.org
    \\  /    A nd           | Version:  7
     \\/     M anipulation  |
\*---------------------------------------------------------------------------*/
FoamFile
{
    version     2.0;
    format      ascii;
    class       volScalarField;
    location    "0.00038";
    object      H2O2;
}
// * * * * * * * * * * * * * * * * * * * * * * * * * * * * * * * * * * * * * //

dimensions      [0 0 0 0 0 0 0];

internalField   nonuniform List<scalar> 
125
(
2.00005e-52
6.4331e-52
1.28066e-51
2.11356e-51
3.14407e-51
4.37504e-51
5.81041e-51
7.45553e-51
9.3174e-51
1.1405e-50
1.37291e-50
1.63026e-50
1.91396e-50
2.22549e-50
2.56628e-50
2.93751e-50
3.33997e-50
3.77377e-50
4.23819e-50
4.73142e-50
5.25043e-50
5.79091e-50
6.34731e-50
6.91292e-50
7.48019e-50
8.04107e-50
8.58737e-50
9.11127e-50
9.60571e-50
1.00648e-49
1.0484e-49
1.08604e-49
1.11927e-49
1.14812e-49
1.17274e-49
1.19341e-49
1.21047e-49
1.22433e-49
1.2354e-49
1.2441e-49
1.25083e-49
1.25596e-49
1.25982e-49
1.26266e-49
1.26474e-49
1.26623e-49
1.26728e-49
1.26802e-49
1.26852e-49
1.26887e-49
1.2691e-49
1.26925e-49
1.26936e-49
1.26942e-49
1.26946e-49
1.26949e-49
1.26951e-49
1.26952e-49
1.26953e-49
1.26954e-49
1.26954e-49
1.26955e-49
1.26955e-49
1.26955e-49
1.26956e-49
1.26957e-49
1.26957e-49
1.26958e-49
1.26959e-49
1.26959e-49
1.2696e-49
1.26961e-49
1.26962e-49
1.26963e-49
1.26964e-49
1.26965e-49
1.26967e-49
1.26968e-49
1.2697e-49
1.26971e-49
1.26973e-49
1.26975e-49
1.26976e-49
1.26978e-49
1.26981e-49
1.26983e-49
1.26985e-49
1.26988e-49
1.2699e-49
1.26993e-49
1.26996e-49
1.26999e-49
1.27002e-49
1.27005e-49
1.27009e-49
1.27012e-49
1.27016e-49
1.2702e-49
1.27024e-49
1.27028e-49
1.27033e-49
1.27037e-49
1.27042e-49
1.27047e-49
1.27052e-49
1.27057e-49
1.27063e-49
1.27068e-49
1.27074e-49
1.2708e-49
1.27087e-49
1.27093e-49
1.271e-49
1.27106e-49
1.27113e-49
1.27121e-49
1.27128e-49
1.27136e-49
1.27143e-49
1.27151e-49
1.27159e-49
1.27165e-49
1.2716e-49
1.27103e-49
1.26809e-49
)
;

boundaryField
{
    boundary
    {
        type            empty;
    }
    inlet
    {
        type            fixedValue;
        value           uniform 0;
    }
    outlet
    {
        type            zeroGradient;
    }
    procBoundary2to3
    {
        type            processor;
        value           uniform 1.26216e-49;
    }
}


// ************************************************************************* //
