/*--------------------------------*- C++ -*----------------------------------*\
  =========                 |
  \\      /  F ield         | OpenFOAM: The Open Source CFD Toolbox
   \\    /   O peration     | Website:  https://openfoam.org
    \\  /    A nd           | Version:  7
     \\/     M anipulation  |
\*---------------------------------------------------------------------------*/
FoamFile
{
    version     2.0;
    format      ascii;
    class       volScalarField;
    location    "5e-05";
    object      H2O2;
}
// * * * * * * * * * * * * * * * * * * * * * * * * * * * * * * * * * * * * * //

dimensions      [0 0 0 0 0 0 0];

internalField   nonuniform List<scalar> 
125
(
2.48343e-34
4.0185e-33
6.37716e-32
9.97684e-31
1.53761e-29
2.33252e-28
3.47968e-27
5.1e-26
7.33614e-25
1.03454e-23
1.42854e-22
1.92901e-21
2.54369e-20
3.27054e-19
4.09335e-18
4.97801e-17
5.87073e-16
6.69959e-15
7.38073e-14
7.82939e-13
7.97482e-12
7.77623e-11
7.23542e-10
6.40079e-09
5.35813e-08
4.20462e-07
3.0103e-06
1.80616e-05
7.21743e-05
0.000135724
0.000146815
9.72782e-05
4.40488e-05
1.67507e-05
6.9907e-06
4.34971e-06
4.07947e-06
4.48971e-06
4.9868e-06
5.36655e-06
5.57714e-06
5.62549e-06
5.53651e-06
5.33734e-06
5.05295e-06
4.70611e-06
4.31823e-06
3.90958e-06
3.49861e-06
3.1009e-06
2.72824e-06
2.38827e-06
2.0848e-06
1.81852e-06
1.58786e-06
1.38991e-06
1.22107e-06
1.07758e-06
9.55794e-07
8.52427e-07
7.64582e-07
6.92002e-07
6.30646e-07
5.77408e-07
5.31062e-07
4.90581e-07
4.55107e-07
4.23927e-07
3.96443e-07
3.72156e-07
3.50649e-07
3.31571e-07
3.14625e-07
2.99562e-07
2.86168e-07
2.74261e-07
2.6368e-07
2.54288e-07
2.45961e-07
2.38592e-07
2.32084e-07
2.26347e-07
2.21303e-07
2.16879e-07
2.13009e-07
2.09634e-07
2.06697e-07
2.0415e-07
2.01947e-07
2.00047e-07
1.98413e-07
1.97011e-07
1.95813e-07
1.94791e-07
1.93922e-07
1.93184e-07
1.92561e-07
1.92035e-07
1.91592e-07
1.9122e-07
1.90909e-07
1.90649e-07
1.90432e-07
1.90252e-07
1.90102e-07
1.89978e-07
1.89876e-07
1.89791e-07
1.89721e-07
1.89663e-07
1.89615e-07
1.89576e-07
1.89543e-07
1.89516e-07
1.89494e-07
1.89475e-07
1.89459e-07
1.89446e-07
1.89434e-07
1.89425e-07
1.89416e-07
1.89408e-07
1.89401e-07
1.89394e-07
1.89389e-07
)
;

boundaryField
{
    boundary
    {
        type            empty;
    }
    inlet
    {
        type            fixedValue;
        value           nonuniform 0();
    }
    outlet
    {
        type            zeroGradient;
    }
    procBoundary1to0
    {
        type            processor;
        value           uniform 1.89384e-07;
    }
    procBoundary1to3
    {
        type            processor;
        value           uniform 1.00009e-35;
    }
}


// ************************************************************************* //
