/*--------------------------------*- C++ -*----------------------------------*\
  =========                 |
  \\      /  F ield         | OpenFOAM: The Open Source CFD Toolbox
   \\    /   O peration     | Website:  https://openfoam.org
    \\  /    A nd           | Version:  7
     \\/     M anipulation  |
\*---------------------------------------------------------------------------*/
FoamFile
{
    version     2.0;
    format      ascii;
    class       volScalarField;
    location    "5e-05";
    object      HO2;
}
// * * * * * * * * * * * * * * * * * * * * * * * * * * * * * * * * * * * * * //

dimensions      [0 0 0 0 0 0 0];

internalField   nonuniform List<scalar> 
125
(
3.52984e-25
1.96961e-24
1.08804e-23
6.02007e-23
3.33888e-22
1.85637e-21
1.03477e-20
5.78439e-20
3.24459e-19
1.82796e-18
1.03595e-17
5.9192e-17
3.42073e-16
2.0075e-15
1.2018e-14
7.37002e-14
4.64187e-13
3.00177e-12
1.9848e-11
1.33073e-10
8.93321e-10
5.90441e-09
3.77854e-08
2.30409e-07
1.32507e-06
7.05005e-06
3.33348e-05
0.000129722
0.000356308
0.000534852
0.00050049
0.000389192
0.000276206
0.000191556
0.000132515
9.13336e-05
6.29144e-05
4.38875e-05
3.14387e-05
2.33151e-05
1.79242e-05
1.42362e-05
1.16171e-05
9.68368e-06
8.20472e-06
7.0387e-06
6.0973e-06
5.32389e-06
4.68108e-06
4.14336e-06
3.69256e-06
3.31514e-06
3.00047e-06
2.73977e-06
2.52549e-06
2.35095e-06
2.2101e-06
2.0975e-06
2.00826e-06
1.93808e-06
1.88319e-06
1.8417e-06
1.80953e-06
1.78404e-06
1.7638e-06
1.74768e-06
1.73483e-06
1.7246e-06
1.71649e-06
1.71015e-06
1.70528e-06
1.70168e-06
1.69917e-06
1.69758e-06
1.6968e-06
1.69669e-06
1.69713e-06
1.69802e-06
1.69926e-06
1.70076e-06
1.70243e-06
1.70422e-06
1.70604e-06
1.70787e-06
1.70965e-06
1.71136e-06
1.71297e-06
1.71447e-06
1.71586e-06
1.71712e-06
1.71826e-06
1.71928e-06
1.72019e-06
1.72099e-06
1.72169e-06
1.72231e-06
1.72284e-06
1.72331e-06
1.72371e-06
1.72405e-06
1.72435e-06
1.7246e-06
1.72482e-06
1.725e-06
1.72516e-06
1.7253e-06
1.72541e-06
1.72551e-06
1.7256e-06
1.72567e-06
1.72574e-06
1.7258e-06
1.72585e-06
1.72589e-06
1.72593e-06
1.72597e-06
1.726e-06
1.72603e-06
1.72606e-06
1.72608e-06
1.72611e-06
1.72613e-06
1.72615e-06
1.72614e-06
1.726e-06
)
;

boundaryField
{
    boundary
    {
        type            empty;
    }
    inlet
    {
        type            fixedValue;
        value           nonuniform 0();
    }
    outlet
    {
        type            zeroGradient;
    }
    procBoundary1to0
    {
        type            processor;
        value           uniform 1.72593e-06;
    }
    procBoundary1to3
    {
        type            processor;
        value           uniform 5.84978e-26;
    }
}


// ************************************************************************* //
