/*--------------------------------*- C++ -*----------------------------------*\
  =========                 |
  \\      /  F ield         | OpenFOAM: The Open Source CFD Toolbox
   \\    /   O peration     | Website:  https://openfoam.org
    \\  /    A nd           | Version:  7
     \\/     M anipulation  |
\*---------------------------------------------------------------------------*/
FoamFile
{
    version     2.0;
    format      ascii;
    class       volScalarField;
    location    "5e-05";
    object      p;
}
// * * * * * * * * * * * * * * * * * * * * * * * * * * * * * * * * * * * * * //

dimensions      [1 -1 -2 0 0 0 0];

internalField   nonuniform List<scalar> 
125
(
102549
102548
102547
102546
102545
102544
102543
102541
102540
102539
102538
102536
102535
102533
102532
102530
102529
102527
102525
102523
102521
102519
102517
102515
102513
102511
102509
102506
102504
102501
102499
102497
102495
102492
102490
102489
102487
102486
102485
102484
102483
102482
102482
102481
102481
102481
102480
102480
102479
102479
102479
102478
102478
102478
102477
102477
102476
102476
102476
102475
102475
102474
102474
102474
102473
102473
102472
102472
102472
102471
102471
102470
102470
102469
102469
102468
102468
102467
102467
102466
102466
102465
102464
102464
102463
102463
102462
102461
102461
102460
102460
102459
102458
102458
102457
102456
102456
102455
102454
102453
102453
102452
102451
102451
102450
102449
102448
102448
102447
102446
102445
102444
102444
102443
102442
102441
102441
102440
102439
102438
102437
102436
102436
102435
102434
)
;

boundaryField
{
    boundary
    {
        type            empty;
    }
    inlet
    {
        type            zeroGradient;
    }
    outlet
    {
        type            waveTransmissive;
        gamma           1.4;
        value           nonuniform 0();
    }
    procBoundary1to0
    {
        type            processor;
        value           uniform 102433;
    }
    procBoundary1to3
    {
        type            processor;
        value           uniform 102550;
    }
}


// ************************************************************************* //
