/*--------------------------------*- C++ -*----------------------------------*\
  =========                 |
  \\      /  F ield         | OpenFOAM: The Open Source CFD Toolbox
   \\    /   O peration     | Website:  https://openfoam.org
    \\  /    A nd           | Version:  7
     \\/     M anipulation  |
\*---------------------------------------------------------------------------*/
FoamFile
{
    version     2.0;
    format      ascii;
    class       surfaceScalarField;
    location    "5e-05";
    object      phi;
}
// * * * * * * * * * * * * * * * * * * * * * * * * * * * * * * * * * * * * * //

dimensions      [1 0 -1 0 0 0 0];

internalField   nonuniform List<scalar> 
124
(
4.22495e-06
4.22214e-06
4.21926e-06
4.21633e-06
4.21336e-06
4.21037e-06
4.20738e-06
4.20442e-06
4.20149e-06
4.19864e-06
4.19588e-06
4.19324e-06
4.19076e-06
4.18845e-06
4.18633e-06
4.18445e-06
4.1828e-06
4.1814e-06
4.18027e-06
4.17938e-06
4.17872e-06
4.17826e-06
4.17799e-06
4.17813e-06
4.18018e-06
4.19094e-06
4.23694e-06
4.40323e-06
4.82348e-06
5.36218e-06
5.74606e-06
5.95854e-06
6.06957e-06
6.12984e-06
6.16384e-06
6.18296e-06
6.1928e-06
6.19618e-06
6.19379e-06
6.18472e-06
6.16745e-06
6.14058e-06
6.10326e-06
6.05534e-06
5.99735e-06
5.93039e-06
5.856e-06
5.77595e-06
5.69218e-06
5.60658e-06
5.52092e-06
5.4368e-06
5.35557e-06
5.27834e-06
5.20595e-06
5.13902e-06
5.07794e-06
5.02292e-06
4.97398e-06
4.931e-06
4.89377e-06
4.86368e-06
4.83804e-06
4.81654e-06
4.79882e-06
4.78453e-06
4.77329e-06
4.76473e-06
4.75847e-06
4.75416e-06
4.75147e-06
4.7501e-06
4.74977e-06
4.75023e-06
4.75126e-06
4.75268e-06
4.75433e-06
4.75607e-06
4.75781e-06
4.75945e-06
4.76094e-06
4.76222e-06
4.76327e-06
4.76406e-06
4.76459e-06
4.76485e-06
4.76484e-06
4.76458e-06
4.76408e-06
4.76334e-06
4.76239e-06
4.76124e-06
4.75991e-06
4.75841e-06
4.75676e-06
4.75498e-06
4.75307e-06
4.75105e-06
4.74893e-06
4.74672e-06
4.74444e-06
4.74208e-06
4.73966e-06
4.73719e-06
4.73467e-06
4.7321e-06
4.72949e-06
4.72684e-06
4.72416e-06
4.72145e-06
4.71871e-06
4.71594e-06
4.71315e-06
4.71034e-06
4.7075e-06
4.70465e-06
4.70177e-06
4.69887e-06
4.69596e-06
4.69302e-06
4.69007e-06
4.6871e-06
4.68411e-06
4.6811e-06
)
;

boundaryField
{
    boundary
    {
        type            empty;
        value           nonuniform 0();
    }
    inlet
    {
        type            calculated;
        value           nonuniform 0();
    }
    outlet
    {
        type            calculated;
        value           nonuniform 0();
    }
    procBoundary1to0
    {
        type            processor;
        value           uniform 4.67808e-06;
    }
    procBoundary1to3
    {
        type            processor;
        value           uniform -4.22765e-06;
    }
}


// ************************************************************************* //
