/*--------------------------------*- C++ -*----------------------------------*\
  =========                 |
  \\      /  F ield         | OpenFOAM: The Open Source CFD Toolbox
   \\    /   O peration     | Website:  https://openfoam.org
    \\  /    A nd           | Version:  7
     \\/     M anipulation  |
\*---------------------------------------------------------------------------*/
FoamFile
{
    version     2.0;
    format      ascii;
    class       volScalarField;
    location    "5e-05";
    object      Qdot;
}
// * * * * * * * * * * * * * * * * * * * * * * * * * * * * * * * * * * * * * //

dimensions      [1 -1 -3 0 0 0 0];

internalField   nonuniform List<scalar> 
125
(
1.02549e-14
5.92415e-14
3.47831e-13
2.04349e-12
1.20094e-11
7.06121e-11
4.15457e-10
2.44651e-09
1.44217e-08
8.51064e-08
5.02717e-07
2.97075e-06
1.75423e-05
0.000103294
0.000604456
0.00349712
0.0198562
0.109516
0.57923
2.90484
14.051
81.9444
621.608
5757.6
46836.6
427313
4.25315e+06
4.42561e+07
4.1272e+08
2.55949e+09
7.9023e+09
1.22473e+10
1.30883e+10
1.28485e+10
1.25317e+10
1.17837e+10
1.03548e+10
8.59478e+09
6.92624e+09
5.53648e+09
4.43889e+09
3.58384e+09
2.91468e+09
2.38505e+09
1.96071e+09
1.61709e+09
1.33656e+09
1.10624e+09
9.16421e+08
7.59656e+08
6.30019e+08
5.22742e+08
4.3392e+08
3.60308e+08
2.99276e+08
2.48625e+08
2.06513e+08
1.71463e+08
1.4226e+08
1.17908e+08
9.76421e+07
8.11253e+07
6.73707e+07
5.57004e+07
4.58462e+07
3.75247e+07
3.0508e+07
2.46051e+07
1.96501e+07
1.5511e+07
1.20673e+07
9.21737e+06
6.87603e+06
4.96346e+06
3.41404e+06
2.17286e+06
1.19092e+06
421811
-168992
-611483
-945426
-1.17102e+06
-1.32879e+06
-1.42373e+06
-1.47316e+06
-1.48786e+06
-1.47629e+06
-1.44565e+06
-1.40157e+06
-1.34871e+06
-1.28985e+06
-1.23101e+06
-1.16746e+06
-1.10712e+06
-1.04937e+06
-994202
-942993
-895593
-852331
-813340
-778260
-747142
-719583
-695380
-674063
-656266
-640698
-627411
-615474
-606865
-598797
-592550
-587162
-582868
-579478
-576852
-574896
-573556
-572835
-572845
-573931
-576962
-584096
-600955
-641357
)
;

boundaryField
{
    boundary
    {
        type            empty;
    }
    inlet
    {
        type            calculated;
        value           nonuniform 0();
    }
    outlet
    {
        type            calculated;
        value           nonuniform 0();
    }
    procBoundary1to0
    {
        type            processor;
        value           uniform 0;
    }
    procBoundary1to3
    {
        type            processor;
        value           uniform 0;
    }
}


// ************************************************************************* //
