/*--------------------------------*- C++ -*----------------------------------*\
  =========                 |
  \\      /  F ield         | OpenFOAM: The Open Source CFD Toolbox
   \\    /   O peration     | Website:  https://openfoam.org
    \\  /    A nd           | Version:  7
     \\/     M anipulation  |
\*---------------------------------------------------------------------------*/
FoamFile
{
    version     2.0;
    format      ascii;
    class       volScalarField;
    location    "5e-05";
    object      T;
}
// * * * * * * * * * * * * * * * * * * * * * * * * * * * * * * * * * * * * * //

dimensions      [0 0 0 1 0 0 0];

internalField   nonuniform List<scalar> 
125
(
300.851
300.847
300.843
300.838
300.833
300.828
300.823
300.818
300.813
300.807
300.802
300.796
300.791
300.785
300.779
300.773
300.766
300.76
300.754
300.747
300.74
300.735
300.733
300.75
300.855
301.336
303.377
311.586
340.864
418.33
551.796
712.178
870.765
1018.39
1152.58
1269.3
1366.16
1444.69
1508.82
1562.73
1609.88
1652.87
1693.54
1733.1
1772.3
1811.52
1850.88
1890.3
1929.57
1968.4
2006.43
2043.32
2078.75
2112.43
2144.12
2173.63
2200.85
2225.71
2248.2
2268.36
2286.26
2301.56
2314.73
2326.31
2336.38
2345.09
2352.57
2358.95
2364.36
2368.92
2372.74
2375.93
2378.59
2380.79
2382.6
2384.11
2385.35
2386.37
2387.22
2387.92
2388.5
2388.99
2389.39
2389.74
2390.03
2390.27
2390.49
2390.67
2390.82
2390.96
2391.08
2391.18
2391.27
2391.35
2391.42
2391.48
2391.53
2391.58
2391.62
2391.65
2391.68
2391.71
2391.74
2391.76
2391.78
2391.8
2391.81
2391.83
2391.84
2391.85
2391.86
2391.87
2391.88
2391.89
2391.9
2391.91
2391.92
2391.92
2391.93
2391.94
2391.94
2391.95
2391.95
2391.96
2391.97
)
;

boundaryField
{
    boundary
    {
        type            empty;
    }
    inlet
    {
        type            fixedValue;
        value           nonuniform 0();
    }
    outlet
    {
        type            zeroGradient;
    }
    procBoundary1to0
    {
        type            processor;
        value           uniform 2391.97;
    }
    procBoundary1to3
    {
        type            processor;
        value           uniform 300.856;
    }
}


// ************************************************************************* //
