/*--------------------------------*- C++ -*----------------------------------*\
  =========                 |
  \\      /  F ield         | OpenFOAM: The Open Source CFD Toolbox
   \\    /   O peration     | Website:  https://openfoam.org
    \\  /    A nd           | Version:  7
     \\/     M anipulation  |
\*---------------------------------------------------------------------------*/
FoamFile
{
    version     2.0;
    format      ascii;
    class       volVectorField;
    location    "5e-05";
    object      U;
}
// * * * * * * * * * * * * * * * * * * * * * * * * * * * * * * * * * * * * * //

dimensions      [0 1 -1 0 0 0 0];

internalField   nonuniform List<vector> 
125
(
(1.44458 0 0)
(1.44372 0 0)
(1.44273 0 0)
(1.44169 0 0)
(1.44064 0 0)
(1.43968 0 0)
(1.43862 0 0)
(1.43755 0 0)
(1.43656 0 0)
(1.43558 0 0)
(1.43461 0 0)
(1.43367 0 0)
(1.43278 0 0)
(1.43195 0 0)
(1.4312 0 0)
(1.43049 0 0)
(1.42994 0 0)
(1.42939 0 0)
(1.42892 0 0)
(1.42859 0 0)
(1.42833 0 0)
(1.42812 0 0)
(1.42803 0 0)
(1.42801 0 0)
(1.4285 0 0)
(1.43172 0 0)
(1.44809 0 0)
(1.51205 0 0)
(1.70813 0 0)
(2.17258 0 0)
(3.0634 0 0)
(4.22719 0 0)
(5.41914 0 0)
(6.49133 0 0)
(7.41234 0 0)
(8.18769 0 0)
(8.82381 0 0)
(9.33356 0 0)
(9.74005 0 0)
(10.0687 0 0)
(10.34 0 0)
(10.5677 0 0)
(10.7605 0 0)
(10.9238 0 0)
(11.0614 0 0)
(11.1758 0 0)
(11.269 0 0)
(11.3428 0 0)
(11.399 0 0)
(11.439 0 0)
(11.4651 0 0)
(11.4789 0 0)
(11.4819 0 0)
(11.4763 0 0)
(11.4632 0 0)
(11.4458 0 0)
(11.4245 0 0)
(11.4009 0 0)
(11.3763 0 0)
(11.3515 0 0)
(11.3274 0 0)
(11.3057 0 0)
(11.2864 0 0)
(11.2688 0 0)
(11.2533 0 0)
(11.2399 0 0)
(11.2286 0 0)
(11.2191 0 0)
(11.2115 0 0)
(11.2055 0 0)
(11.2009 0 0)
(11.1975 0 0)
(11.1951 0 0)
(11.1936 0 0)
(11.1926 0 0)
(11.1921 0 0)
(11.1918 0 0)
(11.1917 0 0)
(11.1916 0 0)
(11.1914 0 0)
(11.191 0 0)
(11.1904 0 0)
(11.1895 0 0)
(11.1883 0 0)
(11.1868 0 0)
(11.185 0 0)
(11.1828 0 0)
(11.1803 0 0)
(11.1774 0 0)
(11.1743 0 0)
(11.1708 0 0)
(11.1671 0 0)
(11.1631 0 0)
(11.1588 0 0)
(11.1544 0 0)
(11.1497 0 0)
(11.1448 0 0)
(11.1398 0 0)
(11.1346 0 0)
(11.1292 0 0)
(11.1237 0 0)
(11.1181 0 0)
(11.1124 0 0)
(11.1066 0 0)
(11.1007 0 0)
(11.0948 0 0)
(11.0887 0 0)
(11.0826 0 0)
(11.0764 0 0)
(11.0701 0 0)
(11.0638 0 0)
(11.0574 0 0)
(11.051 0 0)
(11.0445 0 0)
(11.038 0 0)
(11.0314 0 0)
(11.0248 0 0)
(11.0181 0 0)
(11.0114 0 0)
(11.0047 0 0)
(10.9979 0 0)
(10.991 0 0)
(10.9842 0 0)
(10.9772 0 0)
(10.9705 0 0)
)
;

boundaryField
{
    boundary
    {
        type            empty;
    }
    inlet
    {
        type            fixedValue;
        value           nonuniform 0();
    }
    outlet
    {
        type            zeroGradient;
    }
    procBoundary1to0
    {
        type            processor;
        value           uniform (10.9632 0 0);
    }
    procBoundary1to3
    {
        type            processor;
        value           uniform (1.44547 0 0);
    }
}


// ************************************************************************* //
