/*--------------------------------*- C++ -*----------------------------------*\
  =========                 |
  \\      /  F ield         | OpenFOAM: The Open Source CFD Toolbox
   \\    /   O peration     | Website:  https://openfoam.org
    \\  /    A nd           | Version:  7
     \\/     M anipulation  |
\*---------------------------------------------------------------------------*/
FoamFile
{
    version     2.0;
    format      ascii;
    class       volScalarField;
    location    "0.0002";
    object      H2O;
}
// * * * * * * * * * * * * * * * * * * * * * * * * * * * * * * * * * * * * * //

dimensions      [0 0 0 0 0 0 0];

internalField   nonuniform List<scalar> 
125
(
8.01897e-48
2.3365e-47
4.24588e-47
6.44101e-47
8.86744e-47
1.1492e-46
1.42923e-46
1.72477e-46
2.0332e-46
2.3508e-46
2.67252e-46
2.99203e-46
3.30224e-46
3.59593e-46
3.86657e-46
4.109e-46
4.31991e-46
4.49805e-46
4.64412e-46
4.76041e-46
4.85034e-46
4.91793e-46
4.96733e-46
5.00245e-46
5.02678e-46
5.04319e-46
5.05399e-46
5.06093e-46
5.06527e-46
5.06793e-46
5.06952e-46
5.07044e-46
5.07097e-46
5.07126e-46
5.07141e-46
5.07149e-46
5.07152e-46
5.07153e-46
5.07153e-46
5.07152e-46
5.07151e-46
5.07149e-46
5.07148e-46
5.07147e-46
5.07146e-46
5.07144e-46
5.07143e-46
5.07142e-46
5.07141e-46
5.0714e-46
5.0714e-46
5.07139e-46
5.07139e-46
5.07138e-46
5.07138e-46
5.07138e-46
5.07139e-46
5.07139e-46
5.0714e-46
5.07141e-46
5.07142e-46
5.07143e-46
5.07145e-46
5.07147e-46
5.07149e-46
5.07151e-46
5.07154e-46
5.07157e-46
5.07161e-46
5.07165e-46
5.07169e-46
5.07173e-46
5.07178e-46
5.07184e-46
5.07189e-46
5.07196e-46
5.07202e-46
5.07209e-46
5.07217e-46
5.07225e-46
5.07233e-46
5.07242e-46
5.07252e-46
5.07262e-46
5.07273e-46
5.07284e-46
5.07296e-46
5.07308e-46
5.07321e-46
5.07334e-46
5.07348e-46
5.07363e-46
5.07378e-46
5.07394e-46
5.07411e-46
5.07428e-46
5.07446e-46
5.07464e-46
5.07484e-46
5.07503e-46
5.07524e-46
5.07545e-46
5.07567e-46
5.0759e-46
5.07613e-46
5.07637e-46
5.07661e-46
5.07687e-46
5.07713e-46
5.07739e-46
5.07766e-46
5.07794e-46
5.07823e-46
5.07852e-46
5.07882e-46
5.07913e-46
5.07944e-46
5.07975e-46
5.08007e-46
5.08039e-46
5.08069e-46
5.08094e-46
5.08109e-46
5.08101e-46
5.08099e-46
)
;

boundaryField
{
    boundary
    {
        type            empty;
    }
    inlet
    {
        type            fixedValue;
        value           uniform 0;
    }
    outlet
    {
        type            zeroGradient;
    }
    procBoundary2to3
    {
        type            processor;
        value           uniform 5.08198e-46;
    }
}


// ************************************************************************* //
