/*--------------------------------*- C++ -*----------------------------------*\
  =========                 |
  \\      /  F ield         | OpenFOAM: The Open Source CFD Toolbox
   \\    /   O peration     | Website:  https://openfoam.org
    \\  /    A nd           | Version:  7
     \\/     M anipulation  |
\*---------------------------------------------------------------------------*/
FoamFile
{
    version     2.0;
    format      ascii;
    class       volScalarField;
    location    "0.0002";
    object      HO2;
}
// * * * * * * * * * * * * * * * * * * * * * * * * * * * * * * * * * * * * * //

dimensions      [0 0 0 0 0 0 0];

internalField   nonuniform List<scalar> 
125
(
5.62687e-38
1.28783e-37
2.02683e-37
2.78182e-37
3.55617e-37
4.35274e-37
5.17292e-37
6.01572e-37
6.87689e-37
7.74822e-37
8.61739e-37
9.46872e-37
1.02846e-36
1.10476e-36
1.17423e-36
1.23572e-36
1.28859e-36
1.33274e-36
1.36852e-36
1.39667e-36
1.4182e-36
1.43419e-36
1.44574e-36
1.45387e-36
1.45943e-36
1.46314e-36
1.46556e-36
1.46709e-36
1.46804e-36
1.46862e-36
1.46896e-36
1.46916e-36
1.46927e-36
1.46933e-36
1.46936e-36
1.46938e-36
1.46939e-36
1.46939e-36
1.46939e-36
1.46939e-36
1.46939e-36
1.46939e-36
1.46939e-36
1.46939e-36
1.46939e-36
1.46939e-36
1.46938e-36
1.46938e-36
1.46938e-36
1.46938e-36
1.46939e-36
1.46939e-36
1.46939e-36
1.46939e-36
1.46939e-36
1.46939e-36
1.4694e-36
1.4694e-36
1.4694e-36
1.46941e-36
1.46941e-36
1.46942e-36
1.46942e-36
1.46943e-36
1.46944e-36
1.46945e-36
1.46946e-36
1.46947e-36
1.46948e-36
1.46949e-36
1.4695e-36
1.46951e-36
1.46952e-36
1.46954e-36
1.46956e-36
1.46957e-36
1.46959e-36
1.46961e-36
1.46963e-36
1.46965e-36
1.46967e-36
1.46969e-36
1.46972e-36
1.46974e-36
1.46977e-36
1.4698e-36
1.46982e-36
1.46985e-36
1.46989e-36
1.46992e-36
1.46995e-36
1.46999e-36
1.47003e-36
1.47006e-36
1.4701e-36
1.47015e-36
1.47019e-36
1.47023e-36
1.47028e-36
1.47033e-36
1.47037e-36
1.47042e-36
1.47048e-36
1.47053e-36
1.47058e-36
1.47064e-36
1.4707e-36
1.47076e-36
1.47082e-36
1.47088e-36
1.47095e-36
1.47101e-36
1.47108e-36
1.47115e-36
1.47122e-36
1.47129e-36
1.47136e-36
1.47143e-36
1.47151e-36
1.47158e-36
1.47164e-36
1.47165e-36
1.47145e-36
1.47049e-36
1.46686e-36
)
;

boundaryField
{
    boundary
    {
        type            empty;
    }
    inlet
    {
        type            fixedValue;
        value           uniform 0;
    }
    outlet
    {
        type            zeroGradient;
    }
    procBoundary2to3
    {
        type            processor;
        value           uniform 1.4601e-36;
    }
}


// ************************************************************************* //
