/*--------------------------------*- C++ -*----------------------------------*\
  =========                 |
  \\      /  F ield         | OpenFOAM: The Open Source CFD Toolbox
   \\    /   O peration     | Website:  https://openfoam.org
    \\  /    A nd           | Version:  7
     \\/     M anipulation  |
\*---------------------------------------------------------------------------*/
FoamFile
{
    version     2.0;
    format      ascii;
    class       surfaceScalarField;
    location    "0.0008";
    object      phi;
}
// * * * * * * * * * * * * * * * * * * * * * * * * * * * * * * * * * * * * * //

dimensions      [1 0 -1 0 0 0 0];

internalField   nonuniform List<scalar> 
124
(
6.93014e-06
6.93007e-06
6.92999e-06
6.92993e-06
6.92987e-06
6.92983e-06
6.9298e-06
6.92979e-06
6.9298e-06
6.92981e-06
6.92985e-06
6.92989e-06
6.92994e-06
6.92999e-06
6.93005e-06
6.9301e-06
6.93015e-06
6.93018e-06
6.9302e-06
6.93021e-06
6.9302e-06
6.93017e-06
6.93012e-06
6.93005e-06
6.92996e-06
6.92985e-06
6.92973e-06
6.92958e-06
6.92942e-06
6.92924e-06
6.92903e-06
6.9288e-06
6.92855e-06
6.92827e-06
6.92796e-06
6.92762e-06
6.92724e-06
6.92682e-06
6.92635e-06
6.92583e-06
6.92526e-06
6.92463e-06
6.92395e-06
6.9232e-06
6.9224e-06
6.92153e-06
6.9206e-06
6.91961e-06
6.91856e-06
6.91747e-06
6.91632e-06
6.91513e-06
6.91392e-06
6.91267e-06
6.91141e-06
6.91014e-06
6.90887e-06
6.90761e-06
6.90638e-06
6.90517e-06
6.90399e-06
6.90286e-06
6.90177e-06
6.90074e-06
6.89977e-06
6.89886e-06
6.89801e-06
6.89722e-06
6.8965e-06
6.89584e-06
6.89524e-06
6.8947e-06
6.89422e-06
6.89378e-06
6.89339e-06
6.89305e-06
6.89275e-06
6.89248e-06
6.89224e-06
6.89204e-06
6.89185e-06
6.89169e-06
6.89155e-06
6.89143e-06
6.89131e-06
6.89121e-06
6.89112e-06
6.89104e-06
6.89096e-06
6.89089e-06
6.89082e-06
6.89075e-06
6.89069e-06
6.89063e-06
6.89057e-06
6.89051e-06
6.89046e-06
6.8904e-06
6.89035e-06
6.89029e-06
6.89024e-06
6.89018e-06
6.89013e-06
6.89008e-06
6.89002e-06
6.88997e-06
6.88991e-06
6.88986e-06
6.88981e-06
6.88975e-06
6.8897e-06
6.88964e-06
6.88959e-06
6.88953e-06
6.88948e-06
6.88942e-06
6.88937e-06
6.88932e-06
6.88926e-06
6.88921e-06
6.88915e-06
6.88909e-06
6.88904e-06
6.88898e-06
)
;

boundaryField
{
    boundary
    {
        type            empty;
        value           nonuniform 0();
    }
    inlet
    {
        type            calculated;
        value           uniform -6.93022e-06;
    }
    outlet
    {
        type            calculated;
        value           nonuniform 0();
    }
    procBoundary2to3
    {
        type            processor;
        value           uniform 6.88893e-06;
    }
}


// ************************************************************************* //
