/*--------------------------------*- C++ -*----------------------------------*\
  =========                 |
  \\      /  F ield         | OpenFOAM: The Open Source CFD Toolbox
   \\    /   O peration     | Website:  https://openfoam.org
    \\  /    A nd           | Version:  7
     \\/     M anipulation  |
\*---------------------------------------------------------------------------*/
FoamFile
{
    version     2.0;
    format      ascii;
    class       volVectorField;
    location    "0.00066";
    object      U;
}
// * * * * * * * * * * * * * * * * * * * * * * * * * * * * * * * * * * * * * //

dimensions      [0 1 -1 0 0 0 0];

internalField   nonuniform List<vector> 
126
(
(2.35722 0 0)
(2.35727 0 0)
(2.35733 0 0)
(2.3574 0 0)
(2.35748 0 0)
(2.35755 0 0)
(2.35761 0 0)
(2.35768 0 0)
(2.35775 0 0)
(2.35782 0 0)
(2.35789 0 0)
(2.35795 0 0)
(2.35802 0 0)
(2.35809 0 0)
(2.35816 0 0)
(2.35822 0 0)
(2.35829 0 0)
(2.35836 0 0)
(2.35843 0 0)
(2.35849 0 0)
(2.35856 0 0)
(2.35863 0 0)
(2.35869 0 0)
(2.35876 0 0)
(2.35882 0 0)
(2.35889 0 0)
(2.35895 0 0)
(2.35902 0 0)
(2.35908 0 0)
(2.35915 0 0)
(2.35921 0 0)
(2.35928 0 0)
(2.35934 0 0)
(2.35941 0 0)
(2.35947 0 0)
(2.35954 0 0)
(2.3596 0 0)
(2.35966 0 0)
(2.35973 0 0)
(2.35979 0 0)
(2.35986 0 0)
(2.35992 0 0)
(2.35998 0 0)
(2.36005 0 0)
(2.36011 0 0)
(2.36017 0 0)
(2.36024 0 0)
(2.3603 0 0)
(2.36037 0 0)
(2.36043 0 0)
(2.36049 0 0)
(2.36056 0 0)
(2.36062 0 0)
(2.36069 0 0)
(2.36075 0 0)
(2.36082 0 0)
(2.36088 0 0)
(2.36095 0 0)
(2.36101 0 0)
(2.36108 0 0)
(2.36114 0 0)
(2.36121 0 0)
(2.36128 0 0)
(2.36134 0 0)
(2.36141 0 0)
(2.36148 0 0)
(2.36154 0 0)
(2.36161 0 0)
(2.36168 0 0)
(2.36175 0 0)
(2.36182 0 0)
(2.36189 0 0)
(2.36196 0 0)
(2.36203 0 0)
(2.3621 0 0)
(2.36217 0 0)
(2.36224 0 0)
(2.36231 0 0)
(2.36238 0 0)
(2.36245 0 0)
(2.36252 0 0)
(2.36259 0 0)
(2.36267 0 0)
(2.36274 0 0)
(2.36281 0 0)
(2.36289 0 0)
(2.36296 0 0)
(2.36303 0 0)
(2.36311 0 0)
(2.36318 0 0)
(2.36326 0 0)
(2.36333 0 0)
(2.36341 0 0)
(2.36348 0 0)
(2.36356 0 0)
(2.36364 0 0)
(2.36371 0 0)
(2.36379 0 0)
(2.36387 0 0)
(2.36394 0 0)
(2.36402 0 0)
(2.3641 0 0)
(2.36418 0 0)
(2.36425 0 0)
(2.36433 0 0)
(2.36441 0 0)
(2.36449 0 0)
(2.36457 0 0)
(2.36465 0 0)
(2.36473 0 0)
(2.3648 0 0)
(2.36488 0 0)
(2.36496 0 0)
(2.36504 0 0)
(2.36512 0 0)
(2.36521 0 0)
(2.36529 0 0)
(2.36537 0 0)
(2.36545 0 0)
(2.36553 0 0)
(2.36561 0 0)
(2.36569 0 0)
(2.36577 0 0)
(2.36586 0 0)
(2.36594 0 0)
(2.36603 0 0)
)
;

boundaryField
{
    boundary
    {
        type            empty;
    }
    inlet
    {
        type            fixedValue;
        value           nonuniform 0();
    }
    outlet
    {
        type            zeroGradient;
    }
    procBoundary3to1
    {
        type            processor;
        value           uniform (2.36612 0 0);
    }
    procBoundary3to2
    {
        type            processor;
        value           uniform (2.35714 0 0);
    }
}


// ************************************************************************* //
