/*--------------------------------*- C++ -*----------------------------------*\
  =========                 |
  \\      /  F ield         | OpenFOAM: The Open Source CFD Toolbox
   \\    /   O peration     | Website:  https://openfoam.org
    \\  /    A nd           | Version:  7
     \\/     M anipulation  |
\*---------------------------------------------------------------------------*/
FoamFile
{
    version     2.0;
    format      ascii;
    class       volScalarField;
    location    "0.00042";
    object      H2O2;
}
// * * * * * * * * * * * * * * * * * * * * * * * * * * * * * * * * * * * * * //

dimensions      [0 0 0 0 0 0 0];

internalField   nonuniform List<scalar> 
125
(
1.99986e-52
6.43068e-52
1.27967e-51
2.1108e-51
3.13776e-51
4.36238e-51
5.78718e-51
7.41559e-51
9.25226e-51
1.13033e-50
1.35765e-50
1.60818e-50
1.88309e-50
2.18375e-50
2.5117e-50
2.86854e-50
3.25585e-50
3.67506e-50
4.12722e-50
4.61285e-50
5.1317e-50
5.68257e-50
6.26311e-50
6.86973e-50
7.49759e-50
8.1406e-50
8.79166e-50
9.44284e-50
1.00858e-49
1.07121e-49
1.13137e-49
1.18833e-49
1.24147e-49
1.29031e-49
1.33453e-49
1.37394e-49
1.40855e-49
1.43848e-49
1.46396e-49
1.48533e-49
1.503e-49
1.51737e-49
1.52891e-49
1.53803e-49
1.54514e-49
1.5506e-49
1.55474e-49
1.55784e-49
1.56012e-49
1.56178e-49
1.56298e-49
1.56383e-49
1.56442e-49
1.56484e-49
1.56512e-49
1.56531e-49
1.56544e-49
1.56553e-49
1.56558e-49
1.56562e-49
1.56565e-49
1.56567e-49
1.56568e-49
1.56569e-49
1.5657e-49
1.56571e-49
1.56571e-49
1.56572e-49
1.56573e-49
1.56574e-49
1.56574e-49
1.56575e-49
1.56576e-49
1.56578e-49
1.56579e-49
1.5658e-49
1.56581e-49
1.56583e-49
1.56584e-49
1.56586e-49
1.56588e-49
1.5659e-49
1.56592e-49
1.56594e-49
1.56596e-49
1.56599e-49
1.56601e-49
1.56604e-49
1.56607e-49
1.5661e-49
1.56613e-49
1.56616e-49
1.5662e-49
1.56623e-49
1.56627e-49
1.56631e-49
1.56635e-49
1.5664e-49
1.56644e-49
1.56649e-49
1.56654e-49
1.56659e-49
1.56664e-49
1.5667e-49
1.56676e-49
1.56682e-49
1.56688e-49
1.56694e-49
1.56701e-49
1.56708e-49
1.56715e-49
1.56722e-49
1.5673e-49
1.56738e-49
1.56746e-49
1.56754e-49
1.56763e-49
1.56771e-49
1.5678e-49
1.56789e-49
1.56798e-49
1.56802e-49
1.56791e-49
1.56709e-49
1.56341e-49
)
;

boundaryField
{
    boundary
    {
        type            empty;
    }
    inlet
    {
        type            fixedValue;
        value           uniform 0;
    }
    outlet
    {
        type            zeroGradient;
    }
    procBoundary2to3
    {
        type            processor;
        value           uniform 1.5561e-49;
    }
}


// ************************************************************************* //
