/*--------------------------------*- C++ -*----------------------------------*\
  =========                 |
  \\      /  F ield         | OpenFOAM: The Open Source CFD Toolbox
   \\    /   O peration     | Website:  https://openfoam.org
    \\  /    A nd           | Version:  7
     \\/     M anipulation  |
\*---------------------------------------------------------------------------*/
FoamFile
{
    version     2.0;
    format      ascii;
    class       volScalarField;
    location    "0.00055";
    object      Qdot;
}
// * * * * * * * * * * * * * * * * * * * * * * * * * * * * * * * * * * * * * //

dimensions      [1 -1 -3 0 0 0 0];

internalField   nonuniform List<scalar> 
125
(
5.9677e-10
2.09578e-09
7.60096e-09
2.86034e-08
1.11771e-07
4.52445e-07
1.88862e-06
8.08428e-06
3.52896e-05
0.000156351
0.000700408
0.00316391
0.0143879
0.0658176
0.302932
1.40458
6.57731
31.4237
164.758
934.148
6978.78
52688.1
459630
4.31103e+06
4.09639e+07
3.55353e+08
2.20167e+09
7.22626e+09
1.21737e+10
1.37649e+10
1.39235e+10
1.3938e+10
1.35302e+10
1.23184e+10
1.04655e+10
8.48279e+09
6.89484e+09
5.71681e+09
4.81677e+09
4.12938e+09
3.59607e+09
3.17412e+09
2.83356e+09
2.55357e+09
2.31959e+09
2.12124e+09
1.95103e+09
1.80344e+09
1.6743e+09
1.56041e+09
1.45928e+09
1.36893e+09
1.28778e+09
1.21453e+09
1.14814e+09
1.08772e+09
1.03254e+09
9.81973e+08
9.35506e+08
8.9271e+08
8.5327e+08
8.17802e+08
7.85353e+08
7.54853e+08
7.26243e+08
6.99335e+08
6.73994e+08
6.50079e+08
6.27486e+08
6.06114e+08
5.85871e+08
5.66676e+08
5.48452e+08
5.31135e+08
5.14661e+08
4.98973e+08
4.84021e+08
4.69757e+08
4.56138e+08
4.43122e+08
4.30675e+08
4.18762e+08
4.07351e+08
3.96414e+08
3.85923e+08
3.75853e+08
3.66183e+08
3.56888e+08
3.47951e+08
3.39351e+08
3.31072e+08
3.23096e+08
3.1541e+08
3.07998e+08
3.00846e+08
2.93942e+08
2.87276e+08
2.80834e+08
2.74608e+08
2.68586e+08
2.6276e+08
2.57121e+08
2.5166e+08
2.4637e+08
2.41243e+08
2.36273e+08
2.31453e+08
2.26777e+08
2.22238e+08
2.17831e+08
2.13551e+08
2.09393e+08
2.05352e+08
2.01424e+08
1.97604e+08
1.93888e+08
1.90273e+08
1.86755e+08
1.8333e+08
1.79995e+08
1.76747e+08
1.73584e+08
1.70502e+08
1.67504e+08
1.64586e+08
)
;

boundaryField
{
    boundary
    {
        type            empty;
    }
    inlet
    {
        type            calculated;
        value           nonuniform 0();
    }
    outlet
    {
        type            calculated;
        value           nonuniform 0();
    }
    procBoundary1to0
    {
        type            processor;
        value           uniform 0;
    }
    procBoundary1to3
    {
        type            processor;
        value           uniform 0;
    }
}


// ************************************************************************* //
