/*--------------------------------*- C++ -*----------------------------------*\
  =========                 |
  \\      /  F ield         | OpenFOAM: The Open Source CFD Toolbox
   \\    /   O peration     | Website:  https://openfoam.org
    \\  /    A nd           | Version:  7
     \\/     M anipulation  |
\*---------------------------------------------------------------------------*/
FoamFile
{
    version     2.0;
    format      ascii;
    class       volScalarField;
    location    "0.00055";
    object      T;
}
// * * * * * * * * * * * * * * * * * * * * * * * * * * * * * * * * * * * * * //

dimensions      [0 0 0 1 0 0 0];

internalField   nonuniform List<scalar> 
125
(
301.519
301.516
301.513
301.51
301.507
301.504
301.501
301.498
301.495
301.492
301.489
301.486
301.483
301.48
301.477
301.475
301.475
301.479
301.498
301.558
301.735
302.242
303.695
307.836
319.491
350.505
420.666
540.419
691.083
845.619
992.908
1129.84
1251.48
1352.15
1437.29
1509.7
1567.4
1613.49
1652.91
1687.05
1717.03
1743.7
1767.67
1789.38
1809.2
1827.4
1844.2
1859.77
1874.27
1887.82
1900.53
1912.47
1923.72
1934.35
1944.42
1953.97
1963.04
1971.68
1979.92
1987.77
1995.27
2002.23
2008.78
2015.12
2021.24
2027.17
2032.9
2038.46
2043.85
2049.08
2054.15
2059.08
2063.87
2068.53
2073.07
2077.48
2081.78
2085.98
2090.07
2094.06
2097.95
2101.75
2105.47
2109.1
2112.65
2116.12
2119.51
2122.84
2126.09
2129.28
2132.41
2135.47
2138.47
2141.41
2144.3
2147.13
2149.91
2152.64
2155.32
2157.95
2160.54
2163.08
2165.57
2168.03
2170.44
2172.81
2175.14
2177.43
2179.69
2181.91
2184.09
2186.24
2188.35
2190.44
2192.49
2194.5
2196.49
2198.45
2200.38
2202.28
2204.16
2206
2207.82
2209.61
2211.38
)
;

boundaryField
{
    boundary
    {
        type            empty;
    }
    inlet
    {
        type            fixedValue;
        value           nonuniform 0();
    }
    outlet
    {
        type            zeroGradient;
    }
    procBoundary1to0
    {
        type            processor;
        value           uniform 2213.12;
    }
    procBoundary1to3
    {
        type            processor;
        value           uniform 301.521;
    }
}


// ************************************************************************* //
