/*--------------------------------*- C++ -*----------------------------------*\
  =========                 |
  \\      /  F ield         | OpenFOAM: The Open Source CFD Toolbox
   \\    /   O peration     | Website:  https://openfoam.org
    \\  /    A nd           | Version:  7
     \\/     M anipulation  |
\*---------------------------------------------------------------------------*/
FoamFile
{
    version     2.0;
    format      ascii;
    class       surfaceScalarField;
    location    "0.00027";
    object      phi;
}
// * * * * * * * * * * * * * * * * * * * * * * * * * * * * * * * * * * * * * //

dimensions      [1 0 -1 0 0 0 0];

internalField   nonuniform List<scalar> 
124
(
6.83338e-06
6.83319e-06
6.833e-06
6.83281e-06
6.83261e-06
6.83242e-06
6.83223e-06
6.83204e-06
6.83184e-06
6.83165e-06
6.83146e-06
6.83127e-06
6.83108e-06
6.83088e-06
6.83069e-06
6.8305e-06
6.83031e-06
6.83012e-06
6.82993e-06
6.82977e-06
6.82966e-06
6.82973e-06
6.83033e-06
6.83247e-06
6.83895e-06
6.85685e-06
6.8986e-06
6.96684e-06
7.03596e-06
7.0854e-06
7.11731e-06
7.13877e-06
7.15398e-06
7.16487e-06
7.17263e-06
7.17815e-06
7.18215e-06
7.18516e-06
7.18751e-06
7.18939e-06
7.19094e-06
7.19224e-06
7.19335e-06
7.19431e-06
7.19516e-06
7.1959e-06
7.19657e-06
7.19717e-06
7.19771e-06
7.1982e-06
7.19864e-06
7.19905e-06
7.19942e-06
7.19976e-06
7.20007e-06
7.20035e-06
7.20061e-06
7.20085e-06
7.20107e-06
7.20127e-06
7.20145e-06
7.20161e-06
7.20176e-06
7.20189e-06
7.20202e-06
7.20213e-06
7.20224e-06
7.20234e-06
7.20243e-06
7.20252e-06
7.2026e-06
7.20268e-06
7.20276e-06
7.20284e-06
7.20292e-06
7.203e-06
7.20308e-06
7.20317e-06
7.20326e-06
7.20337e-06
7.20348e-06
7.20361e-06
7.20375e-06
7.20391e-06
7.20409e-06
7.20429e-06
7.20452e-06
7.20477e-06
7.20505e-06
7.20537e-06
7.20572e-06
7.2061e-06
7.20653e-06
7.20699e-06
7.2075e-06
7.20806e-06
7.20866e-06
7.20931e-06
7.21e-06
7.21074e-06
7.21152e-06
7.21235e-06
7.21321e-06
7.2141e-06
7.21502e-06
7.21596e-06
7.21691e-06
7.21786e-06
7.2188e-06
7.21971e-06
7.22057e-06
7.22138e-06
7.22211e-06
7.22274e-06
7.22325e-06
7.2236e-06
7.22379e-06
7.22377e-06
7.22352e-06
7.22301e-06
7.2222e-06
7.22108e-06
7.21959e-06
7.21773e-06
)
;

boundaryField
{
    boundary
    {
        type            empty;
        value           nonuniform 0();
    }
    inlet
    {
        type            calculated;
        value           nonuniform 0();
    }
    outlet
    {
        type            calculated;
        value           nonuniform 0();
    }
    procBoundary1to0
    {
        type            processor;
        value           uniform 7.21545e-06;
    }
    procBoundary1to3
    {
        type            processor;
        value           uniform -6.83357e-06;
    }
}


// ************************************************************************* //
