/*--------------------------------*- C++ -*----------------------------------*\
  =========                 |
  \\      /  F ield         | OpenFOAM: The Open Source CFD Toolbox
   \\    /   O peration     | Website:  https://openfoam.org
    \\  /    A nd           | Version:  7
     \\/     M anipulation  |
\*---------------------------------------------------------------------------*/
FoamFile
{
    version     2.0;
    format      ascii;
    class       volScalarField;
    location    "0.00027";
    object      Qdot;
}
// * * * * * * * * * * * * * * * * * * * * * * * * * * * * * * * * * * * * * //

dimensions      [1 -1 -3 0 0 0 0];

internalField   nonuniform List<scalar> 
125
(
4.14667e-11
1.72967e-10
7.24963e-10
3.06031e-09
1.30333e-08
5.60575e-08
2.43585e-07
1.06897e-06
4.7339e-06
2.11314e-05
9.49692e-05
0.000429265
0.00194991
0.00889762
0.0407884
0.187971
0.872079
4.08317
19.3688
99.3496
560.425
3815.1
28782.6
241180
2.2321e+06
2.13259e+07
1.93319e+08
1.37351e+09
5.50854e+09
1.10811e+10
1.3538e+10
1.38792e+10
1.3914e+10
1.37012e+10
1.27454e+10
1.09923e+10
8.96706e+09
7.28073e+09
6.01134e+09
5.03929e+09
4.29907e+09
3.72775e+09
3.27833e+09
2.91766e+09
2.62265e+09
2.37722e+09
2.16998e+09
1.99274e+09
1.83949e+09
1.70573e+09
1.58803e+09
1.48372e+09
1.3907e+09
1.30728e+09
1.2321e+09
1.16406e+09
1.10221e+09
1.0458e+09
9.94177e+08
9.46816e+08
9.0333e+08
8.64352e+08
8.2881e+08
7.95506e+08
7.64337e+08
7.35106e+08
7.07637e+08
6.81781e+08
6.57412e+08
6.344e+08
6.12648e+08
5.9206e+08
5.72548e+08
5.54035e+08
5.36451e+08
5.19731e+08
5.03816e+08
4.88651e+08
4.74189e+08
4.60383e+08
4.47192e+08
4.34577e+08
4.22504e+08
4.10939e+08
3.99853e+08
3.89216e+08
3.79004e+08
3.69193e+08
3.59758e+08
3.50679e+08
3.41937e+08
3.33512e+08
3.25387e+08
3.17546e+08
3.09973e+08
3.02653e+08
2.95572e+08
2.88718e+08
2.82076e+08
2.75636e+08
2.69387e+08
2.63316e+08
2.57414e+08
2.51671e+08
2.46077e+08
2.40623e+08
2.353e+08
2.301e+08
2.25015e+08
2.20036e+08
2.15158e+08
2.10372e+08
2.05673e+08
2.01053e+08
1.96509e+08
1.92033e+08
1.87621e+08
1.83269e+08
1.78973e+08
1.74729e+08
1.70536e+08
1.66391e+08
1.62301e+08
1.58278e+08
1.54409e+08
)
;

boundaryField
{
    boundary
    {
        type            empty;
    }
    inlet
    {
        type            calculated;
        value           nonuniform 0();
    }
    outlet
    {
        type            calculated;
        value           nonuniform 0();
    }
    procBoundary1to0
    {
        type            processor;
        value           uniform 0;
    }
    procBoundary1to3
    {
        type            processor;
        value           uniform 0;
    }
}


// ************************************************************************* //
