/*--------------------------------*- C++ -*----------------------------------*\
  =========                 |
  \\      /  F ield         | OpenFOAM: The Open Source CFD Toolbox
   \\    /   O peration     | Website:  https://openfoam.org
    \\  /    A nd           | Version:  7
     \\/     M anipulation  |
\*---------------------------------------------------------------------------*/
FoamFile
{
    version     2.0;
    format      ascii;
    class       volVectorField;
    location    "0.00027";
    object      U;
}
// * * * * * * * * * * * * * * * * * * * * * * * * * * * * * * * * * * * * * //

dimensions      [0 1 -1 0 0 0 0];

internalField   nonuniform List<vector> 
125
(
(2.32691 0 0)
(2.32681 0 0)
(2.32673 0 0)
(2.32664 0 0)
(2.32654 0 0)
(2.32645 0 0)
(2.32636 0 0)
(2.32627 0 0)
(2.32617 0 0)
(2.32608 0 0)
(2.32599 0 0)
(2.32589 0 0)
(2.3258 0 0)
(2.32571 0 0)
(2.32561 0 0)
(2.32552 0 0)
(2.32542 0 0)
(2.32533 0 0)
(2.32524 0 0)
(2.32522 0 0)
(2.32538 0 0)
(2.32617 0 0)
(2.32899 0 0)
(2.33768 0 0)
(2.36181 0 0)
(2.42253 0 0)
(2.56589 0 0)
(2.88468 0 0)
(3.54306 0 0)
(4.59039 0 0)
(5.8206 0 0)
(7.02108 0 0)
(8.0985 0 0)
(9.03177 0 0)
(9.81808 0 0)
(10.4739 0 0)
(11.0187 0 0)
(11.4576 0 0)
(11.8043 0 0)
(12.0872 0 0)
(12.3285 0 0)
(12.5391 0 0)
(12.7248 0 0)
(12.8902 0 0)
(13.0387 0 0)
(13.1732 0 0)
(13.2959 0 0)
(13.4086 0 0)
(13.5125 0 0)
(13.6088 0 0)
(13.6984 0 0)
(13.782 0 0)
(13.8603 0 0)
(13.9339 0 0)
(14.0031 0 0)
(14.0685 0 0)
(14.1303 0 0)
(14.1889 0 0)
(14.2445 0 0)
(14.2973 0 0)
(14.3475 0 0)
(14.3941 0 0)
(14.4375 0 0)
(14.4796 0 0)
(14.5202 0 0)
(14.5593 0 0)
(14.5971 0 0)
(14.6335 0 0)
(14.6688 0 0)
(14.703 0 0)
(14.7361 0 0)
(14.7681 0 0)
(14.7992 0 0)
(14.8294 0 0)
(14.8587 0 0)
(14.8872 0 0)
(14.9149 0 0)
(14.9418 0 0)
(14.968 0 0)
(14.9935 0 0)
(15.0184 0 0)
(15.0426 0 0)
(15.0662 0 0)
(15.0893 0 0)
(15.1117 0 0)
(15.1336 0 0)
(15.155 0 0)
(15.176 0 0)
(15.1964 0 0)
(15.2163 0 0)
(15.2358 0 0)
(15.2549 0 0)
(15.2736 0 0)
(15.2919 0 0)
(15.3097 0 0)
(15.3272 0 0)
(15.3444 0 0)
(15.3612 0 0)
(15.3777 0 0)
(15.3938 0 0)
(15.4097 0 0)
(15.4252 0 0)
(15.4405 0 0)
(15.4555 0 0)
(15.4702 0 0)
(15.4847 0 0)
(15.4989 0 0)
(15.513 0 0)
(15.5268 0 0)
(15.5404 0 0)
(15.5538 0 0)
(15.5671 0 0)
(15.5802 0 0)
(15.5931 0 0)
(15.6058 0 0)
(15.6184 0 0)
(15.6309 0 0)
(15.6432 0 0)
(15.6554 0 0)
(15.6675 0 0)
(15.6795 0 0)
(15.6914 0 0)
(15.7033 0 0)
(15.7151 0 0)
(15.7267 0 0)
)
;

boundaryField
{
    boundary
    {
        type            empty;
    }
    inlet
    {
        type            fixedValue;
        value           nonuniform 0();
    }
    outlet
    {
        type            zeroGradient;
    }
    procBoundary1to0
    {
        type            processor;
        value           uniform (15.738 0 0);
    }
    procBoundary1to3
    {
        type            processor;
        value           uniform (2.327 0 0);
    }
}


// ************************************************************************* //
