/*--------------------------------*- C++ -*----------------------------------*\
  =========                 |
  \\      /  F ield         | OpenFOAM: The Open Source CFD Toolbox
   \\    /   O peration     | Website:  https://openfoam.org
    \\  /    A nd           | Version:  7
     \\/     M anipulation  |
\*---------------------------------------------------------------------------*/
FoamFile
{
    version     2.0;
    format      ascii;
    class       volScalarField;
    location    "0.00065";
    object      H;
}
// * * * * * * * * * * * * * * * * * * * * * * * * * * * * * * * * * * * * * //

dimensions      [0 0 0 0 0 0 0];

internalField   nonuniform List<scalar> 
500
(
1.48279e-41
2.00439e-41
2.11266e-41
2.13196e-41
2.13244e-41
2.12935e-41
2.12611e-41
2.12349e-41
2.12169e-41
2.12073e-41
2.12055e-41
2.1211e-41
2.12227e-41
2.124e-41
2.1262e-41
2.12881e-41
2.1318e-41
2.13515e-41
2.13887e-41
2.143e-41
2.14761e-41
2.15276e-41
2.15858e-41
2.16518e-41
2.17271e-41
2.18134e-41
2.19123e-41
2.20258e-41
2.21557e-41
2.23041e-41
2.24728e-41
2.26638e-41
2.28787e-41
2.3119e-41
2.33859e-41
2.36802e-41
2.40024e-41
2.43525e-41
2.47297e-41
2.51329e-41
2.55603e-41
2.60095e-41
2.64775e-41
2.69608e-41
2.74553e-41
2.79566e-41
2.846e-41
2.89609e-41
2.94543e-41
2.99356e-41
3.04005e-41
3.08452e-41
3.12663e-41
3.1661e-41
3.20274e-41
3.2364e-41
3.26704e-41
3.29464e-41
3.31926e-41
3.34102e-41
3.36007e-41
3.37658e-41
3.39076e-41
3.40284e-41
3.41302e-41
3.42154e-41
3.42859e-41
3.43439e-41
3.43912e-41
3.44294e-41
3.44599e-41
3.44843e-41
3.45035e-41
3.45185e-41
3.45302e-41
3.45393e-41
3.45462e-41
3.45515e-41
3.45555e-41
3.45586e-41
3.45609e-41
3.45627e-41
3.45641e-41
3.45652e-41
3.4566e-41
3.45667e-41
3.45673e-41
3.45678e-41
3.45682e-41
3.45687e-41
3.45691e-41
3.45695e-41
3.45699e-41
3.45703e-41
3.45707e-41
3.45711e-41
3.45716e-41
3.45721e-41
3.45726e-41
3.45731e-41
3.45736e-41
3.45742e-41
3.45747e-41
3.45753e-41
3.4576e-41
3.45766e-41
3.45773e-41
3.4578e-41
3.45787e-41
3.45795e-41
3.45803e-41
3.45811e-41
3.4582e-41
3.45829e-41
3.45838e-41
3.45847e-41
3.45857e-41
3.45867e-41
3.45878e-41
3.45889e-41
3.45901e-41
3.45915e-41
3.45933e-41
3.45963e-41
3.46019e-41
3.4608e-41
3.46095e-41
3.46105e-41
3.46112e-41
3.46115e-41
3.46116e-41
3.46117e-41
3.46117e-41
3.46118e-41
3.46121e-41
3.46126e-41
3.46134e-41
3.46144e-41
3.46158e-41
3.46174e-41
3.46191e-41
3.46211e-41
3.46231e-41
3.46253e-41
3.46275e-41
3.46297e-41
3.46319e-41
3.46342e-41
3.46364e-41
3.46386e-41
3.46409e-41
3.46431e-41
3.46453e-41
3.46476e-41
3.46499e-41
3.46522e-41
3.46545e-41
3.46568e-41
3.46591e-41
3.46615e-41
3.46639e-41
3.46663e-41
3.46688e-41
3.46713e-41
3.46738e-41
3.46764e-41
3.46789e-41
3.46815e-41
3.46842e-41
3.46868e-41
3.46895e-41
3.46922e-41
3.46948e-41
3.46975e-41
3.47001e-41
3.47028e-41
3.47054e-41
3.47079e-41
3.47105e-41
3.47129e-41
3.47153e-41
3.47177e-41
3.47199e-41
3.47221e-41
3.47241e-41
3.47261e-41
3.4728e-41
3.47297e-41
3.47313e-41
3.47328e-41
3.47342e-41
3.47354e-41
3.47365e-41
3.47374e-41
3.47381e-41
3.47387e-41
3.4739e-41
3.47392e-41
3.47392e-41
3.4739e-41
3.47385e-41
3.47378e-41
3.47369e-41
3.47357e-41
3.47342e-41
3.47325e-41
3.47305e-41
3.47282e-41
3.47256e-41
3.47229e-41
3.47203e-41
3.47191e-41
3.47241e-41
3.47519e-41
3.48614e-41
3.52595e-41
3.66682e-41
4.15884e-41
5.86276e-41
1.17216e-40
3.17336e-40
9.96491e-40
3.28694e-39
1.09641e-38
3.65428e-38
1.21269e-37
4.00328e-37
1.31443e-36
4.29298e-36
1.39495e-35
4.51056e-35
1.45171e-34
4.65173e-34
1.4844e-33
4.71859e-33
1.49459e-32
4.71866e-32
1.4854e-31
4.66401e-31
1.46131e-30
4.57096e-30
1.42827e-29
4.46152e-29
1.39461e-28
4.36816e-28
1.37341e-27
4.34528e-27
1.3879e-26
4.4941e-26
1.48287e-25
5.01496e-25
1.75714e-24
6.3561e-24
2.38425e-23
9.28404e-23
3.743e-22
1.55509e-21
6.62123e-21
2.87382e-20
1.26588e-19
5.64086e-19
2.53801e-18
1.15242e-17
5.2857e-17
2.45519e-16
1.16003e-15
5.61087e-15
2.80079e-14
1.45558e-13
8.11311e-13
5.31016e-12
4.6015e-11
4.4231e-10
4.12066e-09
3.84957e-08
3.49472e-07
2.88205e-06
1.92105e-05
8.80564e-05
0.000251722
0.00050831
0.000838107
0.00120176
0.00153096
0.00176588
0.00189205
0.00192982
0.00190928
0.00185549
0.00178551
0.00170975
0.00163403
0.00156137
0.00149315
0.00142982
0.00137134
0.00131745
0.00126778
0.00122193
0.00117953
0.00114021
0.00110365
0.00106958
0.00103775
0.00100793
0.00097994
0.000953605
0.000928777
0.000905328
0.000883142
0.000862117
0.000842161
0.000823749
0.000806599
0.000790141
0.000774335
0.00075914
0.000744522
0.000730447
0.000716884
0.000703804
0.00069118
0.00067899
0.000667209
0.000655816
0.000644793
0.000634121
0.000623782
0.00061376
0.000604042
0.000594612
0.000585458
0.000576567
0.000567928
0.00055953
0.000551363
0.000543416
0.000535682
0.000528151
0.000520815
0.000513666
0.000506698
0.000499903
0.000493275
0.000486808
0.000480495
0.000474331
0.000468311
0.00046243
0.000456683
0.000451065
0.000445572
0.000440199
0.000434943
0.0004298
0.000424767
0.000419839
0.000415013
0.000410287
0.000405657
0.00040112
0.000396674
0.000392315
0.000388042
0.000383852
0.000379742
0.00037571
0.000371754
0.000367872
0.000364063
0.000360323
0.000356652
0.000353048
0.000349509
0.000346034
0.000342622
0.000339266
0.000335962
0.000332715
0.000329523
0.000326385
0.0003233
0.000320266
0.000317282
0.000314347
0.00031146
0.000308619
0.000305824
0.000303073
0.000300366
0.000297701
0.000295078
0.000292496
0.000289953
0.00028745
0.000284984
0.000282556
0.000280165
0.000277809
0.000275488
0.000273201
0.000270948
0.000268729
0.000266541
0.000264385
0.000262261
0.000260167
0.000258103
0.000256068
0.000254062
0.000252085
0.000250136
0.000248214
0.000246319
0.000244451
0.000242609
0.000240793
0.000239002
0.000237236
0.000235494
0.000233777
0.000232084
0.000230414
0.000228768
0.000227145
0.000225544
0.000223966
0.00022241
0.000220876
0.000219363
0.000217872
0.000216402
0.000214953
0.000213525
0.000212117
0.00021073
0.000209363
0.000208015
0.000206688
0.00020538
0.000204092
0.000202823
0.000201573
0.000200342
0.00019913
0.000197936
0.000196761
0.000195604
0.000194466
0.000193345
0.000192242
0.000191156
0.000190086
0.000189029
0.000187983
0.00018682
0.00018579
0.000184787
0.000183803
0.000182836
0.000181885
0.000180948
0.000180025
0.000179116
0.000178219
0.000177334
0.00017646
0.000175598
0.000174747
0.000173906
0.000173074
0.000172251
0.000171437
0.00017063
0.00016983
0.000169038
0.00016825
0.000167469
0.000166691
0.000165918
0.000165149
0.000164382
0.000163617
0.000162854
0.000162093
0.000161332
0.000160573
0.000159814
0.000159056
0.000158299
0.000157545
0.000156794
0.00015605
0.000155315
0.000154597
0.000153905
0.000153256
0.000152678
0.000152216
0.000151939
)
;

boundaryField
{
    boundary
    {
        type            empty;
    }
    inlet
    {
        type            fixedValue;
        value           uniform 0;
    }
    outlet
    {
        type            zeroGradient;
    }
}


// ************************************************************************* //
