/*--------------------------------*- C++ -*----------------------------------*\
  =========                 |
  \\      /  F ield         | OpenFOAM: The Open Source CFD Toolbox
   \\    /   O peration     | Website:  https://openfoam.org
    \\  /    A nd           | Version:  7
     \\/     M anipulation  |
\*---------------------------------------------------------------------------*/
FoamFile
{
    version     2.0;
    format      ascii;
    class       volScalarField;
    location    "0.00065";
    object      H2O;
}
// * * * * * * * * * * * * * * * * * * * * * * * * * * * * * * * * * * * * * //

dimensions      [0 0 0 0 0 0 0];

internalField   nonuniform List<scalar> 
500
(
7.84879e-48
2.26532e-47
4.07178e-47
6.09824e-47
8.27423e-47
1.05534e-46
1.29053e-46
1.53103e-46
1.77554e-46
2.02321e-46
2.27344e-46
2.52585e-46
2.78017e-46
3.0362e-46
3.29386e-46
3.55312e-46
3.81405e-46
4.07679e-46
4.34158e-46
4.60875e-46
4.87876e-46
5.15216e-46
5.42964e-46
5.71201e-46
6.00019e-46
6.29525e-46
6.59833e-46
6.91068e-46
7.23359e-46
7.56838e-46
7.91632e-46
8.27861e-46
8.65627e-46
9.05012e-46
9.46067e-46
9.88806e-46
1.0332e-45
1.07918e-45
1.12662e-45
1.17534e-45
1.2251e-45
1.27564e-45
1.32664e-45
1.37773e-45
1.42854e-45
1.47868e-45
1.52776e-45
1.57538e-45
1.6212e-45
1.66489e-45
1.70618e-45
1.74484e-45
1.78069e-45
1.81363e-45
1.84362e-45
1.87065e-45
1.89479e-45
1.91614e-45
1.93485e-45
1.95108e-45
1.96503e-45
1.97692e-45
1.98694e-45
1.99532e-45
2.00225e-45
2.00795e-45
2.01258e-45
2.01631e-45
2.01929e-45
2.02165e-45
2.0235e-45
2.02494e-45
2.02606e-45
2.02691e-45
2.02756e-45
2.02805e-45
2.02841e-45
2.02869e-45
2.02889e-45
2.02904e-45
2.02915e-45
2.02923e-45
2.0293e-45
2.02934e-45
2.02938e-45
2.02941e-45
2.02943e-45
2.02945e-45
2.02947e-45
2.02949e-45
2.02951e-45
2.02953e-45
2.02955e-45
2.02957e-45
2.02959e-45
2.02961e-45
2.02964e-45
2.02966e-45
2.02969e-45
2.02972e-45
2.02974e-45
2.02977e-45
2.02981e-45
2.02984e-45
2.02988e-45
2.02991e-45
2.02995e-45
2.02999e-45
2.03004e-45
2.03008e-45
2.03013e-45
2.03018e-45
2.03023e-45
2.03028e-45
2.03034e-45
2.0304e-45
2.03046e-45
2.03052e-45
2.03058e-45
2.03065e-45
2.03071e-45
2.03074e-45
2.03068e-45
2.03026e-45
2.02848e-45
2.02514e-45
2.02522e-45
2.02531e-45
2.02539e-45
2.02548e-45
2.02558e-45
2.02568e-45
2.0258e-45
2.02595e-45
2.02611e-45
2.02632e-45
2.02656e-45
2.02685e-45
2.02718e-45
2.02756e-45
2.02799e-45
2.02847e-45
2.02898e-45
2.02951e-45
2.03007e-45
2.03062e-45
2.03117e-45
2.0317e-45
2.03219e-45
2.03264e-45
2.03304e-45
2.03339e-45
2.03369e-45
2.03393e-45
2.03412e-45
2.03427e-45
2.03438e-45
2.03446e-45
2.03452e-45
2.03457e-45
2.03461e-45
2.03465e-45
2.0347e-45
2.03477e-45
2.03485e-45
2.03496e-45
2.03509e-45
2.03524e-45
2.03542e-45
2.03562e-45
2.03585e-45
2.03609e-45
2.03634e-45
2.03661e-45
2.03688e-45
2.03716e-45
2.03744e-45
2.03771e-45
2.03797e-45
2.03823e-45
2.03848e-45
2.03871e-45
2.03893e-45
2.03914e-45
2.03933e-45
2.0395e-45
2.03966e-45
2.0398e-45
2.03993e-45
2.04005e-45
2.04015e-45
2.04023e-45
2.0403e-45
2.04036e-45
2.0404e-45
2.04043e-45
2.04045e-45
2.04046e-45
2.0405e-45
2.04071e-45
2.04165e-45
2.04552e-45
2.06098e-45
2.12178e-45
2.35873e-45
3.27555e-45
6.80046e-45
2.0273e-44
7.14865e-44
2.65205e-43
9.94809e-43
3.73312e-42
1.39847e-41
5.23148e-41
1.9565e-40
7.32627e-40
2.75166e-39
1.03857e-38
3.94673e-38
1.51273e-37
5.85649e-37
2.29234e-36
9.07478e-36
3.63228e-35
1.46865e-34
5.99046e-34
2.46086e-33
1.01631e-32
4.21239e-32
1.74943e-31
7.2699e-31
3.01943e-30
1.25224e-29
5.18221e-29
2.13888e-28
8.80145e-28
3.61022e-27
1.476e-26
6.01474e-26
2.44318e-25
9.89368e-25
3.99484e-24
1.60866e-23
6.46173e-23
2.58969e-22
1.03576e-21
4.13508e-21
1.64822e-20
6.56061e-20
2.60829e-19
1.03593e-18
4.1341e-18
1.64393e-17
6.52088e-17
2.58435e-16
1.02376e-15
4.05421e-15
1.60505e-14
6.35246e-14
2.51335e-13
9.94018e-13
3.9294e-12
1.55238e-11
6.12838e-11
2.41715e-10
9.52352e-10
3.74762e-09
1.47269e-08
5.77851e-08
2.26374e-07
8.85314e-07
3.45582e-06
1.34563e-05
5.21626e-05
0.000200081
0.000746354
0.00259206
0.00770494
0.0180363
0.0330218
0.0514674
0.0737526
0.099346
0.125052
0.14705
0.163694
0.17532
0.183201
0.188533
0.192212
0.194842
0.196807
0.198347
0.199611
0.20069
0.20164
0.202499
0.203288
0.204023
0.204714
0.205367
0.205989
0.206581
0.207148
0.207692
0.208214
0.208715
0.209199
0.209665
0.210114
0.210548
0.210967
0.211358
0.211732
0.212096
0.212452
0.212798
0.213136
0.213466
0.213788
0.214103
0.214411
0.214713
0.215008
0.215297
0.215579
0.215857
0.216128
0.216394
0.216655
0.216912
0.217163
0.21741
0.217652
0.21789
0.218124
0.218354
0.218579
0.218801
0.21902
0.219234
0.219446
0.219654
0.219858
0.22006
0.220258
0.220453
0.220646
0.220835
0.221022
0.221206
0.221388
0.221567
0.221743
0.221917
0.222089
0.222258
0.222425
0.22259
0.222752
0.222912
0.223071
0.223227
0.223381
0.223534
0.223684
0.223832
0.223979
0.224124
0.224267
0.224408
0.224548
0.224686
0.224822
0.224956
0.225089
0.22522
0.22535
0.225479
0.225605
0.225731
0.225855
0.225978
0.226099
0.226219
0.226338
0.226455
0.226572
0.226687
0.2268
0.226913
0.227025
0.227135
0.227244
0.227352
0.227459
0.227566
0.227671
0.227775
0.227878
0.22798
0.228082
0.228182
0.228282
0.22838
0.228478
0.228575
0.228672
0.228767
0.228862
0.228956
0.229049
0.229142
0.229234
0.229325
0.229415
0.229505
0.229595
0.229683
0.229771
0.229859
0.229946
0.230032
0.230118
0.230204
0.230289
0.230373
0.230457
0.230541
0.230624
0.230707
0.23079
0.230872
0.230954
0.231036
0.231118
0.231199
0.23128
0.231362
0.231443
0.231524
0.231605
0.231687
0.231768
0.23185
0.231931
0.232014
0.232096
0.232179
0.232262
0.232346
0.23243
0.232515
0.2326
0.232683
0.232804
0.232895
0.232986
0.233078
0.233172
0.233267
0.233363
0.233461
0.23356
0.233661
0.233763
0.233867
0.233973
0.23408
0.23419
0.234301
0.234413
0.234528
0.234644
0.234761
0.234881
0.235001
0.235123
0.235247
0.235372
0.235498
0.235625
0.235753
0.235881
0.23601
0.23614
0.23627
0.236399
0.236529
0.236658
0.236786
0.236914
0.23704
0.237164
0.237286
0.237404
0.237516
0.23762
0.237708
0.237767
)
;

boundaryField
{
    boundary
    {
        type            empty;
    }
    inlet
    {
        type            fixedValue;
        value           uniform 0;
    }
    outlet
    {
        type            zeroGradient;
    }
}


// ************************************************************************* //
