/*--------------------------------*- C++ -*----------------------------------*\
  =========                 |
  \\      /  F ield         | OpenFOAM: The Open Source CFD Toolbox
   \\    /   O peration     | Website:  https://openfoam.org
    \\  /    A nd           | Version:  7
     \\/     M anipulation  |
\*---------------------------------------------------------------------------*/
FoamFile
{
    version     2.0;
    format      ascii;
    class       volScalarField;
    location    "0.00065";
    object      H2O2;
}
// * * * * * * * * * * * * * * * * * * * * * * * * * * * * * * * * * * * * * //

dimensions      [0 0 0 0 0 0 0];

internalField   nonuniform List<scalar> 
500
(
1.98432e-52
6.36824e-52
1.26496e-51
2.08298e-51
3.09144e-51
4.29126e-51
5.68369e-51
7.27013e-51
9.05206e-51
1.10309e-50
1.32081e-50
1.55848e-50
1.81624e-50
2.09422e-50
2.3926e-50
2.71158e-50
3.05144e-50
3.41254e-50
3.79535e-50
4.20049e-50
4.62873e-50
5.08102e-50
5.55851e-50
6.06257e-50
6.5948e-50
7.15701e-50
7.75121e-50
8.37958e-50
9.04439e-50
9.74794e-50
1.04925e-49
1.128e-49
1.21121e-49
1.299e-49
1.39143e-49
1.48845e-49
1.58994e-49
1.69565e-49
1.80523e-49
1.9182e-49
2.03394e-49
2.15175e-49
2.27081e-49
2.39023e-49
2.50904e-49
2.62628e-49
2.74096e-49
2.85214e-49
2.95893e-49
3.06057e-49
3.15636e-49
3.24579e-49
3.32847e-49
3.40414e-49
3.47273e-49
3.53428e-49
3.58897e-49
3.63708e-49
3.67899e-49
3.71514e-49
3.74602e-49
3.77214e-49
3.79401e-49
3.81217e-49
3.82709e-49
3.83924e-49
3.84904e-49
3.85688e-49
3.86309e-49
3.86797e-49
3.87176e-49
3.87469e-49
3.87693e-49
3.87863e-49
3.87992e-49
3.88088e-49
3.88159e-49
3.88212e-49
3.88251e-49
3.88279e-49
3.883e-49
3.88315e-49
3.88327e-49
3.88336e-49
3.88343e-49
3.88348e-49
3.88353e-49
3.88357e-49
3.88361e-49
3.88365e-49
3.88369e-49
3.88373e-49
3.88377e-49
3.88381e-49
3.88386e-49
3.8839e-49
3.88395e-49
3.884e-49
3.88406e-49
3.88412e-49
3.88418e-49
3.88424e-49
3.88431e-49
3.88438e-49
3.88446e-49
3.88453e-49
3.88462e-49
3.8847e-49
3.88479e-49
3.88489e-49
3.88499e-49
3.88509e-49
3.8852e-49
3.88531e-49
3.88543e-49
3.88555e-49
3.88568e-49
3.88581e-49
3.88594e-49
3.88608e-49
3.8862e-49
3.88625e-49
3.88601e-49
3.88461e-49
3.87859e-49
3.86654e-49
3.86671e-49
3.86689e-49
3.86706e-49
3.86725e-49
3.86744e-49
3.86765e-49
3.86789e-49
3.86816e-49
3.8685e-49
3.8689e-49
3.86939e-49
3.86998e-49
3.87068e-49
3.8715e-49
3.87245e-49
3.87352e-49
3.87471e-49
3.87599e-49
3.87735e-49
3.87873e-49
3.88012e-49
3.88146e-49
3.88271e-49
3.88385e-49
3.88484e-49
3.88566e-49
3.88631e-49
3.88678e-49
3.8871e-49
3.88727e-49
3.88734e-49
3.88733e-49
3.88729e-49
3.88724e-49
3.88722e-49
3.88726e-49
3.88739e-49
3.88762e-49
3.88795e-49
3.8884e-49
3.88897e-49
3.88964e-49
3.89041e-49
3.89126e-49
3.89218e-49
3.89314e-49
3.89413e-49
3.89514e-49
3.89614e-49
3.89713e-49
3.89808e-49
3.89899e-49
3.89986e-49
3.90067e-49
3.90143e-49
3.90213e-49
3.90276e-49
3.90334e-49
3.90387e-49
3.90434e-49
3.90476e-49
3.90513e-49
3.90546e-49
3.90574e-49
3.90598e-49
3.90619e-49
3.90636e-49
3.9065e-49
3.9066e-49
3.90667e-49
3.9067e-49
3.9067e-49
3.90667e-49
3.9066e-49
3.9065e-49
3.90638e-49
3.90636e-49
3.90708e-49
3.91209e-49
3.94127e-49
4.10435e-49
5.00232e-49
9.89839e-49
3.63612e-48
1.78174e-47
9.31706e-47
4.90179e-46
2.56421e-45
1.3308e-44
6.84945e-44
3.49596e-43
1.76953e-42
8.88286e-42
4.42263e-41
2.18411e-40
1.06997e-39
5.20022e-39
2.50767e-38
1.19998e-37
5.69891e-37
2.68654e-36
1.25734e-35
5.84321e-35
2.69697e-34
1.23659e-33
5.63379e-33
2.55103e-32
1.14839e-31
5.14101e-31
2.28943e-30
1.01453e-29
4.47515e-29
1.96562e-28
8.59989e-28
3.74915e-27
1.62918e-26
7.05898e-26
3.05064e-25
1.31537e-24
5.66023e-24
2.43147e-23
1.04294e-22
4.46786e-22
1.91198e-21
8.175e-21
3.51358e-20
1.5044e-19
6.42615e-19
2.74292e-18
1.17034e-17
4.99219e-17
2.12888e-16
9.07576e-16
3.86774e-15
1.64755e-14
7.01408e-14
2.98398e-13
1.26835e-12
5.38547e-12
2.28386e-11
9.67177e-11
4.08954e-10
1.72639e-09
7.27585e-09
3.0611e-08
1.28512e-07
5.37347e-07
2.22093e-06
8.83225e-06
3.10368e-05
7.82465e-05
0.000116356
0.000118966
7.66152e-05
3.50474e-05
1.40369e-05
6.50821e-06
4.5634e-06
4.57039e-06
5.1524e-06
5.78028e-06
6.27081e-06
6.58556e-06
6.7438e-06
6.78091e-06
6.73123e-06
6.62269e-06
6.47615e-06
6.30635e-06
6.12371e-06
5.93525e-06
5.74572e-06
5.5583e-06
5.37505e-06
5.19729e-06
5.02581e-06
4.86107e-06
4.70323e-06
4.55233e-06
4.40827e-06
4.27087e-06
4.13991e-06
4.01515e-06
3.89633e-06
3.78323e-06
3.67565e-06
3.57649e-06
3.48322e-06
3.3937e-06
3.30776e-06
3.22522e-06
3.1459e-06
3.06966e-06
2.99634e-06
2.9258e-06
2.85791e-06
2.79255e-06
2.72959e-06
2.66891e-06
2.61042e-06
2.554e-06
2.49956e-06
2.44701e-06
2.39626e-06
2.34723e-06
2.29984e-06
2.25401e-06
2.20969e-06
2.16679e-06
2.12527e-06
2.08506e-06
2.04609e-06
2.00833e-06
1.97172e-06
1.93621e-06
1.90176e-06
1.86832e-06
1.83586e-06
1.80433e-06
1.77369e-06
1.74392e-06
1.71498e-06
1.68683e-06
1.65945e-06
1.6328e-06
1.60687e-06
1.58162e-06
1.55703e-06
1.53307e-06
1.50973e-06
1.48697e-06
1.46479e-06
1.44316e-06
1.42206e-06
1.40147e-06
1.38138e-06
1.36177e-06
1.34262e-06
1.32392e-06
1.30566e-06
1.28782e-06
1.27038e-06
1.25334e-06
1.23668e-06
1.22039e-06
1.20446e-06
1.18888e-06
1.17365e-06
1.15874e-06
1.14416e-06
1.12989e-06
1.11589e-06
1.10218e-06
1.08875e-06
1.0756e-06
1.06271e-06
1.05008e-06
1.03771e-06
1.02558e-06
1.01369e-06
1.00202e-06
9.9059e-07
9.79374e-07
9.68372e-07
9.57577e-07
9.46984e-07
9.36588e-07
9.26383e-07
9.16365e-07
9.06528e-07
8.96868e-07
8.8738e-07
8.78059e-07
8.68903e-07
8.59906e-07
8.51064e-07
8.42374e-07
8.33831e-07
8.25433e-07
8.17176e-07
8.09056e-07
8.0107e-07
7.93215e-07
7.85488e-07
7.77886e-07
7.70405e-07
7.63044e-07
7.558e-07
7.48669e-07
7.41649e-07
7.34739e-07
7.27934e-07
7.21234e-07
7.14636e-07
7.08137e-07
7.01735e-07
6.95429e-07
6.89217e-07
6.83096e-07
6.77064e-07
6.71119e-07
6.6526e-07
6.59485e-07
6.53791e-07
6.48178e-07
6.42643e-07
6.37184e-07
6.31801e-07
6.2649e-07
6.21251e-07
6.16082e-07
6.10981e-07
6.05947e-07
6.00978e-07
5.96072e-07
5.91227e-07
5.86443e-07
5.81718e-07
5.77049e-07
5.72435e-07
5.67875e-07
5.63367e-07
5.58909e-07
5.54499e-07
5.50136e-07
5.45818e-07
5.41546e-07
5.37309e-07
5.33352e-07
5.27657e-07
5.23468e-07
5.1931e-07
5.1517e-07
5.11051e-07
5.0695e-07
5.02866e-07
4.98795e-07
4.94735e-07
4.90683e-07
4.86636e-07
4.82591e-07
4.78545e-07
4.74496e-07
4.7044e-07
4.66375e-07
4.62298e-07
4.58206e-07
4.54096e-07
4.49967e-07
4.45816e-07
4.4164e-07
4.37438e-07
4.33208e-07
4.28948e-07
4.24657e-07
4.20334e-07
4.15978e-07
4.11589e-07
4.07168e-07
4.02714e-07
3.9823e-07
3.93717e-07
3.89177e-07
3.84616e-07
3.80037e-07
3.75449e-07
3.70863e-07
3.66294e-07
3.61772e-07
3.5734e-07
3.53081e-07
3.49137e-07
3.45781e-07
3.43547e-07
)
;

boundaryField
{
    boundary
    {
        type            empty;
    }
    inlet
    {
        type            fixedValue;
        value           uniform 0;
    }
    outlet
    {
        type            zeroGradient;
    }
}


// ************************************************************************* //
