/*--------------------------------*- C++ -*----------------------------------*\
  =========                 |
  \\      /  F ield         | OpenFOAM: The Open Source CFD Toolbox
   \\    /   O peration     | Website:  https://openfoam.org
    \\  /    A nd           | Version:  7
     \\/     M anipulation  |
\*---------------------------------------------------------------------------*/
FoamFile
{
    version     2.0;
    format      ascii;
    class       volScalarField;
    location    "0.00065";
    object      HO2;
}
// * * * * * * * * * * * * * * * * * * * * * * * * * * * * * * * * * * * * * //

dimensions      [0 0 0 0 0 0 0];

internalField   nonuniform List<scalar> 
500
(
5.57792e-38
1.26777e-37
1.97898e-37
2.68987e-37
3.40062e-37
4.1118e-37
4.82404e-37
5.53789e-37
6.25378e-37
6.97199e-37
7.69269e-37
8.41592e-37
9.14167e-37
9.86991e-37
1.06007e-36
1.1334e-36
1.20702e-36
1.28095e-36
1.35525e-36
1.43e-36
1.50528e-36
1.58121e-36
1.65795e-36
1.73567e-36
1.81455e-36
1.89481e-36
1.97671e-36
2.06049e-36
2.14641e-36
2.23474e-36
2.32572e-36
2.41958e-36
2.51651e-36
2.61662e-36
2.71997e-36
2.82654e-36
2.93619e-36
3.04869e-36
3.1637e-36
3.28075e-36
3.39928e-36
3.51862e-36
3.63802e-36
3.75668e-36
3.87374e-36
3.98834e-36
4.09964e-36
4.20683e-36
4.3092e-36
4.40609e-36
4.49699e-36
4.58148e-36
4.65931e-36
4.73032e-36
4.7945e-36
4.85198e-36
4.90297e-36
4.94776e-36
4.98675e-36
5.02037e-36
5.04909e-36
5.07339e-36
5.09376e-36
5.11068e-36
5.12461e-36
5.13598e-36
5.14516e-36
5.15252e-36
5.15837e-36
5.16298e-36
5.16657e-36
5.16936e-36
5.17149e-36
5.17312e-36
5.17436e-36
5.17528e-36
5.17598e-36
5.17649e-36
5.17687e-36
5.17715e-36
5.17736e-36
5.17751e-36
5.17763e-36
5.17771e-36
5.17778e-36
5.17784e-36
5.17789e-36
5.17793e-36
5.17797e-36
5.17801e-36
5.17805e-36
5.17808e-36
5.17812e-36
5.17816e-36
5.17821e-36
5.17825e-36
5.1783e-36
5.17835e-36
5.1784e-36
5.17846e-36
5.17852e-36
5.17858e-36
5.17864e-36
5.17871e-36
5.17878e-36
5.17886e-36
5.17893e-36
5.17902e-36
5.1791e-36
5.17919e-36
5.17929e-36
5.17938e-36
5.17949e-36
5.17959e-36
5.1797e-36
5.17982e-36
5.17994e-36
5.18006e-36
5.18019e-36
5.18032e-36
5.18044e-36
5.18052e-36
5.1804e-36
5.1795e-36
5.17551e-36
5.16751e-36
5.16768e-36
5.16784e-36
5.168e-36
5.16816e-36
5.16833e-36
5.16851e-36
5.16872e-36
5.16895e-36
5.16923e-36
5.16956e-36
5.16996e-36
5.17043e-36
5.17099e-36
5.17164e-36
5.17237e-36
5.17319e-36
5.17409e-36
5.17504e-36
5.17603e-36
5.17704e-36
5.17803e-36
5.17897e-36
5.17985e-36
5.18063e-36
5.18129e-36
5.18184e-36
5.18226e-36
5.18256e-36
5.18276e-36
5.18287e-36
5.18292e-36
5.18293e-36
5.18293e-36
5.18294e-36
5.18299e-36
5.1831e-36
5.18329e-36
5.18356e-36
5.18391e-36
5.18436e-36
5.18489e-36
5.1855e-36
5.18618e-36
5.18692e-36
5.1877e-36
5.18851e-36
5.18933e-36
5.19016e-36
5.19098e-36
5.19178e-36
5.19255e-36
5.19329e-36
5.19399e-36
5.19464e-36
5.19526e-36
5.19582e-36
5.19634e-36
5.19682e-36
5.19725e-36
5.19764e-36
5.19799e-36
5.1983e-36
5.19858e-36
5.19882e-36
5.19904e-36
5.19921e-36
5.19936e-36
5.19948e-36
5.19957e-36
5.19963e-36
5.19966e-36
5.19966e-36
5.19962e-36
5.19956e-36
5.19946e-36
5.19933e-36
5.19916e-36
5.19895e-36
5.19871e-36
5.19843e-36
5.1981e-36
5.19773e-36
5.19732e-36
5.19686e-36
5.19635e-36
5.1958e-36
5.19522e-36
5.19467e-36
5.19436e-36
5.19506e-36
5.19946e-36
5.21712e-36
5.28146e-36
5.50868e-36
6.3003e-36
9.03505e-36
1.84189e-35
5.04236e-35
1.58971e-34
5.25224e-34
1.75531e-33
5.87024e-33
1.95927e-32
6.52601e-32
2.17132e-31
7.227e-31
2.41091e-30
8.07981e-30
2.72779e-29
9.30555e-29
3.21806e-28
1.13166e-27
4.05746e-27
1.48587e-26
5.56147e-26
2.12649e-25
8.29325e-25
3.29136e-24
1.32572e-23
5.40469e-23
2.22453e-22
9.2237e-22
3.84576e-21
1.61006e-20
6.76078e-20
2.86149e-19
1.20917e-18
5.10496e-18
2.15574e-17
9.10563e-17
3.8464e-16
1.62457e-15
6.85924e-15
2.89451e-14
1.22053e-13
5.14167e-13
2.16345e-12
9.09041e-12
3.81348e-11
1.5969e-10
6.67383e-10
2.78326e-09
1.15814e-08
4.80691e-08
1.98832e-07
8.17268e-07
3.31657e-06
1.31153e-05
4.88912e-05
0.000159172
0.000379994
0.000518713
0.000479134
0.000371836
0.000266628
0.000187251
0.000130983
9.12638e-05
6.38379e-05
4.55781e-05
3.38245e-05
2.62813e-05
2.1371e-05
1.80809e-05
1.57915e-05
1.41309e-05
1.28761e-05
1.18914e-05
1.10931e-05
1.04279e-05
9.86135e-06
9.37012e-06
8.93814e-06
8.55397e-06
8.20918e-06
7.8974e-06
7.6137e-06
7.3542e-06
7.11573e-06
6.89574e-06
6.69208e-06
6.50295e-06
6.32685e-06
6.16248e-06
6.00879e-06
5.86493e-06
5.7342e-06
5.61261e-06
5.49714e-06
5.38735e-06
5.28282e-06
5.18317e-06
5.08808e-06
4.99722e-06
4.91034e-06
4.82717e-06
4.74749e-06
4.67108e-06
4.59775e-06
4.52732e-06
4.45962e-06
4.39451e-06
4.33183e-06
4.27146e-06
4.21328e-06
4.15716e-06
4.10302e-06
4.05074e-06
4.00023e-06
3.95141e-06
3.90421e-06
3.85853e-06
3.81432e-06
3.7715e-06
3.73002e-06
3.68981e-06
3.65081e-06
3.61299e-06
3.57628e-06
3.54064e-06
3.50603e-06
3.4724e-06
3.43972e-06
3.40794e-06
3.37704e-06
3.34698e-06
3.31772e-06
3.28925e-06
3.26152e-06
3.23451e-06
3.2082e-06
3.18255e-06
3.15756e-06
3.13319e-06
3.10943e-06
3.08624e-06
3.06363e-06
3.04156e-06
3.02001e-06
2.99898e-06
2.97844e-06
2.95839e-06
2.9388e-06
2.91966e-06
2.90096e-06
2.88268e-06
2.86483e-06
2.84737e-06
2.83031e-06
2.81365e-06
2.79734e-06
2.78137e-06
2.76573e-06
2.75044e-06
2.73547e-06
2.72082e-06
2.70648e-06
2.69243e-06
2.67868e-06
2.6652e-06
2.65201e-06
2.63908e-06
2.6264e-06
2.61398e-06
2.6018e-06
2.58986e-06
2.57815e-06
2.56666e-06
2.55539e-06
2.54432e-06
2.53346e-06
2.5228e-06
2.51233e-06
2.50204e-06
2.49193e-06
2.482e-06
2.47223e-06
2.46264e-06
2.4532e-06
2.44391e-06
2.43477e-06
2.42578e-06
2.41694e-06
2.40822e-06
2.39965e-06
2.3912e-06
2.38287e-06
2.37467e-06
2.36659e-06
2.35862e-06
2.35077e-06
2.34302e-06
2.33538e-06
2.32784e-06
2.3204e-06
2.31306e-06
2.30581e-06
2.29864e-06
2.29157e-06
2.28457e-06
2.27766e-06
2.27082e-06
2.26405e-06
2.25736e-06
2.25072e-06
2.24415e-06
2.23763e-06
2.23116e-06
2.22474e-06
2.21836e-06
2.21202e-06
2.20571e-06
2.19942e-06
2.19315e-06
2.18689e-06
2.18064e-06
2.17439e-06
2.16813e-06
2.16186e-06
2.15555e-06
2.14922e-06
2.14284e-06
2.13642e-06
2.12993e-06
2.12338e-06
2.11676e-06
2.11007e-06
2.10336e-06
2.09679e-06
2.08645e-06
2.07904e-06
2.07152e-06
2.06382e-06
2.05592e-06
2.04781e-06
2.03948e-06
2.03091e-06
2.0221e-06
2.01303e-06
2.0037e-06
1.99409e-06
1.9842e-06
1.97402e-06
1.96354e-06
1.95275e-06
1.94166e-06
1.93026e-06
1.91856e-06
1.90655e-06
1.89423e-06
1.88163e-06
1.86874e-06
1.85558e-06
1.84216e-06
1.8285e-06
1.81462e-06
1.80053e-06
1.78627e-06
1.77186e-06
1.75733e-06
1.74271e-06
1.72804e-06
1.71335e-06
1.69868e-06
1.68408e-06
1.66958e-06
1.65525e-06
1.64114e-06
1.62732e-06
1.61392e-06
1.6011e-06
1.5892e-06
1.57888e-06
1.57172e-06
)
;

boundaryField
{
    boundary
    {
        type            empty;
    }
    inlet
    {
        type            fixedValue;
        value           uniform 0;
    }
    outlet
    {
        type            zeroGradient;
    }
}


// ************************************************************************* //
