/*--------------------------------*- C++ -*----------------------------------*\
  =========                 |
  \\      /  F ield         | OpenFOAM: The Open Source CFD Toolbox
   \\    /   O peration     | Website:  https://openfoam.org
    \\  /    A nd           | Version:  7
     \\/     M anipulation  |
\*---------------------------------------------------------------------------*/
FoamFile
{
    version     2.0;
    format      ascii;
    class       volScalarField;
    location    "0.00065";
    object      O2;
}
// * * * * * * * * * * * * * * * * * * * * * * * * * * * * * * * * * * * * * //

dimensions      [0 0 0 0 0 0 0];

internalField   nonuniform List<scalar> 
500
(
0.226269
0.226269
0.226269
0.226269
0.226269
0.226269
0.226269
0.226269
0.226269
0.226269
0.226269
0.226269
0.226269
0.226269
0.226269
0.226269
0.226269
0.226269
0.226269
0.226269
0.226269
0.226269
0.226269
0.226269
0.226269
0.226269
0.226269
0.226269
0.226269
0.226269
0.226269
0.226269
0.226269
0.226269
0.226269
0.226269
0.226269
0.226269
0.226269
0.226269
0.226269
0.226269
0.226269
0.226269
0.226269
0.226269
0.226269
0.226269
0.226269
0.226269
0.226269
0.226269
0.226269
0.226269
0.226269
0.226269
0.226269
0.226269
0.226269
0.226269
0.226269
0.226269
0.226269
0.226269
0.226269
0.226269
0.226269
0.226269
0.226269
0.226269
0.226269
0.226269
0.226269
0.226269
0.226269
0.226269
0.226269
0.226269
0.226269
0.226269
0.226269
0.226269
0.226269
0.226269
0.226269
0.226269
0.226269
0.226269
0.226269
0.226269
0.226269
0.226269
0.226269
0.226269
0.226269
0.226269
0.226269
0.226269
0.226269
0.226269
0.226269
0.226269
0.226269
0.226269
0.226269
0.226269
0.226269
0.226269
0.226269
0.226269
0.226269
0.226269
0.226269
0.226269
0.226269
0.226269
0.226269
0.226269
0.226269
0.226269
0.226269
0.226269
0.226269
0.226269
0.226269
0.226269
0.226269
0.226269
0.226269
0.226269
0.226269
0.226269
0.226269
0.226269
0.226269
0.226269
0.226269
0.226269
0.226269
0.226269
0.226269
0.226269
0.226269
0.226269
0.226269
0.226269
0.226269
0.226269
0.226269
0.226269
0.226269
0.226269
0.226269
0.226269
0.226269
0.226269
0.226269
0.226269
0.226269
0.226269
0.226269
0.226269
0.226269
0.226269
0.226269
0.226269
0.226269
0.226269
0.226269
0.226269
0.226269
0.226269
0.226269
0.226269
0.226269
0.226269
0.226269
0.226269
0.226269
0.226269
0.226269
0.226269
0.226269
0.226269
0.226269
0.226269
0.226269
0.226269
0.226269
0.226269
0.226269
0.226269
0.226269
0.226269
0.226269
0.226269
0.226269
0.226269
0.226269
0.226269
0.226269
0.226269
0.226269
0.226269
0.226269
0.226269
0.226269
0.226269
0.226269
0.226269
0.226269
0.226269
0.226269
0.226269
0.226269
0.226269
0.226269
0.226269
0.226269
0.226269
0.226269
0.226269
0.226269
0.226269
0.226269
0.226269
0.226269
0.226269
0.226269
0.226269
0.226269
0.226269
0.226269
0.226269
0.226269
0.226269
0.226269
0.226269
0.226269
0.226269
0.226269
0.226269
0.226269
0.226269
0.226269
0.226269
0.226269
0.226269
0.226269
0.226269
0.226269
0.226269
0.226269
0.226269
0.226269
0.226269
0.226269
0.226269
0.226269
0.226269
0.226269
0.226269
0.226269
0.226269
0.226269
0.226269
0.226269
0.226269
0.22627
0.226271
0.226273
0.226276
0.226278
0.226263
0.226163
0.225723
0.224207
0.220082
0.211474
0.198866
0.182932
0.162494
0.137656
0.111728
0.0889696
0.0714255
0.059002
0.0505025
0.0447348
0.0407738
0.0379824
0.0359451
0.0343977
0.0331736
0.0321674
0.0313123
0.0305655
0.0298989
0.0292941
0.0287384
0.0282231
0.0277418
0.0272898
0.0268636
0.0264604
0.0260777
0.0257138
0.025367
0.025036
0.0247195
0.0244168
0.0241271
0.0238584
0.0236033
0.0233564
0.0231171
0.0228851
0.0226599
0.0224413
0.0222289
0.0220223
0.0218213
0.0216256
0.0214349
0.0212491
0.0210679
0.0208911
0.0207185
0.02055
0.0203853
0.0202243
0.0200668
0.0199128
0.0197621
0.0196145
0.0194699
0.0193283
0.0191895
0.0190534
0.0189199
0.018789
0.0186605
0.0185344
0.0184105
0.0182889
0.0181694
0.018052
0.0179366
0.0178231
0.0177116
0.0176019
0.0174939
0.0173877
0.0172832
0.0171803
0.017079
0.0169793
0.0168811
0.0167844
0.0166891
0.0165953
0.0165028
0.0164116
0.0163218
0.0162333
0.016146
0.01606
0.0159751
0.0158915
0.015809
0.0157277
0.0156475
0.0155684
0.0154904
0.0154135
0.0153377
0.0152628
0.0151889
0.015116
0.015044
0.0149729
0.0149027
0.0148334
0.014765
0.0146974
0.0146307
0.0145647
0.0144996
0.0144352
0.0143716
0.0143086
0.0142464
0.0141849
0.0141241
0.0140639
0.0140043
0.0139453
0.013887
0.0138292
0.0137719
0.0137152
0.0136591
0.0136034
0.0135483
0.0134936
0.0134394
0.0133856
0.0133323
0.0132793
0.0132269
0.0131748
0.0131231
0.0130717
0.0130208
0.0129702
0.0129199
0.01287
0.0128204
0.0127711
0.0127222
0.0126735
0.0126251
0.0125769
0.0125291
0.0124814
0.012434
0.0123868
0.0123398
0.012293
0.0122463
0.0121998
0.0121534
0.0121072
0.012061
0.0120148
0.0119687
0.0119226
0.0118765
0.0118303
0.011784
0.0117376
0.011691
0.0116443
0.0115973
0.01155
0.0115024
0.0114545
0.0114061
0.0113573
0.011308
0.0112581
0.0112078
0.0111569
0.0111056
0.0110555
0.0109771
0.0109208
0.0108639
0.0108059
0.0107467
0.0106862
0.0106243
0.0105609
0.010496
0.0104295
0.0103614
0.0102917
0.0102203
0.0101471
0.0100721
0.00999541
0.00991688
0.00983655
0.00975442
0.00967052
0.00958486
0.00949749
0.00940847
0.00931785
0.00922572
0.00913217
0.0090373
0.00894122
0.00884406
0.00874596
0.00864709
0.00854759
0.00844764
0.00834743
0.00824715
0.00814703
0.00804729
0.00794823
0.00785017
0.00775361
0.00765927
0.00756843
0.00748354
0.00740971
0.00735863
)
;

boundaryField
{
    boundary
    {
        type            empty;
    }
    inlet
    {
        type            fixedValue;
        value           uniform 0.226269;
    }
    outlet
    {
        type            zeroGradient;
    }
}


// ************************************************************************* //
