/*--------------------------------*- C++ -*----------------------------------*\
  =========                 |
  \\      /  F ield         | OpenFOAM: The Open Source CFD Toolbox
   \\    /   O peration     | Website:  https://openfoam.org
    \\  /    A nd           | Version:  7
     \\/     M anipulation  |
\*---------------------------------------------------------------------------*/
FoamFile
{
    version     2.0;
    format      ascii;
    class       volScalarField;
    location    "0.00065";
    object      OH;
}
// * * * * * * * * * * * * * * * * * * * * * * * * * * * * * * * * * * * * * //

dimensions      [0 0 0 0 0 0 0];

internalField   nonuniform List<scalar> 
500
(
9.35187e-48
1.81864e-47
2.41892e-47
2.82204e-47
3.09176e-47
3.27221e-47
3.39334e-47
3.47529e-47
3.53156e-47
3.57113e-47
3.59997e-47
3.62197e-47
3.63969e-47
3.65479e-47
3.66835e-47
3.68107e-47
3.69343e-47
3.70577e-47
3.71839e-47
3.73152e-47
3.74542e-47
3.76034e-47
3.77657e-47
3.79442e-47
3.81421e-47
3.83634e-47
3.86118e-47
3.88916e-47
3.92072e-47
3.9563e-47
3.99633e-47
4.04125e-47
4.09145e-47
4.14728e-47
4.20902e-47
4.27691e-47
4.35105e-47
4.43147e-47
4.51805e-47
4.61057e-47
4.70865e-47
4.81177e-47
4.91927e-47
5.03037e-47
5.14418e-47
5.25969e-47
5.37585e-47
5.49155e-47
5.60569e-47
5.71718e-47
5.82502e-47
5.9283e-47
6.0262e-47
6.11809e-47
6.20346e-47
6.28199e-47
6.3535e-47
6.41797e-47
6.47552e-47
6.5264e-47
6.57095e-47
6.60958e-47
6.64277e-47
6.67101e-47
6.69483e-47
6.71474e-47
6.73123e-47
6.74477e-47
6.7558e-47
6.7647e-47
6.77183e-47
6.77749e-47
6.78196e-47
6.78545e-47
6.78816e-47
6.79025e-47
6.79186e-47
6.79308e-47
6.79401e-47
6.79471e-47
6.79525e-47
6.79565e-47
6.79596e-47
6.7962e-47
6.79639e-47
6.79655e-47
6.79668e-47
6.79679e-47
6.79689e-47
6.79699e-47
6.79708e-47
6.79717e-47
6.79726e-47
6.79735e-47
6.79744e-47
6.79754e-47
6.79764e-47
6.79775e-47
6.79786e-47
6.79797e-47
6.79809e-47
6.79822e-47
6.79835e-47
6.79849e-47
6.79863e-47
6.79878e-47
6.79893e-47
6.79909e-47
6.79926e-47
6.79943e-47
6.79961e-47
6.7998e-47
6.8e-47
6.8002e-47
6.80041e-47
6.80063e-47
6.80085e-47
6.80108e-47
6.80133e-47
6.80158e-47
6.80184e-47
6.80214e-47
6.80249e-47
6.803e-47
6.80392e-47
6.80507e-47
6.80534e-47
6.80554e-47
6.80566e-47
6.80574e-47
6.80577e-47
6.8058e-47
6.80583e-47
6.80589e-47
6.80599e-47
6.80615e-47
6.80638e-47
6.80669e-47
6.80706e-47
6.80749e-47
6.80798e-47
6.8085e-47
6.80904e-47
6.80961e-47
6.81018e-47
6.81074e-47
6.81131e-47
6.81187e-47
6.81242e-47
6.81296e-47
6.81349e-47
6.81402e-47
6.81455e-47
6.81508e-47
6.8156e-47
6.81613e-47
6.81666e-47
6.81719e-47
6.81773e-47
6.81827e-47
6.81882e-47
6.81938e-47
6.81994e-47
6.82051e-47
6.82109e-47
6.82168e-47
6.82227e-47
6.82287e-47
6.82348e-47
6.8241e-47
6.82472e-47
6.82534e-47
6.82596e-47
6.82659e-47
6.82721e-47
6.82782e-47
6.82843e-47
6.82903e-47
6.82962e-47
6.83019e-47
6.83075e-47
6.83129e-47
6.83182e-47
6.83232e-47
6.83279e-47
6.83325e-47
6.83367e-47
6.83407e-47
6.83444e-47
6.83478e-47
6.83508e-47
6.83535e-47
6.83558e-47
6.83578e-47
6.83595e-47
6.83611e-47
6.83637e-47
6.83719e-47
6.84035e-47
6.85293e-47
6.90276e-47
7.09824e-47
7.85897e-47
1.07973e-46
2.20646e-46
6.49632e-46
2.27134e-45
8.35857e-45
3.10458e-44
1.15005e-43
4.23522e-43
1.54923e-42
5.6279e-42
2.03025e-41
7.27336e-41
2.58771e-40
9.14346e-40
3.2088e-39
1.1185e-38
3.87281e-38
1.33212e-37
4.55224e-37
1.54568e-36
5.21524e-36
1.74883e-35
5.82907e-35
1.93153e-34
6.36399e-34
2.0853e-33
6.79686e-33
2.20419e-32
7.11366e-32
2.28536e-31
7.31062e-31
2.32925e-30
7.39391e-30
2.33925e-29
7.37874e-29
2.32151e-28
7.2888e-28
2.28503e-27
7.15813e-27
2.24284e-26
7.03791e-26
2.21558e-25
7.01365e-25
2.23959e-24
7.24301e-24
2.38437e-23
8.03587e-23
2.78909e-22
1.00705e-21
3.76544e-21
1.45988e-20
5.8619e-20
2.42705e-19
1.03034e-18
4.45916e-18
1.95751e-17
8.68071e-17
3.87663e-16
1.73947e-15
7.82987e-15
3.5318e-14
1.59527e-13
7.21228e-13
3.26284e-12
1.47686e-11
6.6876e-11
3.04715e-10
1.40595e-09
6.54388e-09
3.06804e-08
1.4684e-07
7.50333e-07
4.43965e-06
3.02369e-05
0.000177495
0.000531811
0.000790379
0.000945091
0.0012898
0.00204491
0.00321943
0.00461662
0.00599946
0.00720834
0.00819722
0.00897861
0.00958793
0.0100626
0.0104344
0.0107281
0.0109621
0.0111501
0.011302
0.0114252
0.0115253
0.0116065
0.011672
0.0117243
0.0117656
0.0117974
0.0118212
0.0118379
0.0118486
0.011854
0.0118548
0.0118516
0.0118448
0.0118349
0.0118222
0.0118076
0.0117915
0.0117736
0.0117543
0.0117335
0.0117114
0.0116882
0.0116639
0.0116387
0.0116127
0.0115858
0.0115583
0.0115302
0.0115015
0.0114723
0.0114427
0.0114127
0.0113823
0.0113517
0.0113207
0.0112895
0.0112582
0.0112266
0.0111949
0.0111631
0.0111311
0.0110991
0.011067
0.0110349
0.0110027
0.0109705
0.0109383
0.0109062
0.010874
0.0108419
0.0108098
0.0107778
0.0107458
0.0107139
0.0106821
0.0106503
0.0106187
0.0105871
0.0105557
0.0105243
0.0104931
0.010462
0.010431
0.0104001
0.0103693
0.0103387
0.0103082
0.0102779
0.0102477
0.0102177
0.0101878
0.010158
0.0101284
0.010099
0.0100697
0.0100406
0.0100117
0.00998299
0.00995444
0.00992604
0.00989773
0.0098696
0.00984163
0.00981383
0.00978619
0.00975871
0.00973141
0.00970426
0.00967728
0.00965045
0.00962379
0.00959728
0.00957093
0.00954473
0.00951869
0.00949279
0.00946705
0.00944145
0.00941599
0.00939068
0.0093655
0.00934047
0.00931556
0.0092908
0.00926616
0.00924166
0.00921728
0.00919303
0.0091689
0.0091449
0.00912103
0.00909727
0.00907364
0.00905012
0.00902673
0.00900345
0.00898029
0.00895725
0.00893432
0.00891152
0.00888883
0.00886625
0.00884379
0.00882144
0.00879921
0.00877709
0.00875508
0.00873319
0.0087114
0.00868972
0.00866815
0.00864668
0.00862531
0.00860403
0.00858286
0.00856177
0.00854077
0.00851986
0.00849902
0.00847825
0.00845754
0.0084369
0.0084163
0.00839575
0.00837523
0.00835473
0.00833425
0.00831377
0.00829328
0.00827276
0.00825221
0.0082316
0.00821093
0.00819017
0.0081693
0.00814833
0.00812739
0.00810692
0.00807889
0.00805695
0.00803474
0.00801224
0.00798945
0.00796634
0.00794289
0.00791907
0.00789485
0.00787023
0.00784516
0.00781964
0.00779364
0.00776715
0.00774014
0.00771261
0.00768455
0.00765594
0.00762679
0.00759709
0.00756685
0.00753606
0.00750475
0.00747293
0.00744061
0.00740783
0.00737461
0.00734098
0.007307
0.0072727
0.00723814
0.00720337
0.00716846
0.00713349
0.00709853
0.00706368
0.00702905
0.00699479
0.00696107
0.00692817
0.00689647
0.00686659
0.0068396
0.00681728
0.0068029
)
;

boundaryField
{
    boundary
    {
        type            empty;
    }
    inlet
    {
        type            fixedValue;
        value           uniform 0;
    }
    outlet
    {
        type            zeroGradient;
    }
}


// ************************************************************************* //
