/*--------------------------------*- C++ -*----------------------------------*\
  =========                 |
  \\      /  F ield         | OpenFOAM: The Open Source CFD Toolbox
   \\    /   O peration     | Website:  https://openfoam.org
    \\  /    A nd           | Version:  7
     \\/     M anipulation  |
\*---------------------------------------------------------------------------*/
FoamFile
{
    version     2.0;
    format      ascii;
    class       volScalarField;
    location    "0.00065";
    object      Qdot;
}
// * * * * * * * * * * * * * * * * * * * * * * * * * * * * * * * * * * * * * //

dimensions      [1 -1 -3 0 0 0 0];

internalField   nonuniform List<scalar> 
500
(
-2.44866e-27
-1.85493e-27
-1.72367e-27
-1.69227e-27
-1.68268e-27
-1.6782e-27
-1.67529e-27
-1.67325e-27
-1.67191e-27
-1.67124e-27
-1.67117e-27
-1.67165e-27
-1.6726e-27
-1.67396e-27
-1.67566e-27
-1.67768e-27
-1.67996e-27
-1.68251e-27
-1.68534e-27
-1.68847e-27
-1.69196e-27
-1.69586e-27
-1.70026e-27
-1.70525e-27
-1.71095e-27
-1.71748e-27
-1.72498e-27
-1.73358e-27
-1.74343e-27
-1.75468e-27
-1.76748e-27
-1.78197e-27
-1.79827e-27
-1.8165e-27
-1.83674e-27
-1.85906e-27
-1.88348e-27
-1.91e-27
-1.93856e-27
-1.96907e-27
-2.00139e-27
-2.03533e-27
-2.07066e-27
-2.10711e-27
-2.14436e-27
-2.18208e-27
-2.21992e-27
-2.25751e-27
-2.29449e-27
-2.33051e-27
-2.36526e-27
-2.39843e-27
-2.42979e-27
-2.45914e-27
-2.48633e-27
-2.51127e-27
-2.53392e-27
-2.55428e-27
-2.57241e-27
-2.5884e-27
-2.60236e-27
-2.61445e-27
-2.6248e-27
-2.6336e-27
-2.641e-27
-2.64717e-27
-2.65228e-27
-2.65647e-27
-2.65987e-27
-2.66261e-27
-2.66481e-27
-2.66655e-27
-2.66792e-27
-2.66899e-27
-2.66982e-27
-2.67046e-27
-2.67095e-27
-2.67133e-27
-2.67161e-27
-2.67183e-27
-2.67199e-27
-2.67212e-27
-2.67221e-27
-2.67229e-27
-2.67235e-27
-2.6724e-27
-2.67244e-27
-2.67248e-27
-2.67251e-27
-2.67254e-27
-2.67257e-27
-2.6726e-27
-2.67263e-27
-2.67267e-27
-2.6727e-27
-2.67273e-27
-2.67276e-27
-2.6728e-27
-2.67284e-27
-2.67288e-27
-2.67292e-27
-2.67296e-27
-2.673e-27
-2.67305e-27
-2.67309e-27
-2.67314e-27
-2.6732e-27
-2.67325e-27
-2.6733e-27
-2.67336e-27
-2.67342e-27
-2.67348e-27
-2.67355e-27
-2.67361e-27
-2.67368e-27
-2.67375e-27
-2.67383e-27
-2.6739e-27
-2.67398e-27
-2.67407e-27
-2.67415e-27
-2.67425e-27
-2.67437e-27
-2.67456e-27
-2.67493e-27
-2.67549e-27
-2.67562e-27
-2.67569e-27
-2.67574e-27
-2.67576e-27
-2.67576e-27
-2.67576e-27
-2.67577e-27
-2.67577e-27
-2.6758e-27
-2.67583e-27
-2.67589e-27
-2.67598e-27
-2.67608e-27
-2.6762e-27
-2.67634e-27
-2.67648e-27
-2.67664e-27
-2.6768e-27
-2.67697e-27
-2.67713e-27
-2.6773e-27
-2.67747e-27
-2.67764e-27
-2.6778e-27
-2.67797e-27
-2.67814e-27
-2.67831e-27
-2.67848e-27
-2.67865e-27
-2.67882e-27
-2.67899e-27
-2.67917e-27
-2.67935e-27
-2.67953e-27
-2.67971e-27
-2.67989e-27
-2.68008e-27
-2.68026e-27
-2.68045e-27
-2.68065e-27
-2.68084e-27
-2.68104e-27
-2.68124e-27
-2.68144e-27
-2.68164e-27
-2.68184e-27
-2.68204e-27
-2.68224e-27
-2.68245e-27
-2.68265e-27
-2.68284e-27
-2.68304e-27
-2.68323e-27
-2.68342e-27
-2.6836e-27
-2.68378e-27
-2.68395e-27
-2.68412e-27
-2.68427e-27
-2.68443e-27
-2.68457e-27
-2.6847e-27
-2.68483e-27
-2.68495e-27
-2.68505e-27
-2.68515e-27
-2.68523e-27
-2.68531e-27
-2.68537e-27
-2.68542e-27
-2.68545e-27
-2.68547e-27
-2.68547e-27
-2.68546e-27
-2.68543e-27
-2.68539e-27
-2.68533e-27
-2.68524e-27
-2.68514e-27
-2.68502e-27
-2.68487e-27
-2.6847e-27
-2.68448e-27
-2.68417e-27
-2.68357e-27
-2.68197e-27
-2.67686e-27
-2.6592e-27
-2.59692e-27
-2.3769e-27
-1.6028e-27
1.10443e-27
1.0511e-26
4.298e-26
1.54321e-25
5.33655e-25
1.8178e-24
6.13778e-24
2.05817e-23
6.85874e-23
2.27213e-22
7.48419e-22
2.4517e-21
7.989e-21
2.59011e-20
8.35697e-20
2.68406e-19
8.58347e-19
2.73389e-18
8.67502e-18
2.74324e-17
8.64769e-17
2.7185e-16
8.52542e-16
2.6684e-15
8.33988e-15
2.60448e-14
8.13378e-14
2.543e-13
7.97117e-13
2.51005e-12
7.96145e-12
2.55266e-11
8.3108e-11
2.76241e-10
9.47511e-10
3.34786e-09
1.22459e-08
4.65146e-08
1.83321e-07
7.46954e-07
3.13007e-06
1.34122e-05
5.84556e-05
0.000258
0.00114936
0.00515645
0.0232684
0.105577
0.481994
2.21798
10.3203
50.1024
265.467
1661.62
12012.6
94759.7
845372
8.04008e+06
7.53728e+07
6.15679e+08
3.26544e+09
8.8398e+09
1.28841e+10
1.38488e+10
1.39258e+10
1.38832e+10
1.32348e+10
1.17325e+10
9.83986e+09
8.06636e+09
6.61813e+09
5.49996e+09
4.64865e+09
3.99634e+09
3.48857e+09
3.08568e+09
2.75975e+09
2.49119e+09
2.26634e+09
2.07539e+09
1.91123e+09
1.76865e+09
1.64369e+09
1.53332e+09
1.43517e+09
1.34737e+09
1.26842e+09
1.19708e+09
1.13234e+09
1.07337e+09
1.01946e+09
9.70021e+08
9.24552e+08
8.82641e+08
8.43992e+08
8.09213e+08
7.77374e+08
7.47429e+08
7.19325e+08
6.9288e+08
6.67962e+08
6.44436e+08
6.222e+08
6.01157e+08
5.81217e+08
5.62301e+08
5.44336e+08
5.27257e+08
5.11005e+08
4.95522e+08
4.80761e+08
4.66673e+08
4.53218e+08
4.40355e+08
4.2805e+08
4.16269e+08
4.0498e+08
3.94157e+08
3.83772e+08
3.73802e+08
3.64223e+08
3.55014e+08
3.46156e+08
3.3763e+08
3.2942e+08
3.21509e+08
3.13882e+08
3.06525e+08
2.99425e+08
2.9257e+08
2.85948e+08
2.79549e+08
2.73361e+08
2.67376e+08
2.61584e+08
2.55977e+08
2.50547e+08
2.45286e+08
2.40187e+08
2.35243e+08
2.30447e+08
2.25794e+08
2.21278e+08
2.16893e+08
2.12634e+08
2.08496e+08
2.04474e+08
2.00565e+08
1.96763e+08
1.93065e+08
1.89467e+08
1.85965e+08
1.82555e+08
1.79235e+08
1.76002e+08
1.72852e+08
1.69783e+08
1.66794e+08
1.63883e+08
1.61043e+08
1.58267e+08
1.55556e+08
1.52911e+08
1.5033e+08
1.4781e+08
1.45349e+08
1.42945e+08
1.40596e+08
1.38302e+08
1.3606e+08
1.33868e+08
1.31725e+08
1.29629e+08
1.2758e+08
1.25575e+08
1.23613e+08
1.21693e+08
1.19814e+08
1.17975e+08
1.16174e+08
1.1441e+08
1.12683e+08
1.10991e+08
1.09333e+08
1.07708e+08
1.06116e+08
1.04556e+08
1.03026e+08
1.01526e+08
1.00055e+08
9.86126e+07
9.71977e+07
9.58098e+07
9.44481e+07
9.3112e+07
9.18008e+07
9.05138e+07
8.92507e+07
8.80108e+07
8.67935e+07
8.55983e+07
8.44247e+07
8.32722e+07
8.21402e+07
8.10284e+07
7.99363e+07
7.88634e+07
7.78093e+07
7.67736e+07
7.57559e+07
7.47559e+07
7.3773e+07
7.2807e+07
7.18578e+07
7.09244e+07
7.0007e+07
6.9105e+07
6.82182e+07
6.73463e+07
6.64889e+07
6.56458e+07
6.48168e+07
6.40014e+07
6.31994e+07
6.24107e+07
6.16348e+07
6.08716e+07
6.01208e+07
5.93822e+07
5.86556e+07
5.79408e+07
5.72366e+07
5.65454e+07
5.58667e+07
5.52047e+07
5.45743e+07
5.39516e+07
5.34545e+07
5.22774e+07
5.17151e+07
5.11533e+07
5.05634e+07
4.99673e+07
4.9374e+07
4.87856e+07
4.82029e+07
4.76264e+07
4.70558e+07
4.64909e+07
4.59314e+07
4.53769e+07
4.48271e+07
4.42816e+07
4.37401e+07
4.3202e+07
4.26671e+07
4.21349e+07
4.16051e+07
4.10771e+07
4.05507e+07
4.00253e+07
3.95007e+07
3.89763e+07
3.84519e+07
3.79269e+07
3.74012e+07
3.68742e+07
3.63459e+07
3.58156e+07
3.52834e+07
3.47488e+07
3.42116e+07
3.36718e+07
3.31288e+07
3.25825e+07
3.2032e+07
3.14764e+07
3.09135e+07
3.03407e+07
2.9755e+07
2.91537e+07
2.85551e+07
2.80779e+07
)
;

boundaryField
{
    boundary
    {
        type            empty;
    }
    inlet
    {
        type            calculated;
        value           uniform 0;
    }
    outlet
    {
        type            calculated;
        value           uniform 0;
    }
}


// ************************************************************************* //
