/*--------------------------------*- C++ -*----------------------------------*\
  =========                 |
  \\      /  F ield         | OpenFOAM: The Open Source CFD Toolbox
   \\    /   O peration     | Website:  https://openfoam.org
    \\  /    A nd           | Version:  7
     \\/     M anipulation  |
\*---------------------------------------------------------------------------*/
FoamFile
{
    version     2.0;
    format      ascii;
    class       volScalarField;
    location    "0.00065";
    object      T;
}
// * * * * * * * * * * * * * * * * * * * * * * * * * * * * * * * * * * * * * //

dimensions      [0 0 0 1 0 0 0];

internalField   nonuniform List<scalar> 
500
(
299.995
299.987
299.979
299.971
299.964
299.958
299.953
299.949
299.946
299.944
299.944
299.945
299.947
299.949
299.953
299.957
299.961
299.966
299.972
299.978
299.985
299.992
300.001
300.011
300.022
300.034
300.049
300.065
300.084
300.106
300.13
300.157
300.187
300.22
300.257
300.297
300.34
300.387
300.436
300.488
300.542
300.598
300.656
300.714
300.772
300.831
300.888
300.944
300.999
301.051
301.101
301.148
301.191
301.232
301.269
301.303
301.333
301.36
301.384
301.405
301.424
301.44
301.453
301.465
301.474
301.482
301.489
301.494
301.499
301.502
301.505
301.507
301.509
301.511
301.512
301.512
301.513
301.514
301.514
301.514
301.514
301.515
301.515
301.515
301.515
301.515
301.515
301.515
301.515
301.515
301.515
301.515
301.515
301.515
301.515
301.515
301.515
301.515
301.516
301.516
301.516
301.516
301.516
301.516
301.516
301.516
301.516
301.516
301.516
301.516
301.516
301.516
301.516
301.517
301.517
301.517
301.517
301.517
301.517
301.517
301.517
301.517
301.517
301.518
301.518
301.519
301.519
301.519
301.519
301.519
301.519
301.519
301.519
301.519
301.519
301.519
301.519
301.519
301.52
301.52
301.52
301.52
301.52
301.52
301.521
301.521
301.521
301.521
301.522
301.522
301.522
301.522
301.522
301.523
301.523
301.523
301.523
301.523
301.524
301.524
301.524
301.524
301.525
301.525
301.525
301.525
301.526
301.526
301.526
301.526
301.527
301.527
301.527
301.527
301.528
301.528
301.528
301.528
301.529
301.529
301.529
301.529
301.529
301.53
301.53
301.53
301.53
301.53
301.53
301.531
301.531
301.531
301.531
301.531
301.531
301.531
301.531
301.531
301.531
301.531
301.531
301.531
301.531
301.531
301.531
301.531
301.53
301.53
301.53
301.53
301.529
301.529
301.529
301.528
301.528
301.527
301.527
301.526
301.526
301.525
301.524
301.524
301.523
301.522
301.521
301.52
301.519
301.518
301.517
301.516
301.515
301.514
301.513
301.511
301.51
301.508
301.507
301.505
301.504
301.502
301.5
301.499
301.497
301.495
301.493
301.491
301.489
301.487
301.485
301.483
301.481
301.479
301.476
301.474
301.471
301.469
301.466
301.463
301.461
301.458
301.455
301.452
301.449
301.446
301.444
301.441
301.44
301.441
301.449
301.477
301.561
301.805
302.499
304.468
310.032
325.473
365.148
448.903
579.939
733.626
886.577
1031.38
1165.04
1282.46
1380.3
1459.97
1524.49
1577.67
1622.35
1660.6
1693.86
1723.17
1749.28
1772.77
1794.07
1813.51
1831.37
1847.86
1863.15
1877.4
1890.71
1903.2
1914.95
1926.03
1936.5
1946.43
1955.84
1964.8
1973.33
1981.46
1989.22
1996.63
2003.51
2009.99
2016.27
2022.33
2028.2
2033.88
2039.39
2044.73
2049.92
2054.95
2059.84
2064.6
2069.22
2073.73
2078.11
2082.39
2086.55
2090.62
2094.58
2098.45
2102.23
2105.92
2109.53
2113.06
2116.51
2119.88
2123.18
2126.42
2129.58
2132.69
2135.73
2138.71
2141.63
2144.49
2147.3
2150.06
2152.77
2155.43
2158.04
2160.6
2163.12
2165.59
2168.02
2170.41
2172.76
2175.07
2177.35
2179.58
2181.78
2183.95
2186.08
2188.18
2190.25
2192.28
2194.29
2196.26
2198.21
2200.13
2202.02
2203.89
2205.73
2207.54
2209.33
2211.09
2212.83
2214.55
2216.25
2217.92
2219.58
2221.21
2222.82
2224.41
2225.99
2227.54
2229.07
2230.59
2232.09
2233.56
2235.03
2236.47
2237.9
2239.31
2240.7
2242.08
2243.44
2244.79
2246.12
2247.44
2248.74
2250.02
2251.3
2252.55
2253.8
2255.03
2256.25
2257.45
2258.64
2259.82
2260.99
2262.14
2263.28
2264.41
2265.53
2266.63
2267.73
2268.81
2269.88
2270.95
2272
2273.04
2274.07
2275.09
2276.1
2277.1
2278.09
2279.08
2280.05
2281.01
2281.96
2282.91
2283.84
2284.77
2285.69
2286.59
2287.49
2288.38
2289.26
2290.13
2290.99
2291.84
2292.68
2293.51
2294.33
2295.13
2295.93
2296.71
2297.48
2298.24
2298.99
2299.72
2300.43
2301.14
2301.85
2302.71
2303.44
2304.09
2304.73
2305.36
2305.97
2306.57
2307.14
2307.7
2308.25
2308.77
2309.28
2309.78
2310.25
2310.71
2311.16
2311.59
2312.01
2312.42
2312.81
2313.2
2313.58
2313.95
2314.32
2314.69
2315.07
2315.44
2315.83
2316.23
2316.64
2317.07
2317.52
2318
2318.51
2319.05
2319.63
2320.26
2320.93
2321.64
2322.41
2323.21
2324.05
2324.88
2325.63
2326.14
)
;

boundaryField
{
    boundary
    {
        type            empty;
    }
    inlet
    {
        type            fixedValue;
        value           uniform 300;
    }
    outlet
    {
        type            zeroGradient;
    }
}


// ************************************************************************* //
