/*--------------------------------*- C++ -*----------------------------------*\
  =========                 |
  \\      /  F ield         | OpenFOAM: The Open Source CFD Toolbox
   \\    /   O peration     | Website:  https://openfoam.org
    \\  /    A nd           | Version:  7
     \\/     M anipulation  |
\*---------------------------------------------------------------------------*/
FoamFile
{
    version     2.0;
    format      ascii;
    class       volScalarField;
    location    "0.0005";
    object      H2O2;
}
// * * * * * * * * * * * * * * * * * * * * * * * * * * * * * * * * * * * * * //

dimensions      [0 0 0 0 0 0 0];

internalField   nonuniform List<scalar> 
124
(
1.13326e-06
1.11912e-06
1.10528e-06
1.09172e-06
1.07843e-06
1.06541e-06
1.05265e-06
1.04014e-06
1.02787e-06
1.01584e-06
1.00405e-06
9.9247e-07
9.81112e-07
9.69966e-07
9.59025e-07
9.48286e-07
9.37741e-07
9.27386e-07
9.17216e-07
9.07225e-07
8.9741e-07
8.87765e-07
8.78285e-07
8.68966e-07
8.59803e-07
8.50791e-07
8.41927e-07
8.33206e-07
8.2462e-07
8.16146e-07
8.07807e-07
8.00034e-07
7.8969e-07
7.81958e-07
7.7423e-07
7.66543e-07
7.5892e-07
7.5137e-07
7.43896e-07
7.36496e-07
7.29168e-07
7.2191e-07
7.14716e-07
7.07585e-07
7.00511e-07
6.93491e-07
6.8652e-07
6.79595e-07
6.72711e-07
6.65863e-07
6.59046e-07
6.52256e-07
6.45488e-07
6.38736e-07
6.31997e-07
6.25264e-07
6.18533e-07
6.11799e-07
6.05058e-07
5.98305e-07
5.91536e-07
5.84746e-07
5.77932e-07
5.71091e-07
5.64219e-07
5.57314e-07
5.50374e-07
5.43398e-07
5.36383e-07
5.2933e-07
5.22239e-07
5.15111e-07
5.07947e-07
5.0075e-07
4.93523e-07
4.86269e-07
4.78993e-07
4.717e-07
4.64397e-07
4.57089e-07
4.49785e-07
4.42491e-07
4.35216e-07
4.27969e-07
4.20759e-07
4.13595e-07
4.06488e-07
3.99446e-07
3.9248e-07
3.85599e-07
3.78812e-07
3.72129e-07
3.65558e-07
3.59108e-07
3.52787e-07
3.46602e-07
3.40559e-07
3.34665e-07
3.28925e-07
3.23343e-07
3.17922e-07
3.12667e-07
3.07579e-07
3.0266e-07
2.9791e-07
2.93331e-07
2.88921e-07
2.84679e-07
2.80605e-07
2.76696e-07
2.72952e-07
2.6937e-07
2.65949e-07
2.62689e-07
2.59589e-07
2.56652e-07
2.5388e-07
2.51282e-07
2.48867e-07
2.46655e-07
2.44673e-07
2.42964e-07
2.41607e-07
2.40755e-07
)
;

boundaryField
{
    boundary
    {
        type            empty;
    }
    inlet
    {
        type            fixedValue;
        value           nonuniform 0();
    }
    outlet
    {
        type            zeroGradient;
    }
    procBoundary0to1
    {
        type            processor;
        value           uniform 1.14767e-06;
    }
}


// ************************************************************************* //
