/*--------------------------------*- C++ -*----------------------------------*\
  =========                 |
  \\      /  F ield         | OpenFOAM: The Open Source CFD Toolbox
   \\    /   O peration     | Website:  https://openfoam.org
    \\  /    A nd           | Version:  7
     \\/     M anipulation  |
\*---------------------------------------------------------------------------*/
FoamFile
{
    version     2.0;
    format      ascii;
    class       volScalarField;
    location    "0.0005";
    object      HO2;
}
// * * * * * * * * * * * * * * * * * * * * * * * * * * * * * * * * * * * * * //

dimensions      [0 0 0 0 0 0 0];

internalField   nonuniform List<scalar> 
124
(
2.8017e-06
2.78533e-06
2.76929e-06
2.75358e-06
2.73818e-06
2.72308e-06
2.70827e-06
2.69373e-06
2.67947e-06
2.66546e-06
2.6517e-06
2.63818e-06
2.62488e-06
2.61181e-06
2.59895e-06
2.58629e-06
2.57382e-06
2.56154e-06
2.54942e-06
2.53747e-06
2.52568e-06
2.51403e-06
2.50251e-06
2.49111e-06
2.47983e-06
2.46865e-06
2.45757e-06
2.44657e-06
2.43564e-06
2.42474e-06
2.41387e-06
2.40345e-06
2.38929e-06
2.37873e-06
2.36805e-06
2.35725e-06
2.34633e-06
2.3353e-06
2.32416e-06
2.31289e-06
2.30148e-06
2.28993e-06
2.27821e-06
2.26631e-06
2.25422e-06
2.24192e-06
2.2294e-06
2.21665e-06
2.20366e-06
2.19042e-06
2.1769e-06
2.16311e-06
2.14904e-06
2.13469e-06
2.12003e-06
2.10509e-06
2.08984e-06
2.0743e-06
2.05848e-06
2.04236e-06
2.02597e-06
2.00932e-06
1.99242e-06
1.97529e-06
1.95795e-06
1.94042e-06
1.92273e-06
1.9049e-06
1.88697e-06
1.86897e-06
1.85094e-06
1.8329e-06
1.81491e-06
1.79701e-06
1.77924e-06
1.76163e-06
1.74425e-06
1.72713e-06
1.71033e-06
1.69388e-06
1.67783e-06
1.66224e-06
1.64714e-06
1.63258e-06
1.6186e-06
1.60524e-06
1.59254e-06
1.58053e-06
1.56924e-06
1.55872e-06
1.54897e-06
1.54002e-06
1.53189e-06
1.5246e-06
1.51815e-06
1.51255e-06
1.5078e-06
1.50389e-06
1.50082e-06
1.49857e-06
1.49713e-06
1.49647e-06
1.49658e-06
1.49742e-06
1.49895e-06
1.50115e-06
1.50396e-06
1.50736e-06
1.51129e-06
1.51572e-06
1.52058e-06
1.52584e-06
1.53145e-06
1.53735e-06
1.54349e-06
1.54983e-06
1.5563e-06
1.56286e-06
1.56943e-06
1.57595e-06
1.58227e-06
1.5882e-06
1.59334e-06
1.59683e-06
)
;

boundaryField
{
    boundary
    {
        type            empty;
    }
    inlet
    {
        type            fixedValue;
        value           nonuniform 0();
    }
    outlet
    {
        type            zeroGradient;
    }
    procBoundary0to1
    {
        type            processor;
        value           uniform 2.81844e-06;
    }
}


// ************************************************************************* //
