/*--------------------------------*- C++ -*----------------------------------*\
  =========                 |
  \\      /  F ield         | OpenFOAM: The Open Source CFD Toolbox
   \\    /   O peration     | Website:  https://openfoam.org
    \\  /    A nd           | Version:  7
     \\/     M anipulation  |
\*---------------------------------------------------------------------------*/
FoamFile
{
    version     2.0;
    format      ascii;
    class       volScalarField;
    location    "0.00078";
    object      H2O;
}
// * * * * * * * * * * * * * * * * * * * * * * * * * * * * * * * * * * * * * //

dimensions      [0 0 0 0 0 0 0];

internalField   nonuniform List<scalar> 
125
(
7.878e-48
2.27571e-47
4.09224e-47
6.12903e-47
8.31246e-47
1.05927e-46
1.29363e-46
1.53206e-46
1.7731e-46
2.01581e-46
2.25965e-46
2.50436e-46
2.74986e-46
2.9962e-46
3.24353e-46
3.49202e-46
3.74187e-46
3.99324e-46
4.24632e-46
4.50122e-46
4.75808e-46
5.017e-46
5.27808e-46
5.54146e-46
5.8073e-46
6.07582e-46
6.34729e-46
6.62208e-46
6.90065e-46
7.18358e-46
7.47154e-46
7.76532e-46
8.06584e-46
8.3741e-46
8.6912e-46
9.0183e-46
9.35663e-46
9.7074e-46
1.00718e-45
1.0451e-45
1.08459e-45
1.12573e-45
1.1686e-45
1.2132e-45
1.25954e-45
1.30759e-45
1.35725e-45
1.40839e-45
1.46086e-45
1.51444e-45
1.56886e-45
1.62386e-45
1.67909e-45
1.73423e-45
1.78892e-45
1.84279e-45
1.89548e-45
1.94665e-45
1.99598e-45
2.04318e-45
2.08799e-45
2.13022e-45
2.16969e-45
2.20629e-45
2.23998e-45
2.27072e-45
2.29856e-45
2.32357e-45
2.34585e-45
2.36555e-45
2.38282e-45
2.39785e-45
2.41082e-45
2.42193e-45
2.43137e-45
2.43933e-45
2.44599e-45
2.45152e-45
2.45608e-45
2.4598e-45
2.46283e-45
2.46527e-45
2.46722e-45
2.46877e-45
2.46999e-45
2.47095e-45
2.4717e-45
2.47228e-45
2.47273e-45
2.47307e-45
2.47333e-45
2.47354e-45
2.47369e-45
2.47381e-45
2.4739e-45
2.47397e-45
2.47403e-45
2.47408e-45
2.47412e-45
2.47416e-45
2.47419e-45
2.47422e-45
2.47425e-45
2.47428e-45
2.47431e-45
2.47434e-45
2.47438e-45
2.47441e-45
2.47445e-45
2.47448e-45
2.47452e-45
2.47456e-45
2.47461e-45
2.47465e-45
2.4747e-45
2.47475e-45
2.4748e-45
2.47485e-45
2.47491e-45
2.47497e-45
2.47502e-45
2.47504e-45
2.47497e-45
2.47453e-45
2.47273e-45
)
;

boundaryField
{
    boundary
    {
        type            empty;
    }
    inlet
    {
        type            fixedValue;
        value           uniform 0;
    }
    outlet
    {
        type            zeroGradient;
    }
    procBoundary2to3
    {
        type            processor;
        value           uniform 2.46938e-45;
    }
}


// ************************************************************************* //
