/*--------------------------------*- C++ -*----------------------------------*\
  =========                 |
  \\      /  F ield         | OpenFOAM: The Open Source CFD Toolbox
   \\    /   O peration     | Website:  https://openfoam.org
    \\  /    A nd           | Version:  7
     \\/     M anipulation  |
\*---------------------------------------------------------------------------*/
FoamFile
{
    version     2.0;
    format      ascii;
    class       surfaceScalarField;
    location    "0.00078";
    object      phi;
}
// * * * * * * * * * * * * * * * * * * * * * * * * * * * * * * * * * * * * * //

dimensions      [1 0 -1 0 0 0 0];

internalField   nonuniform List<scalar> 
124
(
6.92999e-06
6.92988e-06
6.92979e-06
6.92971e-06
6.92965e-06
6.92961e-06
6.92958e-06
6.92957e-06
6.92957e-06
6.92959e-06
6.92961e-06
6.92965e-06
6.92969e-06
6.92972e-06
6.92976e-06
6.92978e-06
6.92979e-06
6.92978e-06
6.92976e-06
6.92972e-06
6.92965e-06
6.92957e-06
6.92947e-06
6.92935e-06
6.92921e-06
6.92905e-06
6.92888e-06
6.92868e-06
6.92847e-06
6.92823e-06
6.92797e-06
6.92769e-06
6.92738e-06
6.92704e-06
6.92666e-06
6.92624e-06
6.92578e-06
6.92528e-06
6.92472e-06
6.92411e-06
6.92343e-06
6.9227e-06
6.92191e-06
6.92105e-06
6.92013e-06
6.91915e-06
6.9181e-06
6.917e-06
6.91585e-06
6.91465e-06
6.91342e-06
6.91215e-06
6.91086e-06
6.90955e-06
6.90824e-06
6.90694e-06
6.90565e-06
6.90439e-06
6.90316e-06
6.90197e-06
6.90082e-06
6.89973e-06
6.89869e-06
6.89772e-06
6.89681e-06
6.89597e-06
6.89519e-06
6.89447e-06
6.89382e-06
6.89323e-06
6.89269e-06
6.89221e-06
6.89178e-06
6.8914e-06
6.89106e-06
6.89075e-06
6.89048e-06
6.89025e-06
6.89003e-06
6.88984e-06
6.88967e-06
6.88952e-06
6.88938e-06
6.88925e-06
6.88914e-06
6.88903e-06
6.88893e-06
6.88883e-06
6.88874e-06
6.88865e-06
6.88857e-06
6.88848e-06
6.8884e-06
6.88832e-06
6.88824e-06
6.88817e-06
6.88809e-06
6.88801e-06
6.88794e-06
6.88786e-06
6.88778e-06
6.88771e-06
6.88763e-06
6.88756e-06
6.88748e-06
6.88741e-06
6.88733e-06
6.88725e-06
6.88718e-06
6.8871e-06
6.88703e-06
6.88695e-06
6.88687e-06
6.8868e-06
6.88672e-06
6.88665e-06
6.88657e-06
6.88649e-06
6.88642e-06
6.88634e-06
6.88627e-06
6.88619e-06
6.88611e-06
6.88604e-06
)
;

boundaryField
{
    boundary
    {
        type            empty;
        value           nonuniform 0();
    }
    inlet
    {
        type            calculated;
        value           uniform -6.93009e-06;
    }
    outlet
    {
        type            calculated;
        value           nonuniform 0();
    }
    procBoundary2to3
    {
        type            processor;
        value           uniform 6.88596e-06;
    }
}


// ************************************************************************* //
