/*--------------------------------*- C++ -*----------------------------------*\
  =========                 |
  \\      /  F ield         | OpenFOAM: The Open Source CFD Toolbox
   \\    /   O peration     | Website:  https://openfoam.org
    \\  /    A nd           | Version:  7
     \\/     M anipulation  |
\*---------------------------------------------------------------------------*/
FoamFile
{
    version     2.0;
    format      ascii;
    class       volScalarField;
    location    "0.00074";
    object      H2O;
}
// * * * * * * * * * * * * * * * * * * * * * * * * * * * * * * * * * * * * * //

dimensions      [0 0 0 0 0 0 0];

internalField   nonuniform List<scalar> 
125
(
7.86838e-48
2.27205e-47
4.08418e-47
6.11481e-47
8.29057e-47
1.05622e-46
1.2897e-46
1.52738e-46
1.76793e-46
2.01057e-46
2.25488e-46
2.50067e-46
2.74792e-46
2.99667e-46
3.247e-46
3.49899e-46
3.75272e-46
4.00825e-46
4.26564e-46
4.52495e-46
4.78625e-46
5.04965e-46
5.31532e-46
5.58348e-46
5.85445e-46
6.12863e-46
6.40652e-46
6.68877e-46
6.97609e-46
7.26937e-46
7.56956e-46
7.87775e-46
8.19509e-46
8.52279e-46
8.86212e-46
9.21431e-46
9.58054e-46
9.96191e-46
1.03593e-45
1.07735e-45
1.12049e-45
1.16535e-45
1.21192e-45
1.26011e-45
1.30982e-45
1.36088e-45
1.41308e-45
1.46618e-45
1.51988e-45
1.57386e-45
1.62778e-45
1.68127e-45
1.73395e-45
1.78547e-45
1.83546e-45
1.8836e-45
1.92959e-45
1.97317e-45
2.01414e-45
2.05233e-45
2.08764e-45
2.12002e-45
2.14946e-45
2.17599e-45
2.19972e-45
2.22075e-45
2.23923e-45
2.25535e-45
2.26928e-45
2.28122e-45
2.29137e-45
2.29993e-45
2.30709e-45
2.31304e-45
2.31793e-45
2.32192e-45
2.32516e-45
2.32776e-45
2.32984e-45
2.33148e-45
2.33278e-45
2.33379e-45
2.33457e-45
2.33518e-45
2.33564e-45
2.33599e-45
2.33626e-45
2.33646e-45
2.33662e-45
2.33673e-45
2.33682e-45
2.33689e-45
2.33695e-45
2.33699e-45
2.33703e-45
2.33706e-45
2.33709e-45
2.33712e-45
2.33715e-45
2.33717e-45
2.3372e-45
2.33723e-45
2.33726e-45
2.33729e-45
2.33732e-45
2.33735e-45
2.33739e-45
2.33742e-45
2.33746e-45
2.3375e-45
2.33754e-45
2.33758e-45
2.33763e-45
2.33768e-45
2.33773e-45
2.33778e-45
2.33784e-45
2.33789e-45
2.33795e-45
2.33801e-45
2.33807e-45
2.3381e-45
2.33803e-45
2.33759e-45
2.3358e-45
)
;

boundaryField
{
    boundary
    {
        type            empty;
    }
    inlet
    {
        type            fixedValue;
        value           uniform 0;
    }
    outlet
    {
        type            zeroGradient;
    }
    procBoundary2to3
    {
        type            processor;
        value           uniform 2.33247e-45;
    }
}


// ************************************************************************* //
