/*--------------------------------*- C++ -*----------------------------------*\
  =========                 |
  \\      /  F ield         | OpenFOAM: The Open Source CFD Toolbox
   \\    /   O peration     | Website:  https://openfoam.org
    \\  /    A nd           | Version:  7
     \\/     M anipulation  |
\*---------------------------------------------------------------------------*/
FoamFile
{
    version     2.0;
    format      ascii;
    class       volScalarField;
    location    "0.00019";
    object      OH;
}
// * * * * * * * * * * * * * * * * * * * * * * * * * * * * * * * * * * * * * //

dimensions      [0 0 0 0 0 0 0];

internalField   nonuniform List<scalar> 
125
(
9.45268e-48
1.85516e-47
2.49631e-47
2.95612e-47
3.29933e-47
3.57101e-47
3.80206e-47
4.01339e-47
4.21852e-47
4.42511e-47
4.63609e-47
4.85052e-47
5.06463e-47
5.273e-47
5.46965e-47
5.64919e-47
5.80757e-47
5.94255e-47
6.05373e-47
6.1423e-47
6.21062e-47
6.2617e-47
6.29878e-47
6.32493e-47
6.34288e-47
6.35487e-47
6.36268e-47
6.36765e-47
6.37073e-47
6.37261e-47
6.37372e-47
6.37436e-47
6.37473e-47
6.37494e-47
6.37505e-47
6.37512e-47
6.37515e-47
6.37518e-47
6.37519e-47
6.3752e-47
6.37521e-47
6.37522e-47
6.37523e-47
6.37524e-47
6.37526e-47
6.37527e-47
6.37529e-47
6.37531e-47
6.37533e-47
6.37535e-47
6.37537e-47
6.3754e-47
6.37543e-47
6.37546e-47
6.37549e-47
6.37553e-47
6.37557e-47
6.37561e-47
6.37566e-47
6.37571e-47
6.37576e-47
6.37581e-47
6.37587e-47
6.37594e-47
6.376e-47
6.37607e-47
6.37615e-47
6.37623e-47
6.37631e-47
6.3764e-47
6.3765e-47
6.3766e-47
6.3767e-47
6.37681e-47
6.37693e-47
6.37705e-47
6.37718e-47
6.37731e-47
6.37745e-47
6.3776e-47
6.37775e-47
6.37791e-47
6.37808e-47
6.37826e-47
6.37844e-47
6.37863e-47
6.37882e-47
6.37903e-47
6.37924e-47
6.37946e-47
6.37969e-47
6.37992e-47
6.38017e-47
6.38042e-47
6.38068e-47
6.38095e-47
6.38123e-47
6.38152e-47
6.38181e-47
6.38212e-47
6.38243e-47
6.38275e-47
6.38309e-47
6.38343e-47
6.38378e-47
6.38414e-47
6.38451e-47
6.38488e-47
6.38527e-47
6.38567e-47
6.38607e-47
6.38648e-47
6.38691e-47
6.38734e-47
6.38778e-47
6.38822e-47
6.38868e-47
6.38914e-47
6.38961e-47
6.39009e-47
6.39056e-47
6.39104e-47
6.39152e-47
6.39196e-47
6.39235e-47
)
;

boundaryField
{
    boundary
    {
        type            empty;
    }
    inlet
    {
        type            fixedValue;
        value           uniform 0;
    }
    outlet
    {
        type            zeroGradient;
    }
    procBoundary2to3
    {
        type            processor;
        value           uniform 6.39266e-47;
    }
}


// ************************************************************************* //
