/*--------------------------------*- C++ -*----------------------------------*\
  =========                 |
  \\      /  F ield         | OpenFOAM: The Open Source CFD Toolbox
   \\    /   O peration     | Website:  https://openfoam.org
    \\  /    A nd           | Version:  7
     \\/     M anipulation  |
\*---------------------------------------------------------------------------*/
FoamFile
{
    version     2.0;
    format      ascii;
    class       volScalarField;
    location    "0.00037";
    object      H2O;
}
// * * * * * * * * * * * * * * * * * * * * * * * * * * * * * * * * * * * * * //

dimensions      [0 0 0 0 0 0 0];

internalField   nonuniform List<scalar> 
125
(
7.90647e-48
2.28717e-47
4.12009e-47
6.18439e-47
8.41055e-47
1.07538e-46
1.31865e-46
1.56937e-46
1.82692e-46
2.09138e-46
2.36333e-46
2.64374e-46
2.93385e-46
3.23499e-46
3.54849e-46
3.87549e-46
4.21675e-46
4.57252e-46
4.94233e-46
5.32492e-46
5.71812e-46
6.11889e-46
6.5234e-46
6.92712e-46
7.32513e-46
7.7123e-46
8.08363e-46
8.43453e-46
8.76107e-46
9.0602e-46
9.32984e-46
9.56899e-46
9.77765e-46
9.95675e-46
1.0108e-45
1.02336e-45
1.03363e-45
1.04188e-45
1.04842e-45
1.05351e-45
1.05742e-45
1.06037e-45
1.06257e-45
1.06418e-45
1.06535e-45
1.06618e-45
1.06676e-45
1.06717e-45
1.06744e-45
1.06763e-45
1.06776e-45
1.06784e-45
1.06789e-45
1.06793e-45
1.06795e-45
1.06796e-45
1.06797e-45
1.06798e-45
1.06798e-45
1.06799e-45
1.06799e-45
1.06799e-45
1.068e-45
1.068e-45
1.068e-45
1.06801e-45
1.06801e-45
1.06802e-45
1.06802e-45
1.06803e-45
1.06803e-45
1.06804e-45
1.06805e-45
1.06805e-45
1.06806e-45
1.06807e-45
1.06808e-45
1.06809e-45
1.0681e-45
1.06812e-45
1.06813e-45
1.06814e-45
1.06816e-45
1.06817e-45
1.06819e-45
1.06821e-45
1.06822e-45
1.06824e-45
1.06826e-45
1.06828e-45
1.06831e-45
1.06833e-45
1.06835e-45
1.06838e-45
1.0684e-45
1.06843e-45
1.06846e-45
1.06849e-45
1.06852e-45
1.06856e-45
1.06859e-45
1.06862e-45
1.06866e-45
1.0687e-45
1.06874e-45
1.06878e-45
1.06882e-45
1.06887e-45
1.06891e-45
1.06896e-45
1.069e-45
1.06905e-45
1.06911e-45
1.06916e-45
1.06921e-45
1.06927e-45
1.06932e-45
1.06938e-45
1.06944e-45
1.06951e-45
1.06957e-45
1.06964e-45
1.0697e-45
1.06968e-45
1.06896e-45
)
;

boundaryField
{
    boundary
    {
        type            empty;
    }
    inlet
    {
        type            fixedValue;
        value           uniform 0;
    }
    outlet
    {
        type            zeroGradient;
    }
    procBoundary2to3
    {
        type            processor;
        value           uniform 1.0674e-45;
    }
}


// ************************************************************************* //
