/*--------------------------------*- C++ -*----------------------------------*\
  =========                 |
  \\      /  F ield         | OpenFOAM: The Open Source CFD Toolbox
   \\    /   O peration     | Website:  https://openfoam.org
    \\  /    A nd           | Version:  7
     \\/     M anipulation  |
\*---------------------------------------------------------------------------*/
FoamFile
{
    version     2.0;
    format      ascii;
    class       volScalarField;
    location    "0.00037";
    object      H2O2;
}
// * * * * * * * * * * * * * * * * * * * * * * * * * * * * * * * * * * * * * //

dimensions      [0 0 0 0 0 0 0];

internalField   nonuniform List<scalar> 
125
(
2.00039e-52
6.43492e-52
1.2812e-51
2.11483e-51
3.14667e-51
4.37992e-51
5.81898e-51
7.46979e-51
9.34006e-51
1.14395e-50
1.37796e-50
1.63737e-50
1.92362e-50
2.23813e-50
2.58218e-50
2.95671e-50
3.36213e-50
3.79803e-50
4.26303e-50
4.75456e-50
5.26878e-50
5.80055e-50
6.34358e-50
6.89058e-50
7.43368e-50
7.96473e-50
8.47585e-50
8.9598e-50
9.41041e-50
9.8229e-50
1.0194e-49
1.05222e-49
1.08075e-49
1.10511e-49
1.12556e-49
1.14244e-49
1.15614e-49
1.16707e-49
1.17565e-49
1.18228e-49
1.18731e-49
1.19108e-49
1.19386e-49
1.19588e-49
1.19732e-49
1.19833e-49
1.19904e-49
1.19952e-49
1.19985e-49
1.20007e-49
1.20022e-49
1.20031e-49
1.20037e-49
1.20041e-49
1.20043e-49
1.20045e-49
1.20046e-49
1.20047e-49
1.20047e-49
1.20048e-49
1.20048e-49
1.20049e-49
1.20049e-49
1.2005e-49
1.2005e-49
1.20051e-49
1.20051e-49
1.20052e-49
1.20053e-49
1.20053e-49
1.20054e-49
1.20055e-49
1.20056e-49
1.20057e-49
1.20058e-49
1.20059e-49
1.20061e-49
1.20062e-49
1.20063e-49
1.20065e-49
1.20067e-49
1.20068e-49
1.2007e-49
1.20072e-49
1.20074e-49
1.20076e-49
1.20079e-49
1.20081e-49
1.20084e-49
1.20086e-49
1.20089e-49
1.20092e-49
1.20095e-49
1.20098e-49
1.20101e-49
1.20105e-49
1.20109e-49
1.20112e-49
1.20116e-49
1.2012e-49
1.20125e-49
1.20129e-49
1.20134e-49
1.20138e-49
1.20143e-49
1.20148e-49
1.20154e-49
1.20159e-49
1.20165e-49
1.20171e-49
1.20177e-49
1.20183e-49
1.20189e-49
1.20196e-49
1.20202e-49
1.20209e-49
1.20216e-49
1.20224e-49
1.20231e-49
1.20239e-49
1.20246e-49
1.20253e-49
1.20251e-49
1.20202e-49
1.19935e-49
)
;

boundaryField
{
    boundary
    {
        type            empty;
    }
    inlet
    {
        type            fixedValue;
        value           uniform 0;
    }
    outlet
    {
        type            zeroGradient;
    }
    procBoundary2to3
    {
        type            processor;
        value           uniform 1.1939e-49;
    }
}


// ************************************************************************* //
