/*--------------------------------*- C++ -*----------------------------------*\
  =========                 |
  \\      /  F ield         | OpenFOAM: The Open Source CFD Toolbox
   \\    /   O peration     | Website:  https://openfoam.org
    \\  /    A nd           | Version:  7
     \\/     M anipulation  |
\*---------------------------------------------------------------------------*/
FoamFile
{
    version     2.0;
    format      ascii;
    class       volScalarField;
    location    "0.00037";
    object      T;
}
// * * * * * * * * * * * * * * * * * * * * * * * * * * * * * * * * * * * * * //

dimensions      [0 0 0 1 0 0 0];

internalField   nonuniform List<scalar> 
125
(
300.003
300.007
300.011
300.016
300.022
300.029
300.037
300.046
300.057
300.071
300.087
300.107
300.131
300.16
300.194
300.233
300.278
300.33
300.387
300.449
300.517
300.589
300.664
300.741
300.818
300.895
300.97
301.042
301.11
301.173
301.23
301.282
301.328
301.368
301.402
301.431
301.455
301.474
301.49
301.503
301.513
301.52
301.526
301.53
301.534
301.536
301.538
301.539
301.54
301.54
301.541
301.541
301.541
301.541
301.541
301.542
301.542
301.542
301.542
301.542
301.542
301.542
301.542
301.542
301.542
301.542
301.542
301.542
301.542
301.542
301.542
301.542
301.542
301.542
301.542
301.542
301.542
301.542
301.542
301.542
301.542
301.542
301.542
301.542
301.542
301.543
301.543
301.543
301.543
301.543
301.543
301.543
301.543
301.543
301.543
301.543
301.543
301.543
301.544
301.544
301.544
301.544
301.544
301.544
301.544
301.544
301.544
301.545
301.545
301.545
301.545
301.545
301.545
301.545
301.545
301.546
301.546
301.546
301.546
301.546
301.546
301.547
301.547
301.547
301.547
)
;

boundaryField
{
    boundary
    {
        type            empty;
    }
    inlet
    {
        type            fixedValue;
        value           uniform 300;
    }
    outlet
    {
        type            zeroGradient;
    }
    procBoundary2to3
    {
        type            processor;
        value           uniform 301.547;
    }
}


// ************************************************************************* //
