/*--------------------------------*- C++ -*----------------------------------*\
  =========                 |
  \\      /  F ield         | OpenFOAM: The Open Source CFD Toolbox
   \\    /   O peration     | Website:  https://openfoam.org
    \\  /    A nd           | Version:  7
     \\/     M anipulation  |
\*---------------------------------------------------------------------------*/
FoamFile
{
    version     2.0;
    format      ascii;
    class       volScalarField;
    location    "0.00075";
    object      O;
}
// * * * * * * * * * * * * * * * * * * * * * * * * * * * * * * * * * * * * * //

dimensions      [0 0 0 0 0 0 0];

internalField   nonuniform List<scalar> 
125
(
1.57568e-47
3.75671e-47
5.94606e-47
8.13147e-47
1.03096e-46
1.24796e-46
1.46411e-46
1.67948e-46
1.89418e-46
2.10839e-46
2.32232e-46
2.5362e-46
2.7503e-46
2.96485e-46
3.18008e-46
3.39617e-46
3.61328e-46
3.83154e-46
4.05105e-46
4.27192e-46
4.49423e-46
4.7181e-46
4.94368e-46
5.17115e-46
5.40076e-46
5.63284e-46
5.86779e-46
6.10609e-46
6.34831e-46
6.59511e-46
6.84725e-46
7.10555e-46
7.37087e-46
7.64416e-46
7.92636e-46
8.21842e-46
8.52124e-46
8.83567e-46
9.16244e-46
9.50212e-46
9.85512e-46
1.02216e-45
1.06014e-45
1.09943e-45
1.13995e-45
1.18159e-45
1.22423e-45
1.26768e-45
1.31177e-45
1.35625e-45
1.40089e-45
1.44541e-45
1.48955e-45
1.53301e-45
1.57553e-45
1.61683e-45
1.65667e-45
1.69482e-45
1.73107e-45
1.76528e-45
1.7973e-45
1.82705e-45
1.85448e-45
1.87956e-45
1.90233e-45
1.92284e-45
1.94116e-45
1.95739e-45
1.97168e-45
1.98414e-45
1.99494e-45
2.00421e-45
2.01212e-45
2.01882e-45
2.02444e-45
2.02912e-45
2.033e-45
2.03618e-45
2.03877e-45
2.04087e-45
2.04256e-45
2.0439e-45
2.04497e-45
2.04581e-45
2.04646e-45
2.04698e-45
2.04737e-45
2.04768e-45
2.04791e-45
2.04809e-45
2.04823e-45
2.04833e-45
2.04842e-45
2.04848e-45
2.04853e-45
2.04857e-45
2.04861e-45
2.04864e-45
2.04867e-45
2.0487e-45
2.04872e-45
2.04875e-45
2.04877e-45
2.0488e-45
2.04883e-45
2.04886e-45
2.04889e-45
2.04892e-45
2.04895e-45
2.04899e-45
2.04902e-45
2.04906e-45
2.0491e-45
2.04914e-45
2.04918e-45
2.04923e-45
2.04927e-45
2.04932e-45
2.04937e-45
2.04941e-45
2.04944e-45
2.04942e-45
2.04926e-45
2.04867e-45
2.04686e-45
)
;

boundaryField
{
    boundary
    {
        type            empty;
    }
    inlet
    {
        type            fixedValue;
        value           uniform 0;
    }
    outlet
    {
        type            zeroGradient;
    }
    procBoundary2to3
    {
        type            processor;
        value           uniform 2.04422e-45;
    }
}


// ************************************************************************* //
