/*--------------------------------*- C++ -*----------------------------------*\
  =========                 |
  \\      /  F ield         | OpenFOAM: The Open Source CFD Toolbox
   \\    /   O peration     | Website:  https://openfoam.org
    \\  /    A nd           | Version:  7
     \\/     M anipulation  |
\*---------------------------------------------------------------------------*/
FoamFile
{
    version     2.0;
    format      ascii;
    class       volScalarField;
    location    "0.00055";
    object      cellCpuTimes;
}
// * * * * * * * * * * * * * * * * * * * * * * * * * * * * * * * * * * * * * //

dimensions      [0 0 0 0 0 0 0];

internalField   nonuniform List<scalar> 
500
(
8.8e-05
5.1e-05
5e-05
4.9e-05
4.9e-05
4.9e-05
4.9e-05
4.7e-05
4.9e-05
4.9e-05
4.9e-05
4.8e-05
4.8e-05
4.8e-05
4.8e-05
4.8e-05
4.8e-05
4.9e-05
4.9e-05
4.8e-05
4.9e-05
4.8e-05
4.8e-05
4.8e-05
4.9e-05
4.8e-05
4.8e-05
4.8e-05
4.8e-05
4.9e-05
4.7e-05
4.9e-05
4.8e-05
4.9e-05
4.8e-05
6.1e-05
5e-05
4.8e-05
4.9e-05
4.9e-05
4.9e-05
4.8e-05
4.8e-05
4.8e-05
4.8e-05
4.8e-05
4.9e-05
4.8e-05
4.9e-05
4.9e-05
4.8e-05
4.8e-05
4.8e-05
4.9e-05
4.8e-05
4.8e-05
4.8e-05
4.8e-05
4.9e-05
4.8e-05
4.9e-05
4.9e-05
4.8e-05
4.8e-05
4.8e-05
4.8e-05
4.9e-05
4.8e-05
4.8e-05
4.8e-05
4.8e-05
4.9e-05
4.8e-05
4.8e-05
4.8e-05
4.9e-05
4.8e-05
4.8e-05
4.8e-05
4.8e-05
4.9e-05
4.8e-05
4.8e-05
4.8e-05
4.8e-05
4.8e-05
4.9e-05
4.8e-05
4.8e-05
4.9e-05
4.8e-05
4.8e-05
4.8e-05
4.8e-05
4.9e-05
4.8e-05
4.8e-05
4.8e-05
4.9e-05
4.8e-05
4.8e-05
4.9e-05
4.8e-05
4.8e-05
4.9e-05
4.8e-05
4.8e-05
4.8e-05
4.8e-05
4.8e-05
4.8e-05
4.8e-05
4.8e-05
4.8e-05
5.3e-05
4.8e-05
4.8e-05
4.9e-05
4.8e-05
4.8e-05
4.8e-05
4.8e-05
4.8e-05
4.8e-05
4.7e-05
8.7e-05
5.7e-05
4.8e-05
4.7e-05
4.6e-05
4.7e-05
4.7e-05
4.7e-05
4.6e-05
4.7e-05
4.7e-05
4.7e-05
4.6e-05
4.7e-05
4.7e-05
4.7e-05
4.7e-05
4.6e-05
4.8e-05
4.7e-05
4.7e-05
4.7e-05
4.7e-05
4.6e-05
4.7e-05
4.7e-05
4.7e-05
4.7e-05
4.7e-05
4.7e-05
4.7e-05
4.7e-05
4.7e-05
4.7e-05
4.7e-05
4.7e-05
5.4e-05
4.6e-05
4.7e-05
4.7e-05
4.6e-05
4.7e-05
4.7e-05
4.7e-05
4.6e-05
4.6e-05
4.7e-05
4.7e-05
4.6e-05
4.6e-05
4.7e-05
4.7e-05
4.7e-05
4.7e-05
4.7e-05
4.7e-05
4.7e-05
4.6e-05
4.6e-05
4.6e-05
4.6e-05
4.7e-05
4.6e-05
4.6e-05
4.7e-05
4.7e-05
4.7e-05
4.8e-05
4.7e-05
4.7e-05
4.6e-05
4.7e-05
4.6e-05
4.7e-05
4.6e-05
4.7e-05
4.7e-05
4.7e-05
4.7e-05
4.7e-05
4.7e-05
4.6e-05
4.6e-05
4.6e-05
4.7e-05
4.6e-05
4.7e-05
4.6e-05
4.7e-05
4.7e-05
4.8e-05
4.7e-05
4.7e-05
4.6e-05
4.6e-05
4.7e-05
4.7e-05
4.7e-05
4.6e-05
4.7e-05
4.7e-05
4.7e-05
4.7e-05
4.7e-05
4.6e-05
4.7e-05
4.6e-05
4.6e-05
4.7e-05
4.6e-05
4.6e-05
4.7e-05
4.7e-05
4.7e-05
4.6e-05
4.7e-05
4.7e-05
4.7e-05
5.8e-05
4.8e-05
4.7e-05
4.6e-05
4.6e-05
4.7e-05
4.7e-05
4.6e-05
4.7e-05
4.7e-05
4.7e-05
4.7e-05
4.7e-05
4.6e-05
4.6e-05
4.7e-05
4.6e-05
4.7e-05
4.7e-05
4.6e-05
4.7e-05
4.7e-05
4.6e-05
4.7e-05
4.7e-05
4.6e-05
4.5e-05
4.9e-05
5.7e-05
6.9e-05
8.4e-05
0.000113
0.000136
0.000154
0.000162
0.000166
0.000164
0.000192
0.000247
0.000262
0.000256
0.000261
0.000237
0.000246
0.000254
0.000226
0.000214
0.000202
0.000174
0.000182
0.000218
0.000162
0.000158
0.000147
0.000146
0.000149
0.000145
0.000146
0.000146
0.000138
0.000139
0.000149
0.000145
0.000145
0.000144
0.00014
0.00014
0.000131
0.000126
0.000127
0.000128
0.000123
0.000124
0.000124
0.00013
0.000131
0.000128
0.000126
0.000127
0.000127
0.000123
0.000122
0.000122
0.000123
0.000123
0.00012
0.000125
0.000127
0.000122
0.000122
0.000124
0.000123
0.000127
0.000119
0.000119
0.000119
0.000119
0.000119
0.000119
0.000119
0.000117
0.000116
0.000117
0.000114
0.000114
0.000115
0.000111
0.000111
0.000112
0.000112
0.000111
0.000112
0.000112
0.000112
0.000111
0.000112
0.000112
0.000112
0.000112
0.000114
0.000113
0.000113
0.000114
0.000112
0.000112
0.000111
0.000121
0.000113
0.000111
0.000112
0.000111
0.000112
0.000111
0.000115
0.00011
0.000111
0.00011
0.00011
0.00011
0.00011
0.00011
0.00011
0.00011
0.00011
0.000109
0.00011
0.00011
0.000109
0.00011
0.000106
0.000105
0.000105
0.000109
0.000105
0.000149
0.000111
0.000106
0.000106
0.000103
0.0001
0.0001
9.9e-05
9.9e-05
9.7e-05
9.8e-05
9.7e-05
9.8e-05
9.7e-05
9.7e-05
9.7e-05
0.000103
0.000106
0.000102
0.000101
0.000101
0.000101
0.000101
0.000101
0.0001
9.7e-05
0.000101
9.6e-05
9.7e-05
0.000101
9.7e-05
9.6e-05
0.0001
9.7e-05
9.8e-05
9.8e-05
9.8e-05
9.7e-05
9.6e-05
9.6e-05
9.5e-05
9.5e-05
9.6e-05
9.5e-05
9.6e-05
9.5e-05
9.5e-05
9.5e-05
9.6e-05
9.4e-05
9.5e-05
9.5e-05
9.5e-05
9.4e-05
9.6e-05
9.4e-05
9.5e-05
0.000105
9.6e-05
9.5e-05
9.5e-05
9.5e-05
9.5e-05
9.5e-05
9.5e-05
9.5e-05
9.5e-05
9.4e-05
9.4e-05
9.4e-05
9.5e-05
9.4e-05
9.5e-05
9.4e-05
9.5e-05
9.5e-05
9.4e-05
9.5e-05
9.5e-05
9.5e-05
9.6e-05
9.5e-05
9.5e-05
9.3e-05
9.3e-05
9.2e-05
9.3e-05
9.3e-05
9.3e-05
9.3e-05
9.2e-05
9.3e-05
9.3e-05
9.3e-05
9.4e-05
9.5e-05
9.4e-05
9.6e-05
9.4e-05
9.9e-05
0.000106
0.000108
0.000112
)
;

boundaryField
{
    boundary
    {
        type            empty;
    }
    inlet
    {
        type            calculated;
        value           uniform 0;
    }
    outlet
    {
        type            calculated;
        value           uniform 0;
    }
}


// ************************************************************************* //
