/*--------------------------------*- C++ -*----------------------------------*\
  =========                 |
  \\      /  F ield         | OpenFOAM: The Open Source CFD Toolbox
   \\    /   O peration     | Website:  https://openfoam.org
    \\  /    A nd           | Version:  7
     \\/     M anipulation  |
\*---------------------------------------------------------------------------*/
FoamFile
{
    version     2.0;
    format      ascii;
    class       volScalarField;
    location    "0.00055";
    object      H2O;
}
// * * * * * * * * * * * * * * * * * * * * * * * * * * * * * * * * * * * * * //

dimensions      [0 0 0 0 0 0 0];

internalField   nonuniform List<scalar> 
500
(
7.89379e-48
2.28229e-47
4.10912e-47
6.16351e-47
8.37356e-47
1.06908e-46
1.30828e-46
1.55278e-46
1.80115e-46
2.05249e-46
2.30627e-46
2.56221e-46
2.82026e-46
3.08056e-46
3.34337e-46
3.60914e-46
3.87846e-46
4.15206e-46
4.43083e-46
4.71582e-46
5.00819e-46
5.30923e-46
5.62027e-46
5.94271e-46
6.27789e-46
6.62705e-46
6.99123e-46
7.37119e-46
7.76734e-46
8.17959e-46
8.60736e-46
9.04948e-46
9.50414e-46
9.96897e-46
1.0441e-45
1.09167e-45
1.13923e-45
1.18636e-45
1.23263e-45
1.27763e-45
1.32095e-45
1.36223e-45
1.40114e-45
1.43743e-45
1.4709e-45
1.50144e-45
1.52899e-45
1.55358e-45
1.57526e-45
1.59418e-45
1.6105e-45
1.62442e-45
1.63616e-45
1.64596e-45
1.65404e-45
1.66065e-45
1.66598e-45
1.67024e-45
1.67361e-45
1.67624e-45
1.67829e-45
1.67985e-45
1.68104e-45
1.68194e-45
1.6826e-45
1.68309e-45
1.68345e-45
1.68372e-45
1.6839e-45
1.68404e-45
1.68414e-45
1.68421e-45
1.68426e-45
1.68429e-45
1.68432e-45
1.68434e-45
1.68436e-45
1.68437e-45
1.68438e-45
1.68439e-45
1.68441e-45
1.68442e-45
1.68443e-45
1.68444e-45
1.68446e-45
1.68447e-45
1.68449e-45
1.6845e-45
1.68452e-45
1.68454e-45
1.68456e-45
1.68458e-45
1.6846e-45
1.68463e-45
1.68465e-45
1.68468e-45
1.68471e-45
1.68473e-45
1.68476e-45
1.6848e-45
1.68483e-45
1.68486e-45
1.6849e-45
1.68494e-45
1.68498e-45
1.68502e-45
1.68507e-45
1.68511e-45
1.68516e-45
1.68521e-45
1.68526e-45
1.68531e-45
1.68537e-45
1.68543e-45
1.68549e-45
1.68555e-45
1.68561e-45
1.68568e-45
1.68575e-45
1.68581e-45
1.68588e-45
1.68591e-45
1.68585e-45
1.68542e-45
1.68361e-45
1.68024e-45
1.68034e-45
1.68047e-45
1.68062e-45
1.68082e-45
1.68106e-45
1.68136e-45
1.68173e-45
1.68216e-45
1.68266e-45
1.68322e-45
1.68382e-45
1.68445e-45
1.68509e-45
1.68571e-45
1.68629e-45
1.68682e-45
1.68729e-45
1.68767e-45
1.68798e-45
1.68822e-45
1.68838e-45
1.68848e-45
1.68854e-45
1.68855e-45
1.68853e-45
1.6885e-45
1.68846e-45
1.68841e-45
1.68838e-45
1.68837e-45
1.68838e-45
1.68842e-45
1.68849e-45
1.68859e-45
1.68873e-45
1.68889e-45
1.68909e-45
1.68931e-45
1.68955e-45
1.6898e-45
1.69007e-45
1.69034e-45
1.69061e-45
1.69088e-45
1.69114e-45
1.69139e-45
1.69162e-45
1.69185e-45
1.69206e-45
1.69225e-45
1.69242e-45
1.69258e-45
1.69273e-45
1.69286e-45
1.69298e-45
1.69308e-45
1.69317e-45
1.69325e-45
1.69332e-45
1.69338e-45
1.69342e-45
1.69345e-45
1.69347e-45
1.69348e-45
1.69347e-45
1.69346e-45
1.69342e-45
1.69338e-45
1.69332e-45
1.69324e-45
1.69315e-45
1.69304e-45
1.69292e-45
1.69278e-45
1.69265e-45
1.69258e-45
1.69284e-45
1.69465e-45
1.70313e-45
1.74004e-45
1.89713e-45
2.55821e-45
5.31838e-45
1.67636e-44
6.39253e-44
2.57161e-43
1.045e-42
4.24417e-42
1.71979e-41
6.95736e-41
2.81398e-40
1.13998e-39
4.63507e-39
1.89553e-38
7.81279e-38
3.25118e-37
1.36761e-36
5.81819e-36
2.50262e-35
1.08727e-34
4.76335e-34
2.10014e-33
9.29842e-33
4.12556e-32
1.83077e-31
8.11225e-31
3.58433e-30
1.57748e-29
6.90959e-29
3.01029e-28
1.30393e-27
5.61409e-27
2.40227e-26
1.02157e-25
4.3176e-25
1.81382e-24
7.5753e-24
3.14602e-23
1.29957e-22
5.34128e-22
2.18499e-21
8.89958e-21
3.61049e-20
1.45949e-19
5.88077e-19
2.37752e-18
9.55275e-18
3.82054e-17
1.52426e-16
6.07085e-16
2.41469e-15
9.59413e-15
3.80872e-14
1.51099e-13
5.99129e-13
2.37471e-12
9.4097e-12
3.72775e-11
1.47653e-10
5.84756e-10
2.31546e-09
9.16689e-09
3.62831e-08
1.43562e-07
5.67729e-07
2.24308e-06
8.84703e-06
3.47642e-05
0.000135391
0.00051537
0.00185085
0.00582565
0.0146562
0.0285653
0.0460822
0.0672735
0.0921256
0.11806
0.140987
0.158304
0.173185
0.181837
0.18765
0.191617
0.194414
0.196476
0.198072
0.19937
0.200471
0.201437
0.202309
0.203109
0.203854
0.204554
0.205216
0.205845
0.206446
0.20702
0.20757
0.208099
0.208607
0.209096
0.209567
0.210022
0.210461
0.210885
0.211281
0.211659
0.212028
0.212387
0.212737
0.213078
0.213412
0.213738
0.214056
0.214367
0.214671
0.214969
0.215261
0.215546
0.215825
0.216099
0.216367
0.21663
0.216888
0.217141
0.217389
0.217632
0.217871
0.218105
0.218336
0.218562
0.218784
0.219003
0.219217
0.219428
0.219636
0.21984
0.220041
0.220238
0.220432
0.220624
0.220812
0.220998
0.221181
0.221361
0.221539
0.221714
0.221886
0.222056
0.222224
0.22239
0.222553
0.222715
0.222874
0.223031
0.223187
0.22334
0.223492
0.223642
0.22379
0.223936
0.224081
0.224224
0.224365
0.224505
0.224644
0.224781
0.224917
0.225051
0.225184
0.225315
0.225445
0.225574
0.225701
0.225828
0.225953
0.226076
0.226199
0.22632
0.22644
0.226559
0.226677
0.226794
0.22691
0.227024
0.227138
0.227251
0.227363
0.227473
0.227583
0.227693
0.227801
0.227908
0.228015
0.228121
0.228227
0.228331
0.228436
0.228539
0.228642
0.228745
0.228847
0.228949
0.22905
0.229151
0.229252
0.229353
0.229454
0.229554
0.229655
0.229755
0.229856
0.229957
0.230058
0.230159
0.23026
0.230361
0.230458
0.230598
0.230703
0.230809
0.230916
0.231024
0.231133
0.231243
0.231354
0.231467
0.231582
0.231698
0.231815
0.231935
0.232056
0.232178
0.232303
0.232429
0.232557
0.232687
0.232819
0.232952
0.233088
0.233225
0.233363
0.233503
0.233645
0.233788
0.233932
0.234077
0.234223
0.234371
0.234518
0.234667
0.234815
0.234964
0.235113
0.235261
0.235409
0.235557
0.235703
0.235849
0.235993
0.236136
0.236277
0.236416
0.236554
0.236689
0.236822
0.236952
0.23708
0.237205
0.237328
0.237447
0.237564
0.237678
0.237788
0.237896
0.238
0.238102
0.2382
0.238295
0.238387
0.238476
0.238562
0.238645
0.238725
0.238801
0.238875
0.238944
0.239011
0.239073
0.23913
0.239181
0.239223
0.23925
)
;

boundaryField
{
    boundary
    {
        type            empty;
    }
    inlet
    {
        type            fixedValue;
        value           uniform 0;
    }
    outlet
    {
        type            zeroGradient;
    }
}


// ************************************************************************* //
