/*--------------------------------*- C++ -*----------------------------------*\
  =========                 |
  \\      /  F ield         | OpenFOAM: The Open Source CFD Toolbox
   \\    /   O peration     | Website:  https://openfoam.org
    \\  /    A nd           | Version:  7
     \\/     M anipulation  |
\*---------------------------------------------------------------------------*/
FoamFile
{
    version     2.0;
    format      ascii;
    class       volScalarField;
    location    "0.00055";
    object      H2O2;
}
// * * * * * * * * * * * * * * * * * * * * * * * * * * * * * * * * * * * * * //

dimensions      [0 0 0 0 0 0 0];

internalField   nonuniform List<scalar> 
500
(
1.99784e-52
6.42248e-52
1.27779e-51
2.10714e-51
3.13097e-51
4.34992e-51
5.76468e-51
7.37606e-51
9.18507e-51
1.11931e-50
1.34019e-50
1.58139e-50
1.84325e-50
2.12618e-50
2.43074e-50
2.75765e-50
3.10778e-50
3.48223e-50
3.88228e-50
4.30945e-50
4.76545e-50
5.25214e-50
5.77153e-50
6.32564e-50
6.9164e-50
7.54554e-50
8.21441e-50
8.9238e-50
9.67377e-50
1.04635e-49
1.1291e-49
1.21533e-49
1.30461e-49
1.39638e-49
1.48997e-49
1.58461e-49
1.67944e-49
1.77357e-49
1.86606e-49
1.956e-49
2.04253e-49
2.12487e-49
2.20234e-49
2.27441e-49
2.34068e-49
2.40092e-49
2.45503e-49
2.50308e-49
2.54525e-49
2.58182e-49
2.61317e-49
2.63974e-49
2.662e-49
2.68043e-49
2.69553e-49
2.70776e-49
2.71755e-49
2.72532e-49
2.7314e-49
2.73612e-49
2.73974e-49
2.74249e-49
2.74456e-49
2.74611e-49
2.74724e-49
2.74808e-49
2.74868e-49
2.74911e-49
2.74942e-49
2.74964e-49
2.7498e-49
2.74991e-49
2.74999e-49
2.75005e-49
2.75009e-49
2.75013e-49
2.75015e-49
2.75018e-49
2.7502e-49
2.75022e-49
2.75024e-49
2.75026e-49
2.75028e-49
2.75031e-49
2.75033e-49
2.75036e-49
2.75038e-49
2.75041e-49
2.75045e-49
2.75048e-49
2.75051e-49
2.75055e-49
2.75059e-49
2.75063e-49
2.75068e-49
2.75072e-49
2.75077e-49
2.75082e-49
2.75088e-49
2.75094e-49
2.751e-49
2.75106e-49
2.75112e-49
2.75119e-49
2.75126e-49
2.75134e-49
2.75142e-49
2.7515e-49
2.75158e-49
2.75167e-49
2.75177e-49
2.75186e-49
2.75196e-49
2.75206e-49
2.75217e-49
2.75228e-49
2.7524e-49
2.75251e-49
2.75263e-49
2.75276e-49
2.75286e-49
2.75291e-49
2.75271e-49
2.75151e-49
2.74639e-49
2.73616e-49
2.73632e-49
2.73652e-49
2.73677e-49
2.73707e-49
2.73746e-49
2.73795e-49
2.73856e-49
2.73932e-49
2.74022e-49
2.74128e-49
2.74248e-49
2.7438e-49
2.74518e-49
2.74659e-49
2.74795e-49
2.74921e-49
2.75031e-49
2.75122e-49
2.75191e-49
2.75238e-49
2.75262e-49
2.75267e-49
2.75256e-49
2.75234e-49
2.75205e-49
2.75174e-49
2.75146e-49
2.75123e-49
2.7511e-49
2.75108e-49
2.75118e-49
2.75142e-49
2.75179e-49
2.75228e-49
2.75288e-49
2.75357e-49
2.75434e-49
2.75516e-49
2.75602e-49
2.7569e-49
2.75778e-49
2.75863e-49
2.75946e-49
2.76025e-49
2.76099e-49
2.76168e-49
2.76231e-49
2.76288e-49
2.7634e-49
2.76386e-49
2.76428e-49
2.76464e-49
2.76497e-49
2.76525e-49
2.7655e-49
2.76572e-49
2.76591e-49
2.76607e-49
2.7662e-49
2.76631e-49
2.76639e-49
2.76646e-49
2.7665e-49
2.76652e-49
2.76651e-49
2.76648e-49
2.76643e-49
2.76635e-49
2.76625e-49
2.76612e-49
2.76596e-49
2.76577e-49
2.76555e-49
2.76529e-49
2.76501e-49
2.76469e-49
2.76434e-49
2.76396e-49
2.76362e-49
2.76373e-49
2.7668e-49
2.78835e-49
2.923e-49
3.74204e-49
8.66348e-49
3.79439e-48
2.10494e-47
1.21767e-46
7.0403e-46
4.03771e-45
2.29389e-44
1.29056e-43
7.18977e-43
3.96602e-42
2.16611e-41
1.17134e-40
6.27129e-40
3.32431e-39
1.74472e-38
9.06657e-38
4.6653e-37
2.37719e-36
1.1996e-35
5.99578e-35
2.96853e-34
1.45609e-33
7.07706e-33
3.40887e-32
1.62759e-31
7.70456e-31
3.61672e-30
1.68405e-29
7.78014e-29
3.56729e-28
1.62386e-27
7.34124e-27
3.29734e-26
1.472e-25
6.53404e-25
2.88522e-24
1.26793e-23
5.54784e-23
2.41804e-22
1.05026e-21
4.54787e-21
1.97665e-20
8.53759e-20
3.67176e-19
1.57573e-18
6.75249e-18
2.89048e-17
1.23625e-16
5.28401e-16
2.25742e-15
9.64073e-15
4.11627e-14
1.75722e-13
7.50056e-13
3.20125e-12
1.36616e-11
5.82949e-11
2.48709e-10
1.06086e-09
4.52354e-09
1.92773e-08
8.2053e-08
3.48202e-07
1.46449e-06
5.98363e-06
2.22745e-05
6.36488e-05
0.000108632
0.000123898
9.02144e-05
4.44465e-05
1.80213e-05
7.77366e-06
4.80641e-06
4.46455e-06
4.93794e-06
5.65681e-06
6.1752e-06
6.52567e-06
6.71617e-06
6.7788e-06
6.74787e-06
6.65243e-06
6.51451e-06
6.35003e-06
6.17022e-06
5.98285e-06
5.79319e-06
5.6048e-06
5.42007e-06
5.2405e-06
5.06704e-06
4.90022e-06
4.74029e-06
4.58732e-06
4.44126e-06
4.30193e-06
4.16914e-06
4.04263e-06
3.92217e-06
3.80751e-06
3.69847e-06
3.59798e-06
3.50348e-06
3.41281e-06
3.32578e-06
3.2422e-06
3.16191e-06
3.08476e-06
3.01058e-06
2.93923e-06
2.87059e-06
2.80451e-06
2.74088e-06
2.67957e-06
2.62048e-06
2.56351e-06
2.50855e-06
2.45551e-06
2.40431e-06
2.35485e-06
2.30706e-06
2.26087e-06
2.21619e-06
2.17298e-06
2.13115e-06
2.09066e-06
2.05144e-06
2.01344e-06
1.97661e-06
1.94089e-06
1.90625e-06
1.87264e-06
1.84002e-06
1.80834e-06
1.77757e-06
1.74768e-06
1.71862e-06
1.69037e-06
1.6629e-06
1.63617e-06
1.61016e-06
1.58484e-06
1.56018e-06
1.53616e-06
1.51276e-06
1.48996e-06
1.46772e-06
1.44604e-06
1.42489e-06
1.40426e-06
1.38412e-06
1.36447e-06
1.34527e-06
1.32653e-06
1.30822e-06
1.29033e-06
1.27284e-06
1.25575e-06
1.23904e-06
1.2227e-06
1.20672e-06
1.19109e-06
1.1758e-06
1.16084e-06
1.1462e-06
1.13187e-06
1.1178e-06
1.10402e-06
1.09052e-06
1.07729e-06
1.06433e-06
1.05162e-06
1.03916e-06
1.02695e-06
1.01498e-06
1.00324e-06
9.91721e-07
9.80424e-07
9.6934e-07
9.58463e-07
9.47789e-07
9.37312e-07
9.27026e-07
9.16926e-07
9.07008e-07
8.97267e-07
8.87698e-07
8.78297e-07
8.6906e-07
8.59982e-07
8.51059e-07
8.42287e-07
8.33662e-07
8.25181e-07
8.1684e-07
8.08636e-07
8.00564e-07
7.92622e-07
7.84807e-07
7.77114e-07
7.69542e-07
7.62087e-07
7.54746e-07
7.47516e-07
7.40395e-07
7.33378e-07
7.26464e-07
7.19648e-07
7.1293e-07
7.06306e-07
6.99779e-07
6.93351e-07
6.87027e-07
6.81136e-07
6.72848e-07
6.66681e-07
6.60591e-07
6.54555e-07
6.48573e-07
6.42645e-07
6.36766e-07
6.30933e-07
6.25143e-07
6.19391e-07
6.13672e-07
6.07984e-07
6.02322e-07
5.96681e-07
5.91059e-07
5.85451e-07
5.79854e-07
5.74264e-07
5.68677e-07
5.6309e-07
5.57498e-07
5.51899e-07
5.46288e-07
5.40663e-07
5.35019e-07
5.29354e-07
5.23665e-07
5.17948e-07
5.12202e-07
5.06424e-07
5.00612e-07
4.94765e-07
4.88882e-07
4.82962e-07
4.77005e-07
4.71011e-07
4.64982e-07
4.5892e-07
4.52825e-07
4.46702e-07
4.40554e-07
4.34384e-07
4.28198e-07
4.22e-07
4.15797e-07
4.09594e-07
4.034e-07
3.9722e-07
3.91064e-07
3.84938e-07
3.78851e-07
3.72812e-07
3.6683e-07
3.60912e-07
3.55067e-07
3.49305e-07
3.43633e-07
3.38059e-07
3.32592e-07
3.27239e-07
3.22008e-07
3.16905e-07
3.11938e-07
3.07114e-07
3.0244e-07
2.97924e-07
2.93574e-07
2.89401e-07
2.85418e-07
2.81644e-07
2.78107e-07
2.74852e-07
2.71959e-07
2.6958e-07
2.68031e-07
)
;

boundaryField
{
    boundary
    {
        type            empty;
    }
    inlet
    {
        type            fixedValue;
        value           uniform 0;
    }
    outlet
    {
        type            zeroGradient;
    }
}


// ************************************************************************* //
