/*--------------------------------*- C++ -*----------------------------------*\
  =========                 |
  \\      /  F ield         | OpenFOAM: The Open Source CFD Toolbox
   \\    /   O peration     | Website:  https://openfoam.org
    \\  /    A nd           | Version:  7
     \\/     M anipulation  |
\*---------------------------------------------------------------------------*/
FoamFile
{
    version     2.0;
    format      ascii;
    class       volScalarField;
    location    "0.00055";
    object      HO2;
}
// * * * * * * * * * * * * * * * * * * * * * * * * * * * * * * * * * * * * * //

dimensions      [0 0 0 0 0 0 0];

internalField   nonuniform List<scalar> 
500
(
5.59707e-38
1.27425e-37
1.99243e-37
2.71244e-37
3.43388e-37
4.15664e-37
4.88065e-37
5.60592e-37
6.33251e-37
7.06058e-37
7.79037e-37
8.52226e-37
9.25679e-37
9.99464e-37
1.07367e-36
1.14841e-36
1.22383e-36
1.30008e-36
1.37738e-36
1.45592e-36
1.53598e-36
1.61781e-36
1.70169e-36
1.7879e-36
1.8767e-36
1.96833e-36
2.06297e-36
2.16073e-36
2.26163e-36
2.36557e-36
2.47236e-36
2.58165e-36
2.69296e-36
2.80569e-36
2.9191e-36
3.03237e-36
3.14461e-36
3.25487e-36
3.36221e-36
3.46572e-36
3.56455e-36
3.65796e-36
3.74532e-36
3.82616e-36
3.90015e-36
3.96715e-36
4.02714e-36
4.08026e-36
4.12679e-36
4.16708e-36
4.20159e-36
4.23082e-36
4.25531e-36
4.2756e-36
4.29224e-36
4.30573e-36
4.31656e-36
4.32515e-36
4.33191e-36
4.33716e-36
4.3412e-36
4.34429e-36
4.34661e-36
4.34836e-36
4.34965e-36
4.35059e-36
4.35128e-36
4.35178e-36
4.35214e-36
4.3524e-36
4.35258e-36
4.35271e-36
4.3528e-36
4.35287e-36
4.35292e-36
4.35296e-36
4.353e-36
4.35302e-36
4.35305e-36
4.35307e-36
4.3531e-36
4.35312e-36
4.35315e-36
4.35318e-36
4.3532e-36
4.35323e-36
4.35327e-36
4.3533e-36
4.35334e-36
4.35337e-36
4.35341e-36
4.35346e-36
4.3535e-36
4.35355e-36
4.3536e-36
4.35365e-36
4.35371e-36
4.35377e-36
4.35383e-36
4.35389e-36
4.35396e-36
4.35403e-36
4.3541e-36
4.35418e-36
4.35426e-36
4.35435e-36
4.35443e-36
4.35453e-36
4.35462e-36
4.35472e-36
4.35482e-36
4.35493e-36
4.35504e-36
4.35516e-36
4.35528e-36
4.3554e-36
4.35553e-36
4.35566e-36
4.3558e-36
4.35593e-36
4.35606e-36
4.35614e-36
4.35602e-36
4.35509e-36
4.351e-36
4.34284e-36
4.34302e-36
4.34323e-36
4.34349e-36
4.3438e-36
4.3442e-36
4.34468e-36
4.34527e-36
4.34599e-36
4.34682e-36
4.34779e-36
4.34885e-36
4.35e-36
4.35118e-36
4.35235e-36
4.35346e-36
4.35446e-36
4.35532e-36
4.35599e-36
4.35647e-36
4.35675e-36
4.35686e-36
4.35682e-36
4.35666e-36
4.35642e-36
4.35616e-36
4.35591e-36
4.3557e-36
4.35557e-36
4.35554e-36
4.35563e-36
4.35585e-36
4.35618e-36
4.35664e-36
4.35721e-36
4.35786e-36
4.3586e-36
4.35939e-36
4.36022e-36
4.36108e-36
4.36193e-36
4.36278e-36
4.3636e-36
4.36439e-36
4.36514e-36
4.36584e-36
4.36649e-36
4.36709e-36
4.36763e-36
4.36813e-36
4.36857e-36
4.36897e-36
4.36933e-36
4.36965e-36
4.36993e-36
4.37018e-36
4.3704e-36
4.3706e-36
4.37076e-36
4.3709e-36
4.37102e-36
4.37111e-36
4.37117e-36
4.37122e-36
4.37123e-36
4.37123e-36
4.3712e-36
4.37114e-36
4.37105e-36
4.37094e-36
4.37079e-36
4.37061e-36
4.3704e-36
4.37016e-36
4.36988e-36
4.36957e-36
4.36922e-36
4.36883e-36
4.36839e-36
4.36792e-36
4.3674e-36
4.36684e-36
4.36622e-36
4.36557e-36
4.36486e-36
4.3641e-36
4.36329e-36
4.36242e-36
4.36151e-36
4.36057e-36
4.35969e-36
4.35919e-36
4.36036e-36
4.36804e-36
4.40055e-36
4.52642e-36
5.0003e-36
6.76082e-36
1.3242e-35
3.69168e-35
1.22781e-34
4.3212e-34
1.53978e-33
5.48461e-33
1.94709e-32
6.88942e-32
2.43223e-31
8.58147e-31
3.0322e-30
1.07566e-29
3.84196e-29
1.38583e-28
5.0636e-28
1.8791e-27
7.09613e-27
2.72951e-26
1.06921e-25
4.26024e-25
1.72321e-24
7.05883e-24
2.92101e-23
1.21822e-22
5.11002e-22
2.1523e-21
9.09062e-21
3.84648e-20
1.63919e-19
6.96376e-19
2.95237e-18
1.25105e-17
5.29997e-17
2.24478e-16
9.50537e-16
4.02394e-15
1.70301e-14
7.20545e-14
3.04771e-13
1.28866e-12
5.44677e-12
2.30114e-11
9.71654e-11
4.10007e-10
1.72865e-09
7.28021e-09
3.06136e-08
1.28375e-07
5.35741e-07
2.20841e-06
8.89987e-06
3.41311e-05
0.000117221
0.000313397
0.000503324
0.000500568
0.000403271
0.000293112
0.00020638
0.000144556
0.000101005
7.09301e-05
5.11423e-05
3.59307e-05
2.76029e-05
2.22277e-05
1.86614e-05
1.62073e-05
1.44456e-05
1.31258e-05
1.20968e-05
1.12665e-05
1.05771e-05
9.99133e-06
9.48446e-06
9.0395e-06
8.64439e-06
8.29026e-06
7.97045e-06
7.67979e-06
7.41421e-06
7.1704e-06
6.94568e-06
6.73781e-06
6.54493e-06
6.36545e-06
6.19804e-06
6.04161e-06
5.89525e-06
5.76233e-06
5.63876e-06
5.52146e-06
5.40997e-06
5.30387e-06
5.20277e-06
5.10632e-06
5.01421e-06
4.92615e-06
4.8419e-06
4.7612e-06
4.68385e-06
4.60964e-06
4.53839e-06
4.46994e-06
4.40412e-06
4.3408e-06
4.27983e-06
4.2211e-06
4.16448e-06
4.10988e-06
4.05719e-06
4.00632e-06
3.95717e-06
3.90968e-06
3.86375e-06
3.81932e-06
3.77633e-06
3.7347e-06
3.69437e-06
3.6553e-06
3.61742e-06
3.58068e-06
3.54504e-06
3.51045e-06
3.47686e-06
3.44423e-06
3.41253e-06
3.38172e-06
3.35176e-06
3.32261e-06
3.29425e-06
3.26665e-06
3.23976e-06
3.21357e-06
3.18805e-06
3.16318e-06
3.13892e-06
3.11526e-06
3.09218e-06
3.06965e-06
3.04765e-06
3.02616e-06
3.00518e-06
2.98467e-06
2.96462e-06
2.94503e-06
2.92586e-06
2.90712e-06
2.88878e-06
2.87084e-06
2.85327e-06
2.83607e-06
2.81922e-06
2.80272e-06
2.78656e-06
2.77072e-06
2.7552e-06
2.73999e-06
2.72508e-06
2.71047e-06
2.69615e-06
2.6821e-06
2.66833e-06
2.65481e-06
2.64156e-06
2.62855e-06
2.61578e-06
2.60324e-06
2.59093e-06
2.57884e-06
2.56696e-06
2.55529e-06
2.54381e-06
2.53253e-06
2.52143e-06
2.51052e-06
2.49977e-06
2.48919e-06
2.47877e-06
2.4685e-06
2.45837e-06
2.44839e-06
2.43853e-06
2.4288e-06
2.41919e-06
2.40969e-06
2.40028e-06
2.39098e-06
2.38176e-06
2.37262e-06
2.36355e-06
2.35455e-06
2.34559e-06
2.33668e-06
2.32781e-06
2.31896e-06
2.31012e-06
2.3013e-06
2.29249e-06
2.28369e-06
2.27497e-06
2.26661e-06
2.25395e-06
2.24475e-06
2.2355e-06
2.22616e-06
2.21668e-06
2.20704e-06
2.19725e-06
2.18727e-06
2.17711e-06
2.16673e-06
2.15614e-06
2.14531e-06
2.13424e-06
2.1229e-06
2.1113e-06
2.09942e-06
2.08726e-06
2.0748e-06
2.06205e-06
2.04899e-06
2.03562e-06
2.02196e-06
2.00799e-06
1.99372e-06
1.97916e-06
1.96432e-06
1.9492e-06
1.93383e-06
1.91823e-06
1.9024e-06
1.88637e-06
1.87016e-06
1.85381e-06
1.83734e-06
1.82079e-06
1.80419e-06
1.78757e-06
1.77097e-06
1.75444e-06
1.73801e-06
1.72173e-06
1.70565e-06
1.6898e-06
1.67423e-06
1.65899e-06
1.64412e-06
1.62967e-06
1.61568e-06
1.60219e-06
1.58924e-06
1.57687e-06
1.56513e-06
1.55404e-06
1.54363e-06
1.53394e-06
1.52499e-06
1.51681e-06
1.5094e-06
1.50279e-06
1.49699e-06
1.492e-06
1.48782e-06
1.48446e-06
1.4819e-06
1.48013e-06
1.47914e-06
1.4789e-06
1.47939e-06
1.48056e-06
1.48238e-06
1.48476e-06
1.4876e-06
1.4907e-06
1.49368e-06
1.49582e-06
)
;

boundaryField
{
    boundary
    {
        type            empty;
    }
    inlet
    {
        type            fixedValue;
        value           uniform 0;
    }
    outlet
    {
        type            zeroGradient;
    }
}


// ************************************************************************* //
