/*--------------------------------*- C++ -*----------------------------------*\
  =========                 |
  \\      /  F ield         | OpenFOAM: The Open Source CFD Toolbox
   \\    /   O peration     | Website:  https://openfoam.org
    \\  /    A nd           | Version:  7
     \\/     M anipulation  |
\*---------------------------------------------------------------------------*/
FoamFile
{
    version     2.0;
    format      ascii;
    class       volScalarField;
    location    "0.00055";
    object      OH;
}
// * * * * * * * * * * * * * * * * * * * * * * * * * * * * * * * * * * * * * //

dimensions      [0 0 0 0 0 0 0];

internalField   nonuniform List<scalar> 
500
(
9.37786e-48
1.82761e-47
2.43703e-47
2.85128e-47
3.13317e-47
3.32595e-47
3.45888e-47
3.55161e-47
3.6174e-47
3.66516e-47
3.70092e-47
3.72882e-47
3.75168e-47
3.7715e-47
3.78969e-47
3.80735e-47
3.82532e-47
3.84432e-47
3.86501e-47
3.88801e-47
3.91392e-47
3.94335e-47
3.97692e-47
4.01523e-47
4.05887e-47
4.10842e-47
4.1644e-47
4.22725e-47
4.29734e-47
4.3749e-47
4.46002e-47
4.55265e-47
4.65252e-47
4.75918e-47
4.872e-47
4.99011e-47
5.11248e-47
5.23792e-47
5.3651e-47
5.49262e-47
5.61901e-47
5.74286e-47
5.8628e-47
5.97758e-47
6.08612e-47
6.18755e-47
6.2812e-47
6.36665e-47
6.44369e-47
6.51234e-47
6.57281e-47
6.62545e-47
6.67076e-47
6.70934e-47
6.74181e-47
6.76885e-47
6.79113e-47
6.80929e-47
6.82395e-47
6.83566e-47
6.84492e-47
6.85217e-47
6.85779e-47
6.86211e-47
6.8654e-47
6.86788e-47
6.86974e-47
6.87112e-47
6.87213e-47
6.87287e-47
6.87341e-47
6.87381e-47
6.87409e-47
6.8743e-47
6.87446e-47
6.87457e-47
6.87467e-47
6.87474e-47
6.8748e-47
6.87486e-47
6.87491e-47
6.87497e-47
6.87502e-47
6.87507e-47
6.87513e-47
6.87519e-47
6.87525e-47
6.87532e-47
6.87539e-47
6.87547e-47
6.87555e-47
6.87563e-47
6.87572e-47
6.87581e-47
6.87591e-47
6.87602e-47
6.87613e-47
6.87624e-47
6.87636e-47
6.87649e-47
6.87663e-47
6.87676e-47
6.87691e-47
6.87706e-47
6.87722e-47
6.87739e-47
6.87756e-47
6.87775e-47
6.87793e-47
6.87813e-47
6.87834e-47
6.87855e-47
6.87877e-47
6.879e-47
6.87923e-47
6.87948e-47
6.87973e-47
6.87999e-47
6.88026e-47
6.88054e-47
6.88082e-47
6.8811e-47
6.88134e-47
6.88152e-47
6.88156e-47
6.88147e-47
6.88151e-47
6.88162e-47
6.88183e-47
6.88217e-47
6.88262e-47
6.88315e-47
6.88374e-47
6.88436e-47
6.885e-47
6.88562e-47
6.88622e-47
6.8868e-47
6.88735e-47
6.88788e-47
6.88839e-47
6.88888e-47
6.88936e-47
6.88984e-47
6.89031e-47
6.89079e-47
6.89126e-47
6.89174e-47
6.89222e-47
6.89271e-47
6.8932e-47
6.89369e-47
6.89419e-47
6.8947e-47
6.89521e-47
6.89573e-47
6.89626e-47
6.89681e-47
6.89736e-47
6.89792e-47
6.89849e-47
6.89907e-47
6.89965e-47
6.90024e-47
6.90084e-47
6.90144e-47
6.90204e-47
6.90263e-47
6.90322e-47
6.90381e-47
6.90438e-47
6.90494e-47
6.90548e-47
6.90601e-47
6.90651e-47
6.907e-47
6.90746e-47
6.9079e-47
6.90831e-47
6.90869e-47
6.90904e-47
6.90937e-47
6.90966e-47
6.90991e-47
6.91013e-47
6.91031e-47
6.91046e-47
6.91056e-47
6.91062e-47
6.91063e-47
6.9106e-47
6.91052e-47
6.91039e-47
6.9102e-47
6.90995e-47
6.90965e-47
6.90929e-47
6.90887e-47
6.90845e-47
6.90822e-47
6.90906e-47
6.91473e-47
6.9414e-47
7.05765e-47
7.55234e-47
9.632e-47
1.82961e-46
5.40923e-46
2.00787e-45
7.97076e-45
3.2012e-44
1.28152e-43
5.09467e-43
2.00946e-42
7.86151e-42
3.05047e-41
1.17395e-40
4.48075e-40
1.69618e-39
6.36816e-39
2.37129e-38
8.7578e-38
3.20816e-37
1.16569e-36
4.20147e-36
1.50221e-35
5.32845e-35
1.87519e-34
6.54786e-34
2.26886e-33
7.80227e-33
2.66314e-32
9.02387e-32
3.03597e-31
1.01438e-30
3.36679e-30
1.11038e-29
3.64025e-29
1.18682e-28
3.84999e-28
1.24348e-27
4.0019e-27
1.28462e-26
4.1183e-26
1.32076e-25
4.24668e-25
1.37294e-24
4.4799e-24
1.48233e-23
5.00161e-23
1.73134e-22
6.21589e-22
2.30547e-21
8.85892e-21
3.52846e-20
1.45204e-19
6.1425e-19
2.65606e-18
1.16778e-17
5.19743e-17
2.33347e-16
1.05407e-15
4.78146e-15
2.17512e-14
9.91315e-14
4.52305e-13
2.06497e-12
9.42937e-12
4.30536e-11
1.96783e-10
9.11243e-10
4.24858e-09
1.99467e-08
9.4907e-08
4.73209e-07
2.66873e-06
1.77524e-05
0.000114106
0.000428429
0.000739634
0.000896132
0.00116032
0.00178999
0.00285399
0.00419109
0.00556078
0.00695441
0.00799401
0.00881741
0.00946094
0.00996227
0.0103547
0.0106643
0.0109109
0.0111089
0.0112689
0.0113987
0.0115043
0.01159
0.0116593
0.0117149
0.0117588
0.0117929
0.0118185
0.0118369
0.0118489
0.0118554
0.0118571
0.0118547
0.0118485
0.0118391
0.0118268
0.0118125
0.0117966
0.011779
0.0117597
0.0117389
0.0117169
0.0116936
0.0116693
0.011644
0.0116178
0.0115908
0.0115632
0.0115349
0.011506
0.0114767
0.0114469
0.0114167
0.0113862
0.0113554
0.0113243
0.0112931
0.0112616
0.01123
0.0111983
0.0111665
0.0111346
0.0111026
0.0110707
0.0110387
0.0110067
0.0109747
0.0109428
0.0109109
0.010879
0.0108473
0.0108155
0.0107839
0.0107523
0.0107208
0.0106894
0.0106581
0.0106269
0.0105958
0.0105648
0.0105339
0.0105031
0.0104724
0.0104418
0.0104113
0.0103809
0.0103506
0.0103205
0.0102904
0.0102605
0.0102307
0.010201
0.0101714
0.010142
0.0101126
0.0100834
0.0100544
0.0100254
0.00999659
0.0099679
0.00993932
0.00991083
0.00988247
0.00985426
0.00982618
0.00979825
0.00977047
0.00974283
0.00971533
0.00968799
0.00966079
0.00963373
0.00960683
0.00958008
0.00955347
0.00952701
0.00950069
0.00947452
0.0094485
0.00942261
0.00939687
0.00937126
0.00934579
0.00932046
0.00929525
0.00927017
0.00924521
0.00922037
0.00919564
0.00917102
0.00914651
0.00912209
0.00909776
0.00907352
0.00904936
0.00902526
0.00900122
0.00897724
0.00895329
0.00892936
0.00890546
0.00888155
0.00885763
0.00883369
0.0088097
0.00878567
0.0087616
0.0087377
0.00871445
0.00868334
0.00865862
0.00863362
0.00860838
0.00858287
0.00855707
0.00853095
0.0085045
0.00847769
0.00845048
0.00842286
0.00839479
0.00836626
0.00833723
0.0083077
0.00827762
0.00824701
0.00821582
0.00818406
0.00815172
0.00811878
0.00808525
0.00805112
0.00801641
0.00798111
0.00794525
0.00790884
0.00787191
0.00783448
0.00779659
0.00775827
0.00771957
0.00768053
0.0076412
0.00760165
0.00756193
0.00752211
0.00748225
0.00744244
0.00740273
0.00736321
0.00732396
0.00728505
0.00724656
0.00720857
0.00717116
0.0071344
0.00709836
0.00706311
0.00702871
0.00699523
0.00696273
0.00693124
0.00690082
0.00687149
0.0068433
0.00681626
0.00679039
0.0067657
0.0067422
0.00671989
0.00669876
0.00667882
0.00666006
0.00664248
0.00662609
0.00661092
0.006597
0.00658441
0.00657327
0.00656371
0.00655591
0.00655008
0.0065463
0.00654446
)
;

boundaryField
{
    boundary
    {
        type            empty;
    }
    inlet
    {
        type            fixedValue;
        value           uniform 0;
    }
    outlet
    {
        type            zeroGradient;
    }
}


// ************************************************************************* //
