/*--------------------------------*- C++ -*----------------------------------*\
  =========                 |
  \\      /  F ield         | OpenFOAM: The Open Source CFD Toolbox
   \\    /   O peration     | Website:  https://openfoam.org
    \\  /    A nd           | Version:  7
     \\/     M anipulation  |
\*---------------------------------------------------------------------------*/
FoamFile
{
    version     2.0;
    format      ascii;
    class       volScalarField;
    location    "0.00055";
    object      Qdot;
}
// * * * * * * * * * * * * * * * * * * * * * * * * * * * * * * * * * * * * * //

dimensions      [1 -1 -3 0 0 0 0];

internalField   nonuniform List<scalar> 
500
(
-2.45231e-27
-1.86178e-27
-1.73499e-27
-1.70865e-27
-1.70432e-27
-1.70497e-27
-1.70683e-27
-1.70904e-27
-1.71139e-27
-1.71384e-27
-1.71638e-27
-1.71904e-27
-1.72188e-27
-1.72495e-27
-1.72834e-27
-1.73213e-27
-1.73643e-27
-1.74137e-27
-1.74709e-27
-1.75376e-27
-1.76153e-27
-1.77061e-27
-1.78119e-27
-1.79345e-27
-1.8076e-27
-1.82381e-27
-1.84225e-27
-1.86307e-27
-1.88637e-27
-1.91221e-27
-1.94061e-27
-1.97153e-27
-2.00485e-27
-2.0404e-27
-2.07795e-27
-2.11719e-27
-2.15776e-27
-2.19925e-27
-2.24119e-27
-2.28313e-27
-2.32458e-27
-2.36506e-27
-2.40414e-27
-2.44142e-27
-2.47656e-27
-2.50928e-27
-2.5394e-27
-2.56679e-27
-2.5914e-27
-2.61327e-27
-2.63247e-27
-2.64913e-27
-2.66344e-27
-2.67558e-27
-2.68578e-27
-2.69424e-27
-2.70121e-27
-2.70687e-27
-2.71143e-27
-2.71506e-27
-2.71793e-27
-2.72017e-27
-2.7219e-27
-2.72323e-27
-2.72424e-27
-2.72501e-27
-2.72557e-27
-2.726e-27
-2.72631e-27
-2.72653e-27
-2.7267e-27
-2.72682e-27
-2.7269e-27
-2.72697e-27
-2.72701e-27
-2.72705e-27
-2.72708e-27
-2.7271e-27
-2.72712e-27
-2.72714e-27
-2.72716e-27
-2.72717e-27
-2.72719e-27
-2.72721e-27
-2.72722e-27
-2.72724e-27
-2.72726e-27
-2.72728e-27
-2.72731e-27
-2.72733e-27
-2.72736e-27
-2.72738e-27
-2.72741e-27
-2.72744e-27
-2.72747e-27
-2.7275e-27
-2.72754e-27
-2.72758e-27
-2.72761e-27
-2.72766e-27
-2.7277e-27
-2.72774e-27
-2.72779e-27
-2.72784e-27
-2.72789e-27
-2.72794e-27
-2.728e-27
-2.72805e-27
-2.72811e-27
-2.72818e-27
-2.72824e-27
-2.72831e-27
-2.72838e-27
-2.72845e-27
-2.72853e-27
-2.7286e-27
-2.72868e-27
-2.72877e-27
-2.72885e-27
-2.72894e-27
-2.72903e-27
-2.72912e-27
-2.72921e-27
-2.72931e-27
-2.72948e-27
-2.72977e-27
-2.72968e-27
-2.72965e-27
-2.72968e-27
-2.72975e-27
-2.72986e-27
-2.73001e-27
-2.73017e-27
-2.73034e-27
-2.73051e-27
-2.73069e-27
-2.73085e-27
-2.73101e-27
-2.73117e-27
-2.73132e-27
-2.73147e-27
-2.73162e-27
-2.73177e-27
-2.73191e-27
-2.73206e-27
-2.73222e-27
-2.73237e-27
-2.73252e-27
-2.73268e-27
-2.73283e-27
-2.73299e-27
-2.73315e-27
-2.73331e-27
-2.73348e-27
-2.73364e-27
-2.73381e-27
-2.73398e-27
-2.73415e-27
-2.73433e-27
-2.73451e-27
-2.73469e-27
-2.73487e-27
-2.73506e-27
-2.73524e-27
-2.73543e-27
-2.73562e-27
-2.73581e-27
-2.73599e-27
-2.73618e-27
-2.73636e-27
-2.73653e-27
-2.73671e-27
-2.73688e-27
-2.73704e-27
-2.7372e-27
-2.73735e-27
-2.73749e-27
-2.73763e-27
-2.73776e-27
-2.73788e-27
-2.73799e-27
-2.73809e-27
-2.73818e-27
-2.73826e-27
-2.73832e-27
-2.73838e-27
-2.73843e-27
-2.73846e-27
-2.73847e-27
-2.73848e-27
-2.73847e-27
-2.73844e-27
-2.73839e-27
-2.73833e-27
-2.73825e-27
-2.73816e-27
-2.73804e-27
-2.7379e-27
-2.73774e-27
-2.73756e-27
-2.73736e-27
-2.73713e-27
-2.73687e-27
-2.73659e-27
-2.73629e-27
-2.73595e-27
-2.73559e-27
-2.7352e-27
-2.73478e-27
-2.73431e-27
-2.7338e-27
-2.73317e-27
-2.73216e-27
-2.72978e-27
-2.72219e-27
-2.69457e-27
-2.5905e-27
-2.1966e-27
-7.12833e-28
4.83577e-27
2.54205e-26
1.01169e-25
3.77647e-25
1.37861e-24
4.97332e-24
1.77796e-23
6.30409e-23
2.21752e-22
7.73957e-22
2.68054e-21
9.21365e-21
3.14341e-20
1.06462e-19
3.58e-19
1.19552e-18
3.9657e-18
1.30704e-17
4.28155e-17
1.39452e-16
4.51799e-16
1.45675e-15
4.67739e-15
1.49662e-14
4.77631e-14
1.52204e-13
4.84997e-13
1.54829e-12
4.96431e-12
1.60397e-11
5.2445e-11
1.7444e-10
5.9677e-10
2.09578e-09
7.60096e-09
2.86034e-08
1.11771e-07
4.52445e-07
1.88862e-06
8.08428e-06
3.52896e-05
0.000156351
0.000700408
0.00316391
0.0143879
0.0658176
0.302932
1.40458
6.57731
31.4237
164.758
934.148
6978.78
52688.1
459630
4.31103e+06
4.09639e+07
3.55353e+08
2.20167e+09
7.22626e+09
1.21737e+10
1.37649e+10
1.39235e+10
1.3938e+10
1.35302e+10
1.23184e+10
1.04655e+10
8.48279e+09
6.89484e+09
5.71681e+09
4.81677e+09
4.12938e+09
3.59607e+09
3.17412e+09
2.83356e+09
2.55357e+09
2.31959e+09
2.12124e+09
1.95103e+09
1.80344e+09
1.6743e+09
1.56041e+09
1.45928e+09
1.36893e+09
1.28778e+09
1.21453e+09
1.14814e+09
1.08772e+09
1.03254e+09
9.81973e+08
9.35506e+08
8.9271e+08
8.5327e+08
8.17802e+08
7.85353e+08
7.54853e+08
7.26243e+08
6.99335e+08
6.73994e+08
6.50079e+08
6.27486e+08
6.06114e+08
5.85871e+08
5.66676e+08
5.48452e+08
5.31135e+08
5.14661e+08
4.98973e+08
4.84021e+08
4.69757e+08
4.56138e+08
4.43122e+08
4.30675e+08
4.18762e+08
4.07351e+08
3.96414e+08
3.85923e+08
3.75853e+08
3.66183e+08
3.56888e+08
3.47951e+08
3.39351e+08
3.31072e+08
3.23096e+08
3.1541e+08
3.07998e+08
3.00846e+08
2.93942e+08
2.87276e+08
2.80834e+08
2.74608e+08
2.68586e+08
2.6276e+08
2.57121e+08
2.5166e+08
2.4637e+08
2.41243e+08
2.36273e+08
2.31453e+08
2.26777e+08
2.22238e+08
2.17831e+08
2.13551e+08
2.09393e+08
2.05352e+08
2.01424e+08
1.97604e+08
1.93888e+08
1.90273e+08
1.86755e+08
1.8333e+08
1.79995e+08
1.76747e+08
1.73584e+08
1.70502e+08
1.67504e+08
1.64586e+08
1.61737e+08
1.58946e+08
1.5622e+08
1.53561e+08
1.50965e+08
1.48431e+08
1.45957e+08
1.4354e+08
1.41179e+08
1.38873e+08
1.3662e+08
1.34417e+08
1.32264e+08
1.30159e+08
1.281e+08
1.26087e+08
1.24118e+08
1.22191e+08
1.20306e+08
1.1846e+08
1.16654e+08
1.14886e+08
1.13155e+08
1.1146e+08
1.098e+08
1.08173e+08
1.0658e+08
1.05019e+08
1.03489e+08
1.0199e+08
1.00521e+08
9.90807e+07
9.76686e+07
9.62842e+07
9.49266e+07
9.35953e+07
9.22896e+07
9.10086e+07
8.97522e+07
8.85196e+07
8.73102e+07
8.61233e+07
8.49588e+07
8.38167e+07
8.26988e+07
8.16109e+07
8.0572e+07
7.95595e+07
7.87011e+07
7.69339e+07
7.59943e+07
7.50831e+07
7.41366e+07
7.31874e+07
7.22438e+07
7.13108e+07
7.03896e+07
6.94806e+07
6.85835e+07
6.76981e+07
6.68236e+07
6.59598e+07
6.5106e+07
6.42616e+07
6.34263e+07
6.25993e+07
6.17804e+07
6.09676e+07
6.01629e+07
5.9364e+07
5.85707e+07
5.77823e+07
5.69982e+07
5.62179e+07
5.54408e+07
5.46663e+07
5.38939e+07
5.3123e+07
5.23525e+07
5.15829e+07
5.08131e+07
5.00426e+07
4.92711e+07
4.84981e+07
4.77232e+07
4.6946e+07
4.61664e+07
4.5384e+07
4.45986e+07
4.38101e+07
4.30185e+07
4.22235e+07
4.14254e+07
4.0624e+07
3.98197e+07
3.90124e+07
3.82024e+07
3.73901e+07
3.65756e+07
3.57593e+07
3.49416e+07
3.4123e+07
3.33038e+07
3.24844e+07
3.16656e+07
3.08475e+07
3.00309e+07
2.92163e+07
2.84042e+07
2.75953e+07
2.67901e+07
2.59893e+07
2.51934e+07
2.44032e+07
2.36194e+07
2.28421e+07
2.20725e+07
2.13114e+07
2.05579e+07
1.98123e+07
1.90751e+07
1.83497e+07
1.76593e+07
1.71202e+07
)
;

boundaryField
{
    boundary
    {
        type            empty;
    }
    inlet
    {
        type            calculated;
        value           uniform 0;
    }
    outlet
    {
        type            calculated;
        value           uniform 0;
    }
}


// ************************************************************************* //
