/*--------------------------------*- C++ -*----------------------------------*\
  =========                 |
  \\      /  F ield         | OpenFOAM: The Open Source CFD Toolbox
   \\    /   O peration     | Website:  https://openfoam.org
    \\  /    A nd           | Version:  7
     \\/     M anipulation  |
\*---------------------------------------------------------------------------*/
FoamFile
{
    version     2.0;
    format      ascii;
    class       volScalarField;
    location    "0.00055";
    object      rho;
}
// * * * * * * * * * * * * * * * * * * * * * * * * * * * * * * * * * * * * * //

dimensions      [1 -3 0 0 0 0 0];

internalField   nonuniform List<scalar> 
500
(
0.865356
0.86536
0.865359
0.865354
0.865345
0.865335
0.865323
0.86531
0.865297
0.865283
0.865269
0.865254
0.865238
0.865221
0.865202
0.865181
0.865157
0.86513
0.865099
0.865062
0.86502
0.864971
0.864914
0.864848
0.864773
0.864688
0.864592
0.864484
0.864366
0.864236
0.864095
0.863944
0.863784
0.863616
0.863441
0.863262
0.863081
0.862898
0.862717
0.862539
0.862366
0.862201
0.862043
0.861895
0.861757
0.86163
0.861515
0.861411
0.861318
0.861237
0.861166
0.861104
0.861052
0.861007
0.86097
0.860939
0.860913
0.860893
0.860876
0.860863
0.860852
0.860844
0.860838
0.860833
0.860829
0.860826
0.860824
0.860822
0.860821
0.86082
0.86082
0.860819
0.860819
0.860818
0.860818
0.860818
0.860818
0.860818
0.860817
0.860817
0.860817
0.860817
0.860817
0.860817
0.860817
0.860817
0.860816
0.860816
0.860816
0.860816
0.860816
0.860816
0.860816
0.860815
0.860815
0.860815
0.860815
0.860815
0.860814
0.860814
0.860814
0.860814
0.860813
0.860813
0.860813
0.860813
0.860812
0.860812
0.860812
0.860811
0.860811
0.860811
0.860811
0.86081
0.86081
0.860809
0.860809
0.860809
0.860808
0.860808
0.860808
0.860807
0.860807
0.860806
0.860805
0.860804
0.860805
0.860805
0.860804
0.860804
0.860804
0.860803
0.860802
0.860802
0.860801
0.8608
0.8608
0.860799
0.860798
0.860798
0.860797
0.860796
0.860796
0.860795
0.860794
0.860794
0.860793
0.860792
0.860792
0.860791
0.86079
0.86079
0.860789
0.860788
0.860788
0.860787
0.860786
0.860786
0.860785
0.860784
0.860783
0.860783
0.860782
0.860781
0.86078
0.860779
0.860779
0.860778
0.860777
0.860776
0.860776
0.860775
0.860774
0.860773
0.860773
0.860772
0.860771
0.860771
0.86077
0.86077
0.860769
0.860769
0.860768
0.860768
0.860767
0.860767
0.860767
0.860766
0.860766
0.860766
0.860766
0.860766
0.860766
0.860766
0.860766
0.860766
0.860767
0.860767
0.860767
0.860768
0.860768
0.860769
0.86077
0.860771
0.860771
0.860772
0.860774
0.860775
0.860776
0.860778
0.860779
0.860781
0.860783
0.860784
0.860786
0.860789
0.860791
0.860793
0.860796
0.860799
0.860801
0.860804
0.860807
0.860811
0.860814
0.860818
0.860821
0.860825
0.860829
0.860834
0.860838
0.860842
0.860847
0.860852
0.860857
0.860862
0.860868
0.860873
0.860879
0.860884
0.86089
0.860897
0.860903
0.860909
0.860916
0.860923
0.86093
0.860937
0.860944
0.860951
0.860959
0.860966
0.860974
0.860983
0.860991
0.860999
0.861007
0.861015
0.861023
0.861031
0.86104
0.861048
0.861057
0.861066
0.861075
0.861084
0.861094
0.861103
0.861105
0.861082
0.860978
0.860615
0.859458
0.85594
0.845617
0.817034
0.74853
0.628752
0.494683
0.391491
0.323831
0.278905
0.247424
0.224976
0.209305
0.197688
0.188653
0.182135
0.177299
0.173394
0.170175
0.167465
0.165142
0.163122
0.161343
0.15976
0.15834
0.157057
0.15589
0.154823
0.153842
0.152937
0.152097
0.151317
0.150589
0.149907
0.149268
0.148667
0.148101
0.147566
0.14706
0.146582
0.146142
0.145731
0.145335
0.144955
0.144591
0.14424
0.143902
0.143576
0.143262
0.142959
0.142666
0.142383
0.142109
0.141843
0.141586
0.141337
0.141095
0.14086
0.140632
0.14041
0.140194
0.139984
0.13978
0.139581
0.139387
0.139198
0.139014
0.138834
0.138659
0.138487
0.13832
0.138156
0.137996
0.137839
0.137686
0.137537
0.13739
0.137247
0.137106
0.136968
0.136833
0.136701
0.136571
0.136444
0.136319
0.136197
0.136077
0.135959
0.135843
0.13573
0.135618
0.135509
0.135401
0.135295
0.135191
0.135089
0.134988
0.134889
0.134792
0.134696
0.134602
0.134509
0.134418
0.134328
0.13424
0.134153
0.134067
0.133982
0.133899
0.133817
0.133736
0.133656
0.133577
0.133499
0.133422
0.133347
0.133272
0.133198
0.133125
0.133054
0.132983
0.132913
0.132843
0.132775
0.132707
0.13264
0.132574
0.132509
0.132445
0.132381
0.132318
0.132255
0.132194
0.132133
0.132072
0.132013
0.131954
0.131895
0.131838
0.13178
0.131724
0.131668
0.131613
0.131559
0.131505
0.131452
0.131399
0.131347
0.131296
0.131246
0.131197
0.131148
0.131099
0.131038
0.130987
0.130941
0.130895
0.13085
0.130806
0.130763
0.130721
0.130679
0.130638
0.130598
0.130559
0.13052
0.130482
0.130445
0.130409
0.130374
0.130339
0.130305
0.130271
0.130238
0.130205
0.130173
0.130141
0.130109
0.130077
0.130045
0.130013
0.12998
0.129947
0.129913
0.129878
0.129842
0.129804
0.129765
0.129724
0.129681
0.129636
0.129588
0.129537
0.129483
0.129427
0.129367
0.129303
0.129236
0.129164
0.129089
0.12901
0.128927
0.12884
0.128748
0.128653
0.128553
0.12845
0.128343
0.128233
0.128119
0.128003
0.127883
0.127762
0.127638
0.127513
0.127386
0.127259
0.127131
0.127004
0.126876
0.126749
0.126624
0.1265
0.126379
0.126262
0.126152
0.126056
0.125991
)
;

boundaryField
{
    boundary
    {
        type            empty;
    }
    inlet
    {
        type            calculated;
        value           uniform 0.865349;
    }
    outlet
    {
        type            calculated;
        value           uniform 0.125991;
    }
}


// ************************************************************************* //
