/*--------------------------------*- C++ -*----------------------------------*\
  =========                 |
  \\      /  F ield         | OpenFOAM: The Open Source CFD Toolbox
   \\    /   O peration     | Website:  https://openfoam.org
    \\  /    A nd           | Version:  7
     \\/     M anipulation  |
\*---------------------------------------------------------------------------*/
FoamFile
{
    version     2.0;
    format      ascii;
    class       volScalarField;
    location    "0.00035";
    object      H2O2;
}
// * * * * * * * * * * * * * * * * * * * * * * * * * * * * * * * * * * * * * //

dimensions      [0 0 0 0 0 0 0];

internalField   nonuniform List<scalar> 
125
(
2.20969e-21
1.07815e-20
5.16718e-20
2.44307e-19
1.14082e-18
5.2654e-18
2.404e-17
1.08668e-16
4.86786e-16
2.16298e-15
9.54242e-15
4.18373e-14
1.82454e-13
7.92097e-13
3.42579e-12
1.47699e-11
6.35138e-11
2.72543e-10
1.16747e-09
4.99392e-09
2.13352e-08
9.10172e-08
3.87145e-07
1.63203e-06
6.6722e-06
2.46556e-05
6.84377e-05
0.000111788
0.000123259
8.58931e-05
4.10879e-05
1.65108e-05
7.27031e-06
4.69569e-06
4.48867e-06
4.99756e-06
5.71356e-06
6.21582e-06
6.54909e-06
6.72508e-06
6.77682e-06
6.73829e-06
6.63779e-06
6.49672e-06
6.33036e-06
6.14961e-06
5.96194e-06
5.77241e-06
5.58444e-06
5.4003e-06
5.22145e-06
5.04875e-06
4.88274e-06
4.72362e-06
4.57146e-06
4.42618e-06
4.28763e-06
4.15559e-06
4.02984e-06
3.91014e-06
3.79632e-06
3.69145e-06
3.59286e-06
3.49829e-06
3.40756e-06
3.32046e-06
3.23682e-06
3.15648e-06
3.07928e-06
3.00505e-06
2.93367e-06
2.86499e-06
2.79889e-06
2.73523e-06
2.6739e-06
2.6148e-06
2.55781e-06
2.50283e-06
2.44977e-06
2.39855e-06
2.34907e-06
2.30127e-06
2.25505e-06
2.21036e-06
2.16712e-06
2.12527e-06
2.08475e-06
2.0455e-06
2.00747e-06
1.9706e-06
1.93485e-06
1.90016e-06
1.8665e-06
1.83383e-06
1.80209e-06
1.77126e-06
1.74129e-06
1.71216e-06
1.68382e-06
1.65625e-06
1.62942e-06
1.60329e-06
1.57785e-06
1.55305e-06
1.52888e-06
1.50531e-06
1.48233e-06
1.45989e-06
1.43799e-06
1.4166e-06
1.39571e-06
1.37528e-06
1.35531e-06
1.33577e-06
1.31664e-06
1.29792e-06
1.27957e-06
1.26159e-06
1.24394e-06
1.22663e-06
1.20961e-06
1.19286e-06
1.17634e-06
1.16e-06
1.14376e-06
)
;

boundaryField
{
    boundary
    {
        type            empty;
    }
    inlet
    {
        type            fixedValue;
        value           nonuniform 0();
    }
    outlet
    {
        type            zeroGradient;
    }
    procBoundary1to0
    {
        type            processor;
        value           uniform 1.12775e-06;
    }
    procBoundary1to3
    {
        type            processor;
        value           uniform 4.41629e-22;
    }
}


// ************************************************************************* //
