/*--------------------------------*- C++ -*----------------------------------*\
  =========                 |
  \\      /  F ield         | OpenFOAM: The Open Source CFD Toolbox
   \\    /   O peration     | Website:  https://openfoam.org
    \\  /    A nd           | Version:  7
     \\/     M anipulation  |
\*---------------------------------------------------------------------------*/
FoamFile
{
    version     2.0;
    format      ascii;
    class       volScalarField;
    location    "0.00053";
    object      H2O2;
}
// * * * * * * * * * * * * * * * * * * * * * * * * * * * * * * * * * * * * * //

dimensions      [0 0 0 0 0 0 0];

internalField   nonuniform List<scalar> 
126
(
2.53255e-49
2.53274e-49
2.53297e-49
2.53327e-49
2.53365e-49
2.53413e-49
2.53475e-49
2.53551e-49
2.53644e-49
2.53753e-49
2.53876e-49
2.54011e-49
2.54152e-49
2.54293e-49
2.54427e-49
2.54549e-49
2.54652e-49
2.54733e-49
2.5479e-49
2.54823e-49
2.54834e-49
2.54826e-49
2.54804e-49
2.54773e-49
2.54738e-49
2.54703e-49
2.54673e-49
2.5465e-49
2.54638e-49
2.54639e-49
2.54653e-49
2.54681e-49
2.54721e-49
2.54774e-49
2.54836e-49
2.54908e-49
2.54985e-49
2.55067e-49
2.55152e-49
2.55237e-49
2.55322e-49
2.55403e-49
2.55481e-49
2.55555e-49
2.55623e-49
2.55686e-49
2.55743e-49
2.55795e-49
2.55841e-49
2.55883e-49
2.55919e-49
2.55951e-49
2.5598e-49
2.56004e-49
2.56026e-49
2.56044e-49
2.5606e-49
2.56074e-49
2.56085e-49
2.56095e-49
2.56102e-49
2.56106e-49
2.56109e-49
2.5611e-49
2.56109e-49
2.56105e-49
2.56099e-49
2.56091e-49
2.56081e-49
2.56067e-49
2.56052e-49
2.56033e-49
2.56011e-49
2.55987e-49
2.55959e-49
2.55928e-49
2.55894e-49
2.55857e-49
2.55816e-49
2.55774e-49
2.55746e-49
2.55829e-49
2.5663e-49
2.6196e-49
2.95438e-49
5.02165e-49
1.76497e-48
9.4037e-48
5.51652e-47
3.26649e-46
1.92148e-45
1.11979e-44
6.46168e-44
3.69147e-43
2.08766e-42
1.16868e-41
6.47566e-41
3.55143e-40
1.9277e-39
1.03558e-38
5.50601e-38
2.89739e-37
1.50907e-36
7.77985e-36
3.97031e-35
2.00593e-34
1.00344e-33
4.97074e-33
2.43874e-32
1.18523e-31
5.70707e-31
2.72327e-30
1.28805e-29
6.04007e-29
2.80892e-28
1.29583e-27
5.93213e-27
2.69573e-26
1.21649e-25
5.45363e-25
2.42994e-24
1.07656e-23
4.74482e-23
2.08137e-22
9.09149e-22
3.95625e-21
)
;

boundaryField
{
    boundary
    {
        type            empty;
    }
    inlet
    {
        type            fixedValue;
        value           nonuniform 0();
    }
    outlet
    {
        type            zeroGradient;
    }
    procBoundary3to1
    {
        type            processor;
        value           uniform 1.72814e-20;
    }
    procBoundary3to2
    {
        type            processor;
        value           uniform 2.54238e-49;
    }
}


// ************************************************************************* //
