/*--------------------------------*- C++ -*----------------------------------*\
  =========                 |
  \\      /  F ield         | OpenFOAM: The Open Source CFD Toolbox
   \\    /   O peration     | Website:  https://openfoam.org
    \\  /    A nd           | Version:  7
     \\/     M anipulation  |
\*---------------------------------------------------------------------------*/
FoamFile
{
    version     2.0;
    format      ascii;
    class       volScalarField;
    location    "0.00053";
    object      OH;
}
// * * * * * * * * * * * * * * * * * * * * * * * * * * * * * * * * * * * * * //

dimensions      [0 0 0 0 0 0 0];

internalField   nonuniform List<scalar> 
126
(
6.873e-47
6.87326e-47
6.87361e-47
6.87407e-47
6.87463e-47
6.87526e-47
6.87592e-47
6.8766e-47
6.87726e-47
6.87789e-47
6.87849e-47
6.87905e-47
6.87959e-47
6.8801e-47
6.88059e-47
6.88108e-47
6.88155e-47
6.88203e-47
6.8825e-47
6.88298e-47
6.88346e-47
6.88394e-47
6.88442e-47
6.88491e-47
6.8854e-47
6.8859e-47
6.88641e-47
6.88692e-47
6.88743e-47
6.88796e-47
6.8885e-47
6.88905e-47
6.88961e-47
6.89017e-47
6.89075e-47
6.89134e-47
6.89194e-47
6.89254e-47
6.89314e-47
6.89375e-47
6.89435e-47
6.89495e-47
6.89555e-47
6.89613e-47
6.89671e-47
6.89727e-47
6.89781e-47
6.89833e-47
6.89883e-47
6.89932e-47
6.89977e-47
6.9002e-47
6.90061e-47
6.90098e-47
6.90133e-47
6.90164e-47
6.90192e-47
6.90217e-47
6.90238e-47
6.90255e-47
6.90269e-47
6.90278e-47
6.90282e-47
6.90282e-47
6.90278e-47
6.90268e-47
6.90253e-47
6.90233e-47
6.90206e-47
6.90174e-47
6.90135e-47
6.9009e-47
6.90039e-47
6.89983e-47
6.8993e-47
6.89916e-47
6.90102e-47
6.91191e-47
6.9624e-47
7.18422e-47
8.14044e-47
1.22181e-46
2.94523e-46
1.01683e-45
4.01897e-45
1.6393e-44
6.69696e-44
2.71959e-43
1.0958e-42
4.37878e-42
1.73505e-41
6.81687e-41
2.6556e-40
1.02574e-39
3.92834e-39
1.49168e-38
5.61614e-38
2.09656e-37
7.76053e-37
2.84843e-36
1.03674e-35
3.74199e-35
1.33948e-34
4.75553e-34
1.67467e-33
5.8502e-33
2.02754e-32
6.97237e-32
2.37942e-31
8.05967e-31
2.71027e-30
9.05046e-30
3.00216e-29
9.89637e-29
3.24353e-28
1.05763e-27
3.43372e-27
1.1111e-26
3.58804e-26
1.15825e-25
3.74581e-25
1.2171e-24
3.98796e-24
1.32383e-23
4.47668e-23
1.5514e-22
)
;

boundaryField
{
    boundary
    {
        type            empty;
    }
    inlet
    {
        type            fixedValue;
        value           nonuniform 0();
    }
    outlet
    {
        type            zeroGradient;
    }
    procBoundary3to1
    {
        type            processor;
        value           uniform 5.57336e-22;
    }
    procBoundary3to2
    {
        type            processor;
        value           uniform 6.87352e-47;
    }
}


// ************************************************************************* //
