/*--------------------------------*- C++ -*----------------------------------*\
  =========                 |
  \\      /  F ield         | OpenFOAM: The Open Source CFD Toolbox
   \\    /   O peration     | Website:  https://openfoam.org
    \\  /    A nd           | Version:  7
     \\/     M anipulation  |
\*---------------------------------------------------------------------------*/
FoamFile
{
    version     2.0;
    format      ascii;
    class       volVectorField;
    location    "0.00053";
    object      U;
}
// * * * * * * * * * * * * * * * * * * * * * * * * * * * * * * * * * * * * * //

dimensions      [0 1 -1 0 0 0 0];

internalField   nonuniform List<vector> 
126
(
(2.35635 0 0)
(2.35641 0 0)
(2.35647 0 0)
(2.35653 0 0)
(2.35658 0 0)
(2.35664 0 0)
(2.3567 0 0)
(2.35676 0 0)
(2.35681 0 0)
(2.35687 0 0)
(2.35693 0 0)
(2.35699 0 0)
(2.35705 0 0)
(2.3571 0 0)
(2.35716 0 0)
(2.35722 0 0)
(2.35728 0 0)
(2.35733 0 0)
(2.35739 0 0)
(2.35745 0 0)
(2.35751 0 0)
(2.35757 0 0)
(2.35762 0 0)
(2.35768 0 0)
(2.35774 0 0)
(2.3578 0 0)
(2.35785 0 0)
(2.35791 0 0)
(2.35797 0 0)
(2.35803 0 0)
(2.35808 0 0)
(2.35814 0 0)
(2.3582 0 0)
(2.35826 0 0)
(2.35831 0 0)
(2.35837 0 0)
(2.35843 0 0)
(2.35849 0 0)
(2.35854 0 0)
(2.3586 0 0)
(2.35866 0 0)
(2.35871 0 0)
(2.35877 0 0)
(2.35883 0 0)
(2.35889 0 0)
(2.35894 0 0)
(2.359 0 0)
(2.35906 0 0)
(2.35911 0 0)
(2.35917 0 0)
(2.35923 0 0)
(2.35929 0 0)
(2.35934 0 0)
(2.3594 0 0)
(2.35946 0 0)
(2.35951 0 0)
(2.35957 0 0)
(2.35963 0 0)
(2.35968 0 0)
(2.35974 0 0)
(2.3598 0 0)
(2.35985 0 0)
(2.35991 0 0)
(2.35997 0 0)
(2.36002 0 0)
(2.36008 0 0)
(2.36014 0 0)
(2.36019 0 0)
(2.36025 0 0)
(2.36031 0 0)
(2.36036 0 0)
(2.36042 0 0)
(2.36048 0 0)
(2.36053 0 0)
(2.36059 0 0)
(2.36064 0 0)
(2.3607 0 0)
(2.36076 0 0)
(2.36081 0 0)
(2.36087 0 0)
(2.36093 0 0)
(2.36098 0 0)
(2.36104 0 0)
(2.36109 0 0)
(2.36115 0 0)
(2.36121 0 0)
(2.36126 0 0)
(2.36132 0 0)
(2.36137 0 0)
(2.36143 0 0)
(2.36149 0 0)
(2.36154 0 0)
(2.3616 0 0)
(2.36165 0 0)
(2.36171 0 0)
(2.36176 0 0)
(2.36182 0 0)
(2.36187 0 0)
(2.36193 0 0)
(2.36199 0 0)
(2.36204 0 0)
(2.3621 0 0)
(2.36215 0 0)
(2.36221 0 0)
(2.36226 0 0)
(2.36232 0 0)
(2.36237 0 0)
(2.36243 0 0)
(2.36248 0 0)
(2.36254 0 0)
(2.36259 0 0)
(2.36265 0 0)
(2.3627 0 0)
(2.36276 0 0)
(2.36281 0 0)
(2.36287 0 0)
(2.36292 0 0)
(2.36298 0 0)
(2.36304 0 0)
(2.36309 0 0)
(2.36314 0 0)
(2.3632 0 0)
(2.36325 0 0)
(2.36331 0 0)
(2.36336 0 0)
(2.36342 0 0)
)
;

boundaryField
{
    boundary
    {
        type            empty;
    }
    inlet
    {
        type            fixedValue;
        value           nonuniform 0();
    }
    outlet
    {
        type            zeroGradient;
    }
    procBoundary3to1
    {
        type            processor;
        value           uniform (2.36347 0 0);
    }
    procBoundary3to2
    {
        type            processor;
        value           uniform (2.35629 0 0);
    }
}


// ************************************************************************* //
