/*--------------------------------*- C++ -*----------------------------------*\
  =========                 |
  \\      /  F ield         | OpenFOAM: The Open Source CFD Toolbox
   \\    /   O peration     | Website:  https://openfoam.org
    \\  /    A nd           | Version:  7
     \\/     M anipulation  |
\*---------------------------------------------------------------------------*/
FoamFile
{
    version     2.0;
    format      ascii;
    class       volScalarField;
    location    "0.00039";
    object      p;
}
// * * * * * * * * * * * * * * * * * * * * * * * * * * * * * * * * * * * * * //

dimensions      [1 -1 -2 0 0 0 0];

internalField   nonuniform List<scalar> 
125
(
103174
103174
103174
103174
103174
103174
103174
103174
103174
103174
103174
103174
103174
103174
103174
103174
103174
103174
103174
103174
103174
103174
103174
103174
103174
103174
103174
103173
103172
103170
103167
103165
103162
103160
103159
103157
103156
103155
103154
103154
103153
103153
103152
103152
103151
103151
103151
103151
103150
103150
103150
103150
103150
103149
103149
103149
103149
103149
103149
103149
103148
103148
103148
103148
103148
103148
103148
103148
103148
103148
103148
103148
103147
103147
103147
103147
103147
103147
103147
103147
103147
103147
103147
103147
103147
103147
103147
103147
103147
103147
103146
103146
103146
103146
103146
103146
103146
103146
103146
103146
103146
103146
103146
103146
103146
103146
103146
103146
103146
103146
103146
103146
103146
103146
103146
103146
103146
103146
103146
103145
103145
103145
103145
103145
103145
)
;

boundaryField
{
    boundary
    {
        type            empty;
    }
    inlet
    {
        type            zeroGradient;
    }
    outlet
    {
        type            waveTransmissive;
        gamma           1.4;
        value           nonuniform 0();
    }
    procBoundary1to0
    {
        type            processor;
        value           uniform 103145;
    }
    procBoundary1to3
    {
        type            processor;
        value           uniform 103174;
    }
}


// ************************************************************************* //
