/*--------------------------------*- C++ -*----------------------------------*\
  =========                 |
  \\      /  F ield         | OpenFOAM: The Open Source CFD Toolbox
   \\    /   O peration     | Website:  https://openfoam.org
    \\  /    A nd           | Version:  7
     \\/     M anipulation  |
\*---------------------------------------------------------------------------*/
FoamFile
{
    version     2.0;
    format      ascii;
    class       volScalarField;
    location    "0.00069";
    object      H2O2;
}
// * * * * * * * * * * * * * * * * * * * * * * * * * * * * * * * * * * * * * //

dimensions      [0 0 0 0 0 0 0];

internalField   nonuniform List<scalar> 
124
(
1.12891e-06
1.11493e-06
1.10124e-06
1.08782e-06
1.07468e-06
1.0618e-06
1.04918e-06
1.03681e-06
1.02468e-06
1.0128e-06
1.00114e-06
9.89706e-07
9.78493e-07
9.67493e-07
9.567e-07
9.4611e-07
9.35716e-07
9.25515e-07
9.15501e-07
9.05669e-07
8.96015e-07
8.86534e-07
8.77222e-07
8.68075e-07
8.59089e-07
8.5026e-07
8.41584e-07
8.33057e-07
8.24676e-07
8.16437e-07
8.08337e-07
8.00372e-07
7.92539e-07
7.84836e-07
7.77259e-07
7.69805e-07
7.62471e-07
7.55254e-07
7.48153e-07
7.41163e-07
7.34283e-07
7.2751e-07
7.20842e-07
7.14276e-07
7.0781e-07
7.01442e-07
6.95169e-07
6.8899e-07
6.82903e-07
6.76905e-07
6.70995e-07
6.65171e-07
6.59431e-07
6.53773e-07
6.48196e-07
6.42697e-07
6.37276e-07
6.3193e-07
6.26658e-07
6.21459e-07
6.16331e-07
6.11272e-07
6.06282e-07
6.01358e-07
5.965e-07
5.91705e-07
5.86972e-07
5.82301e-07
5.7769e-07
5.73137e-07
5.68641e-07
5.64201e-07
5.59815e-07
5.55483e-07
5.51202e-07
5.46972e-07
5.42791e-07
5.38657e-07
5.34571e-07
5.30529e-07
5.2653e-07
5.22574e-07
5.18659e-07
5.14782e-07
5.10943e-07
5.0714e-07
5.0337e-07
4.99631e-07
4.95913e-07
4.92193e-07
4.88185e-07
4.83589e-07
4.80036e-07
4.76419e-07
4.7279e-07
4.69166e-07
4.65548e-07
4.61936e-07
4.58328e-07
4.5472e-07
4.51111e-07
4.47498e-07
4.43878e-07
4.4025e-07
4.3661e-07
4.32956e-07
4.29285e-07
4.25597e-07
4.21887e-07
4.18156e-07
4.14401e-07
4.10621e-07
4.06815e-07
4.02984e-07
3.99127e-07
3.9525e-07
3.91357e-07
3.87459e-07
3.8358e-07
3.79756e-07
3.76058e-07
3.72618e-07
3.6968e-07
3.67727e-07
)
;

boundaryField
{
    boundary
    {
        type            empty;
    }
    inlet
    {
        type            fixedValue;
        value           nonuniform 0();
    }
    outlet
    {
        type            zeroGradient;
    }
    procBoundary0to1
    {
        type            processor;
        value           uniform 1.14315e-06;
    }
}


// ************************************************************************* //
