/*--------------------------------*- C++ -*----------------------------------*\
  =========                 |
  \\      /  F ield         | OpenFOAM: The Open Source CFD Toolbox
   \\    /   O peration     | Website:  https://openfoam.org
    \\  /    A nd           | Version:  7
     \\/     M anipulation  |
\*---------------------------------------------------------------------------*/
FoamFile
{
    version     2.0;
    format      ascii;
    class       surfaceScalarField;
    location    "0.00045";
    object      phi;
}
// * * * * * * * * * * * * * * * * * * * * * * * * * * * * * * * * * * * * * //

dimensions      [1 0 -1 0 0 0 0];

internalField   nonuniform List<scalar> 
124
(
6.93438e-06
6.93405e-06
6.93372e-06
6.93338e-06
6.93304e-06
6.93269e-06
6.93235e-06
6.932e-06
6.93164e-06
6.93126e-06
6.93087e-06
6.93045e-06
6.93001e-06
6.92952e-06
6.92898e-06
6.92839e-06
6.92773e-06
6.927e-06
6.92617e-06
6.92525e-06
6.92423e-06
6.9231e-06
6.92185e-06
6.92049e-06
6.91901e-06
6.91744e-06
6.91578e-06
6.91403e-06
6.91223e-06
6.91039e-06
6.90853e-06
6.90668e-06
6.90485e-06
6.90307e-06
6.90136e-06
6.89973e-06
6.8982e-06
6.89677e-06
6.89546e-06
6.89425e-06
6.89316e-06
6.89218e-06
6.8913e-06
6.89052e-06
6.88983e-06
6.88922e-06
6.88867e-06
6.88818e-06
6.88774e-06
6.88735e-06
6.88699e-06
6.88666e-06
6.88635e-06
6.88606e-06
6.88578e-06
6.88551e-06
6.88525e-06
6.885e-06
6.88475e-06
6.8845e-06
6.88426e-06
6.88402e-06
6.88378e-06
6.88354e-06
6.8833e-06
6.88306e-06
6.88282e-06
6.88258e-06
6.88234e-06
6.8821e-06
6.88186e-06
6.88162e-06
6.88138e-06
6.88114e-06
6.8809e-06
6.88066e-06
6.88042e-06
6.88018e-06
6.87994e-06
6.8797e-06
6.87946e-06
6.87922e-06
6.87897e-06
6.87873e-06
6.87849e-06
6.87825e-06
6.878e-06
6.87776e-06
6.87752e-06
6.87728e-06
6.87703e-06
6.87679e-06
6.87655e-06
6.8763e-06
6.87606e-06
6.87581e-06
6.87557e-06
6.87532e-06
6.87508e-06
6.87483e-06
6.87459e-06
6.87434e-06
6.87409e-06
6.87385e-06
6.8736e-06
6.87335e-06
6.87311e-06
6.87286e-06
6.87261e-06
6.87236e-06
6.87211e-06
6.87186e-06
6.87161e-06
6.87137e-06
6.87112e-06
6.87087e-06
6.87062e-06
6.87037e-06
6.87011e-06
6.86986e-06
6.86961e-06
6.86936e-06
6.86911e-06
6.86885e-06
)
;

boundaryField
{
    boundary
    {
        type            empty;
        value           nonuniform 0();
    }
    inlet
    {
        type            calculated;
        value           uniform -6.93471e-06;
    }
    outlet
    {
        type            calculated;
        value           nonuniform 0();
    }
    procBoundary2to3
    {
        type            processor;
        value           uniform 6.8686e-06;
    }
}


// ************************************************************************* //
