/*--------------------------------*- C++ -*----------------------------------*\
  =========                 |
  \\      /  F ield         | OpenFOAM: The Open Source CFD Toolbox
   \\    /   O peration     | Website:  https://openfoam.org
    \\  /    A nd           | Version:  7
     \\/     M anipulation  |
\*---------------------------------------------------------------------------*/
FoamFile
{
    version     2.0;
    format      ascii;
    class       volScalarField;
    location    "0.00045";
    object      Qdot;
}
// * * * * * * * * * * * * * * * * * * * * * * * * * * * * * * * * * * * * * //

dimensions      [1 -1 -3 0 0 0 0];

internalField   nonuniform List<scalar> 
125
(
-2.45565e-27
-1.868e-27
-1.74314e-27
-1.71808e-27
-1.71457e-27
-1.71577e-27
-1.71806e-27
-1.72076e-27
-1.72376e-27
-1.72716e-27
-1.73107e-27
-1.73565e-27
-1.74107e-27
-1.74751e-27
-1.75521e-27
-1.7644e-27
-1.77534e-27
-1.78829e-27
-1.80351e-27
-1.82126e-27
-1.84176e-27
-1.8652e-27
-1.89172e-27
-1.92137e-27
-1.95416e-27
-1.98996e-27
-2.02858e-27
-2.06971e-27
-2.11295e-27
-2.1578e-27
-2.2037e-27
-2.25002e-27
-2.29611e-27
-2.34132e-27
-2.38503e-27
-2.42668e-27
-2.46579e-27
-2.50197e-27
-2.53496e-27
-2.5646e-27
-2.59085e-27
-2.61377e-27
-2.6335e-27
-2.65026e-27
-2.66429e-27
-2.67588e-27
-2.68534e-27
-2.69296e-27
-2.69901e-27
-2.70377e-27
-2.70746e-27
-2.71029e-27
-2.71244e-27
-2.71405e-27
-2.71524e-27
-2.71612e-27
-2.71675e-27
-2.71721e-27
-2.71754e-27
-2.71777e-27
-2.71793e-27
-2.71805e-27
-2.71813e-27
-2.71819e-27
-2.71823e-27
-2.71826e-27
-2.71829e-27
-2.71831e-27
-2.71833e-27
-2.71835e-27
-2.71837e-27
-2.71839e-27
-2.71841e-27
-2.71843e-27
-2.71845e-27
-2.71847e-27
-2.71849e-27
-2.71851e-27
-2.71854e-27
-2.71856e-27
-2.71859e-27
-2.71862e-27
-2.71865e-27
-2.71868e-27
-2.71871e-27
-2.71875e-27
-2.71879e-27
-2.71882e-27
-2.71886e-27
-2.71891e-27
-2.71895e-27
-2.719e-27
-2.71904e-27
-2.71909e-27
-2.71914e-27
-2.7192e-27
-2.71925e-27
-2.71931e-27
-2.71937e-27
-2.71944e-27
-2.7195e-27
-2.71957e-27
-2.71964e-27
-2.71971e-27
-2.71979e-27
-2.71987e-27
-2.71995e-27
-2.72003e-27
-2.72012e-27
-2.72021e-27
-2.7203e-27
-2.7204e-27
-2.7205e-27
-2.7206e-27
-2.7207e-27
-2.72081e-27
-2.72092e-27
-2.72103e-27
-2.72115e-27
-2.72127e-27
-2.72139e-27
-2.72152e-27
-2.72165e-27
-2.72178e-27
-2.72184e-27
)
;

boundaryField
{
    boundary
    {
        type            empty;
    }
    inlet
    {
        type            calculated;
        value           uniform 0;
    }
    outlet
    {
        type            calculated;
        value           nonuniform 0();
    }
    procBoundary2to3
    {
        type            processor;
        value           uniform 0;
    }
}


// ************************************************************************* //
