/*--------------------------------*- C++ -*----------------------------------*\
  =========                 |
  \\      /  F ield         | OpenFOAM: The Open Source CFD Toolbox
   \\    /   O peration     | Website:  https://openfoam.org
    \\  /    A nd           | Version:  7
     \\/     M anipulation  |
\*---------------------------------------------------------------------------*/
FoamFile
{
    version     2.0;
    format      ascii;
    class       volScalarField;
    location    "0.00046";
    object      H2O;
}
// * * * * * * * * * * * * * * * * * * * * * * * * * * * * * * * * * * * * * //

dimensions      [0 0 0 0 0 0 0];

internalField   nonuniform List<scalar> 
125
(
7.90457e-48
2.28574e-47
4.11536e-47
6.17272e-47
8.38611e-47
1.07078e-46
1.31064e-46
1.5562e-46
1.80628e-46
2.06024e-46
2.31792e-46
2.57947e-46
2.84536e-46
3.1163e-46
3.39323e-46
3.67727e-46
3.96973e-46
4.272e-46
4.58549e-46
4.9116e-46
5.25152e-46
5.60623e-46
5.97626e-46
6.36167e-46
6.76191e-46
7.17574e-46
7.60119e-46
8.03558e-46
8.47558e-46
8.91726e-46
9.35629e-46
9.78809e-46
1.02081e-45
1.06117e-45
1.09951e-45
1.13546e-45
1.16874e-45
1.19916e-45
1.2266e-45
1.25102e-45
1.27247e-45
1.29106e-45
1.30696e-45
1.32038e-45
1.33156e-45
1.34075e-45
1.3482e-45
1.35418e-45
1.3589e-45
1.36259e-45
1.36544e-45
1.36761e-45
1.36925e-45
1.37046e-45
1.37136e-45
1.37201e-45
1.37248e-45
1.37281e-45
1.37305e-45
1.37321e-45
1.37332e-45
1.3734e-45
1.37346e-45
1.37349e-45
1.37352e-45
1.37354e-45
1.37355e-45
1.37356e-45
1.37357e-45
1.37358e-45
1.37358e-45
1.37359e-45
1.3736e-45
1.37361e-45
1.37361e-45
1.37362e-45
1.37363e-45
1.37364e-45
1.37365e-45
1.37366e-45
1.37368e-45
1.37369e-45
1.3737e-45
1.37372e-45
1.37373e-45
1.37375e-45
1.37377e-45
1.37379e-45
1.37381e-45
1.37383e-45
1.37385e-45
1.37387e-45
1.3739e-45
1.37392e-45
1.37395e-45
1.37398e-45
1.37401e-45
1.37404e-45
1.37407e-45
1.3741e-45
1.37414e-45
1.37418e-45
1.37422e-45
1.37426e-45
1.3743e-45
1.37434e-45
1.37439e-45
1.37443e-45
1.37448e-45
1.37453e-45
1.37458e-45
1.37464e-45
1.37469e-45
1.37475e-45
1.37481e-45
1.37487e-45
1.37493e-45
1.375e-45
1.37507e-45
1.37513e-45
1.3752e-45
1.37524e-45
1.37519e-45
1.37479e-45
1.37307e-45
)
;

boundaryField
{
    boundary
    {
        type            empty;
    }
    inlet
    {
        type            fixedValue;
        value           uniform 0;
    }
    outlet
    {
        type            zeroGradient;
    }
    procBoundary2to3
    {
        type            processor;
        value           uniform 1.36987e-45;
    }
}


// ************************************************************************* //
