/*--------------------------------*- C++ -*----------------------------------*\
  =========                 |
  \\      /  F ield         | OpenFOAM: The Open Source CFD Toolbox
   \\    /   O peration     | Website:  https://openfoam.org
    \\  /    A nd           | Version:  7
     \\/     M anipulation  |
\*---------------------------------------------------------------------------*/
FoamFile
{
    version     2.0;
    format      ascii;
    class       volScalarField;
    location    "0.00046";
    object      H2O2;
}
// * * * * * * * * * * * * * * * * * * * * * * * * * * * * * * * * * * * * * //

dimensions      [0 0 0 0 0 0 0];

internalField   nonuniform List<scalar> 
125
(
1.99991e-52
6.43032e-52
1.27944e-51
2.10997e-51
3.1355e-51
4.35715e-51
5.77646e-51
7.39559e-51
9.21747e-51
1.12461e-50
1.34867e-50
1.5946e-50
1.86327e-50
2.15573e-50
2.47324e-50
2.81727e-50
3.18944e-50
3.59146e-50
4.02508e-50
4.49191e-50
4.99328e-50
5.53007e-50
6.10248e-50
6.70985e-50
7.3505e-50
8.02155e-50
8.71889e-50
9.43714e-50
1.01698e-49
1.09093e-49
1.16474e-49
1.23754e-49
1.30848e-49
1.37671e-49
1.4415e-49
1.50219e-49
1.55827e-49
1.60938e-49
1.65532e-49
1.69603e-49
1.73162e-49
1.76229e-49
1.78836e-49
1.81022e-49
1.82829e-49
1.84304e-49
1.85491e-49
1.86434e-49
1.87173e-49
1.87745e-49
1.88183e-49
1.88513e-49
1.88759e-49
1.88941e-49
1.89073e-49
1.89168e-49
1.89236e-49
1.89283e-49
1.89317e-49
1.8934e-49
1.89355e-49
1.89366e-49
1.89374e-49
1.89379e-49
1.89382e-49
1.89384e-49
1.89386e-49
1.89388e-49
1.89389e-49
1.8939e-49
1.89391e-49
1.89392e-49
1.89393e-49
1.89395e-49
1.89396e-49
1.89397e-49
1.89399e-49
1.894e-49
1.89402e-49
1.89403e-49
1.89405e-49
1.89407e-49
1.89409e-49
1.89412e-49
1.89414e-49
1.89417e-49
1.89419e-49
1.89422e-49
1.89425e-49
1.89428e-49
1.89432e-49
1.89435e-49
1.89439e-49
1.89443e-49
1.89447e-49
1.89451e-49
1.89456e-49
1.89461e-49
1.89466e-49
1.89471e-49
1.89476e-49
1.89482e-49
1.89488e-49
1.89494e-49
1.895e-49
1.89507e-49
1.89514e-49
1.89521e-49
1.89528e-49
1.89536e-49
1.89544e-49
1.89552e-49
1.8956e-49
1.89569e-49
1.89578e-49
1.89587e-49
1.89597e-49
1.89607e-49
1.89617e-49
1.89627e-49
1.89636e-49
1.8964e-49
1.89625e-49
1.89528e-49
1.8911e-49
)
;

boundaryField
{
    boundary
    {
        type            empty;
    }
    inlet
    {
        type            fixedValue;
        value           uniform 0;
    }
    outlet
    {
        type            zeroGradient;
    }
    procBoundary2to3
    {
        type            processor;
        value           uniform 1.88277e-49;
    }
}


// ************************************************************************* //
