/*--------------------------------*- C++ -*----------------------------------*\
  =========                 |
  \\      /  F ield         | OpenFOAM: The Open Source CFD Toolbox
   \\    /   O peration     | Website:  https://openfoam.org
    \\  /    A nd           | Version:  7
     \\/     M anipulation  |
\*---------------------------------------------------------------------------*/
FoamFile
{
    version     2.0;
    format      ascii;
    class       volScalarField;
    location    "0.00046";
    object      Qdot;
}
// * * * * * * * * * * * * * * * * * * * * * * * * * * * * * * * * * * * * * //

dimensions      [1 -1 -3 0 0 0 0];

internalField   nonuniform List<scalar> 
125
(
-2.45582e-27
-1.86816e-27
-1.74326e-27
-1.71815e-27
-1.7146e-27
-1.71575e-27
-1.71801e-27
-1.72062e-27
-1.7235e-27
-1.7267e-27
-1.73034e-27
-1.73455e-27
-1.73949e-27
-1.74534e-27
-1.75229e-27
-1.76057e-27
-1.77043e-27
-1.7821e-27
-1.79586e-27
-1.81195e-27
-1.8306e-27
-1.85203e-27
-1.87639e-27
-1.90379e-27
-1.93426e-27
-1.96777e-27
-2.00418e-27
-2.04325e-27
-2.08467e-27
-2.12801e-27
-2.17277e-27
-2.21838e-27
-2.26424e-27
-2.30971e-27
-2.35416e-27
-2.39701e-27
-2.43773e-27
-2.47586e-27
-2.51107e-27
-2.54312e-27
-2.57188e-27
-2.59732e-27
-2.61952e-27
-2.63862e-27
-2.65484e-27
-2.66843e-27
-2.67966e-27
-2.68884e-27
-2.69623e-27
-2.70213e-27
-2.70676e-27
-2.71037e-27
-2.71314e-27
-2.71525e-27
-2.71683e-27
-2.71801e-27
-2.71888e-27
-2.71951e-27
-2.71997e-27
-2.7203e-27
-2.72053e-27
-2.7207e-27
-2.72082e-27
-2.72091e-27
-2.72097e-27
-2.72102e-27
-2.72105e-27
-2.72108e-27
-2.72111e-27
-2.72113e-27
-2.72115e-27
-2.72117e-27
-2.72119e-27
-2.72122e-27
-2.72124e-27
-2.72126e-27
-2.72129e-27
-2.72131e-27
-2.72134e-27
-2.72136e-27
-2.72139e-27
-2.72142e-27
-2.72146e-27
-2.72149e-27
-2.72152e-27
-2.72156e-27
-2.7216e-27
-2.72164e-27
-2.72168e-27
-2.72172e-27
-2.72177e-27
-2.72182e-27
-2.72186e-27
-2.72192e-27
-2.72197e-27
-2.72202e-27
-2.72208e-27
-2.72214e-27
-2.7222e-27
-2.72227e-27
-2.72233e-27
-2.7224e-27
-2.72247e-27
-2.72255e-27
-2.72263e-27
-2.7227e-27
-2.72279e-27
-2.72287e-27
-2.72296e-27
-2.72305e-27
-2.72314e-27
-2.72324e-27
-2.72334e-27
-2.72344e-27
-2.72354e-27
-2.72365e-27
-2.72376e-27
-2.72388e-27
-2.72399e-27
-2.72411e-27
-2.72424e-27
-2.72437e-27
-2.7245e-27
-2.72461e-27
-2.72462e-27
)
;

boundaryField
{
    boundary
    {
        type            empty;
    }
    inlet
    {
        type            calculated;
        value           uniform 0;
    }
    outlet
    {
        type            calculated;
        value           nonuniform 0();
    }
    procBoundary2to3
    {
        type            processor;
        value           uniform 0;
    }
}


// ************************************************************************* //
