/*--------------------------------*- C++ -*----------------------------------*\
  =========                 |
  \\      /  F ield         | OpenFOAM: The Open Source CFD Toolbox
   \\    /   O peration     | Website:  https://openfoam.org
    \\  /    A nd           | Version:  7
     \\/     M anipulation  |
\*---------------------------------------------------------------------------*/
FoamFile
{
    version     2.0;
    format      ascii;
    class       volScalarField;
    location    "0.00089";
    object      H;
}
// * * * * * * * * * * * * * * * * * * * * * * * * * * * * * * * * * * * * * //

dimensions      [0 0 0 0 0 0 0];

internalField   nonuniform List<scalar> 
125
(
1.48613e-41
2.01352e-41
2.12771e-41
2.15276e-41
2.15857e-41
2.16017e-41
2.16079e-41
2.16109e-41
2.16119e-41
2.16109e-41
2.16074e-41
2.16012e-41
2.15921e-41
2.158e-41
2.1565e-41
2.15472e-41
2.15271e-41
2.15051e-41
2.14819e-41
2.14581e-41
2.14345e-41
2.14118e-41
2.13908e-41
2.13722e-41
2.13567e-41
2.13447e-41
2.13368e-41
2.13334e-41
2.13349e-41
2.13414e-41
2.13532e-41
2.13705e-41
2.13936e-41
2.14226e-41
2.1458e-41
2.15e-41
2.15492e-41
2.1606e-41
2.16713e-41
2.17458e-41
2.18302e-41
2.19257e-41
2.20331e-41
2.21537e-41
2.22884e-41
2.24384e-41
2.26048e-41
2.27885e-41
2.29905e-41
2.32115e-41
2.34521e-41
2.37128e-41
2.39937e-41
2.42947e-41
2.46155e-41
2.49553e-41
2.53133e-41
2.5688e-41
2.60778e-41
2.64809e-41
2.68949e-41
2.73174e-41
2.77457e-41
2.8177e-41
2.86083e-41
2.90365e-41
2.94589e-41
2.98723e-41
3.02743e-41
3.06622e-41
3.10338e-41
3.13872e-41
3.1721e-41
3.20338e-41
3.23249e-41
3.25938e-41
3.28404e-41
3.3065e-41
3.32681e-41
3.34504e-41
3.36129e-41
3.37567e-41
3.38832e-41
3.39937e-41
3.40896e-41
3.41722e-41
3.42429e-41
3.43031e-41
3.43539e-41
3.43967e-41
3.44323e-41
3.44619e-41
3.44863e-41
3.45064e-41
3.45227e-41
3.4536e-41
3.45466e-41
3.45552e-41
3.45621e-41
3.45676e-41
3.4572e-41
3.45754e-41
3.45782e-41
3.45803e-41
3.45821e-41
3.45835e-41
3.45846e-41
3.45856e-41
3.45864e-41
3.45871e-41
3.45877e-41
3.45883e-41
3.45888e-41
3.45893e-41
3.45898e-41
3.45903e-41
3.45908e-41
3.45913e-41
3.45918e-41
3.45924e-41
3.45929e-41
3.45935e-41
3.4594e-41
3.45944e-41
3.45946e-41
)
;

boundaryField
{
    boundary
    {
        type            empty;
    }
    inlet
    {
        type            fixedValue;
        value           uniform 0;
    }
    outlet
    {
        type            zeroGradient;
    }
    procBoundary2to3
    {
        type            processor;
        value           uniform 3.45947e-41;
    }
}


// ************************************************************************* //
