/*--------------------------------*- C++ -*----------------------------------*\
  =========                 |
  \\      /  F ield         | OpenFOAM: The Open Source CFD Toolbox
   \\    /   O peration     | Website:  https://openfoam.org
    \\  /    A nd           | Version:  7
     \\/     M anipulation  |
\*---------------------------------------------------------------------------*/
FoamFile
{
    version     2.0;
    format      ascii;
    class       volScalarField;
    location    "0.00089";
    object      H2O;
}
// * * * * * * * * * * * * * * * * * * * * * * * * * * * * * * * * * * * * * //

dimensions      [0 0 0 0 0 0 0];

internalField   nonuniform List<scalar> 
125
(
7.88458e-48
2.27856e-47
4.09963e-47
6.14432e-47
8.33995e-47
1.06374e-46
1.30032e-46
1.54146e-46
1.78559e-46
2.0316e-46
2.27872e-46
2.52639e-46
2.77423e-46
3.022e-46
3.26953e-46
3.51678e-46
3.76377e-46
4.01059e-46
4.25739e-46
4.50437e-46
4.75178e-46
4.99988e-46
5.24895e-46
5.49926e-46
5.75109e-46
6.0047e-46
6.26034e-46
6.51823e-46
6.7786e-46
7.04167e-46
7.30767e-46
7.57686e-46
7.84954e-46
8.12606e-46
8.40684e-46
8.69237e-46
8.98324e-46
9.28015e-46
9.58386e-46
9.89525e-46
1.02153e-45
1.0545e-45
1.08856e-45
1.1238e-45
1.16035e-45
1.19832e-45
1.23782e-45
1.27892e-45
1.32172e-45
1.36627e-45
1.41261e-45
1.46073e-45
1.51061e-45
1.56219e-45
1.61537e-45
1.67e-45
1.72591e-45
1.78288e-45
1.84067e-45
1.899e-45
1.95755e-45
2.01601e-45
2.07403e-45
2.13129e-45
2.18743e-45
2.24213e-45
2.29509e-45
2.34602e-45
2.39467e-45
2.44082e-45
2.48432e-45
2.52502e-45
2.56284e-45
2.59774e-45
2.62972e-45
2.65881e-45
2.6851e-45
2.70868e-45
2.72968e-45
2.74826e-45
2.76458e-45
2.77881e-45
2.79114e-45
2.80174e-45
2.8108e-45
2.81849e-45
2.82497e-45
2.83039e-45
2.8349e-45
2.83863e-45
2.84169e-45
2.84419e-45
2.84621e-45
2.84784e-45
2.84915e-45
2.85019e-45
2.85101e-45
2.85166e-45
2.85217e-45
2.85257e-45
2.85289e-45
2.85313e-45
2.85332e-45
2.85347e-45
2.85359e-45
2.85369e-45
2.85377e-45
2.85384e-45
2.85389e-45
2.85394e-45
2.85399e-45
2.85403e-45
2.85407e-45
2.85412e-45
2.85416e-45
2.8542e-45
2.85425e-45
2.85429e-45
2.85434e-45
2.85438e-45
2.85443e-45
2.85444e-45
2.85435e-45
2.85389e-45
2.85206e-45
)
;

boundaryField
{
    boundary
    {
        type            empty;
    }
    inlet
    {
        type            fixedValue;
        value           uniform 0;
    }
    outlet
    {
        type            zeroGradient;
    }
    procBoundary2to3
    {
        type            processor;
        value           uniform 2.84866e-45;
    }
}


// ************************************************************************* //
