/*--------------------------------*- C++ -*----------------------------------*\
  =========                 |
  \\      /  F ield         | OpenFOAM: The Open Source CFD Toolbox
   \\    /   O peration     | Website:  https://openfoam.org
    \\  /    A nd           | Version:  7
     \\/     M anipulation  |
\*---------------------------------------------------------------------------*/
FoamFile
{
    version     2.0;
    format      ascii;
    class       volScalarField;
    location    "0.00089";
    object      H2O2;
}
// * * * * * * * * * * * * * * * * * * * * * * * * * * * * * * * * * * * * * //

dimensions      [0 0 0 0 0 0 0];

internalField   nonuniform List<scalar> 
125
(
1.99287e-52
6.40293e-52
1.27292e-51
2.09719e-51
3.11299e-51
4.32006e-51
5.71795e-51
7.30606e-51
9.08355e-51
1.10494e-50
1.32026e-50
1.55419e-50
1.80664e-50
2.0775e-50
2.36672e-50
2.6743e-50
3.00026e-50
3.34471e-50
3.70781e-50
4.08978e-50
4.49089e-50
4.91148e-50
5.35191e-50
5.81259e-50
6.29394e-50
6.79641e-50
7.32044e-50
7.86651e-50
8.43514e-50
9.02688e-50
9.64233e-50
1.02822e-49
1.09473e-49
1.16385e-49
1.2357e-49
1.31041e-49
1.38814e-49
1.46904e-49
1.55334e-49
1.64124e-49
1.73299e-49
1.82886e-49
1.92911e-49
2.03404e-49
2.14393e-49
2.25905e-49
2.37965e-49
2.50597e-49
2.63816e-49
2.77636e-49
2.92059e-49
3.07082e-49
3.22689e-49
3.38856e-49
3.55545e-49
3.72707e-49
3.90283e-49
4.08198e-49
4.2637e-49
4.44707e-49
4.63106e-49
4.81463e-49
4.99666e-49
5.17604e-49
5.35169e-49
5.52254e-49
5.68761e-49
5.846e-49
5.99692e-49
6.13972e-49
6.27387e-49
6.39898e-49
6.51483e-49
6.62132e-49
6.71849e-49
6.80651e-49
6.88567e-49
6.95633e-49
7.01896e-49
7.07406e-49
7.12218e-49
7.16392e-49
7.19985e-49
7.23058e-49
7.25666e-49
7.27865e-49
7.29706e-49
7.31237e-49
7.32501e-49
7.33539e-49
7.34384e-49
7.35069e-49
7.3562e-49
7.36061e-49
7.36412e-49
7.36689e-49
7.36907e-49
7.37078e-49
7.37211e-49
7.37315e-49
7.37395e-49
7.37458e-49
7.37507e-49
7.37545e-49
7.37575e-49
7.376e-49
7.3762e-49
7.37637e-49
7.37652e-49
7.37665e-49
7.37677e-49
7.37689e-49
7.377e-49
7.37712e-49
7.37723e-49
7.37735e-49
7.37747e-49
7.3776e-49
7.37773e-49
7.37786e-49
7.37797e-49
7.37798e-49
7.37758e-49
7.37556e-49
7.36714e-49
)
;

boundaryField
{
    boundary
    {
        type            empty;
    }
    inlet
    {
        type            fixedValue;
        value           uniform 0;
    }
    outlet
    {
        type            zeroGradient;
    }
    procBoundary2to3
    {
        type            processor;
        value           uniform 7.35047e-49;
    }
}


// ************************************************************************* //
