/*--------------------------------*- C++ -*----------------------------------*\
  =========                 |
  \\      /  F ield         | OpenFOAM: The Open Source CFD Toolbox
   \\    /   O peration     | Website:  https://openfoam.org
    \\  /    A nd           | Version:  7
     \\/     M anipulation  |
\*---------------------------------------------------------------------------*/
FoamFile
{
    version     2.0;
    format      ascii;
    class       volScalarField;
    location    "0.00015";
    object      cellCpuTimes;
}
// * * * * * * * * * * * * * * * * * * * * * * * * * * * * * * * * * * * * * //

dimensions      [0 0 0 0 0 0 0];

internalField   nonuniform List<scalar> 
124
(
0.000121
0.000119
0.000119
0.000121
0.000115
0.000161
0.00012
0.000129
0.000127
0.000126
0.000126
0.000127
0.000127
0.000127
0.000124
0.000124
0.000124
0.000108
0.000109
0.000108
0.000108
0.000107
0.000107
0.000105
0.000105
0.000106
0.000105
0.000105
0.000102
9.7e-05
9.5e-05
9.4e-05
9.5e-05
0.000106
9.3e-05
8.9e-05
8.9e-05
8.5e-05
8.9e-05
8.8e-05
8.9e-05
8.7e-05
8.6e-05
8.3e-05
8.3e-05
8.4e-05
8e-05
8.1e-05
7.8e-05
7.7e-05
7.4e-05
7.7e-05
7.1e-05
7.1e-05
6.6e-05
6.4e-05
6.6e-05
6.3e-05
7e-05
7e-05
6.3e-05
6.6e-05
6.6e-05
6.5e-05
6.5e-05
6.5e-05
6.4e-05
6.3e-05
6.3e-05
6.3e-05
6.3e-05
6.2e-05
6.3e-05
6.3e-05
6.3e-05
6.3e-05
6.2e-05
6.3e-05
6.2e-05
6.3e-05
6.3e-05
6.2e-05
6.3e-05
6.3e-05
6.3e-05
6.2e-05
6.3e-05
6.3e-05
6.6e-05
6.4e-05
6.3e-05
6.2e-05
6.3e-05
6.3e-05
6.3e-05
6.3e-05
6.3e-05
6.3e-05
6.2e-05
6.3e-05
6.3e-05
6.3e-05
6.3e-05
6.2e-05
6.3e-05
6.2e-05
6.3e-05
6.2e-05
6.3e-05
6.3e-05
6.3e-05
6.3e-05
6.3e-05
6.3e-05
6.3e-05
6.3e-05
6.3e-05
6.2e-05
6.3e-05
6.2e-05
6.5e-05
6.5e-05
6.2e-05
6.2e-05
)
;

boundaryField
{
    boundary
    {
        type            empty;
    }
    inlet
    {
        type            calculated;
        value           nonuniform 0();
    }
    outlet
    {
        type            calculated;
        value           uniform 0;
    }
    procBoundary0to1
    {
        type            processor;
        value           uniform 0;
    }
}


// ************************************************************************* //
