/*--------------------------------*- C++ -*----------------------------------*\
  =========                 |
  \\      /  F ield         | OpenFOAM: The Open Source CFD Toolbox
   \\    /   O peration     | Website:  https://openfoam.org
    \\  /    A nd           | Version:  7
     \\/     M anipulation  |
\*---------------------------------------------------------------------------*/
FoamFile
{
    version     2.0;
    format      ascii;
    class       volScalarField;
    location    "0.00022";
    object      T;
}
// * * * * * * * * * * * * * * * * * * * * * * * * * * * * * * * * * * * * * //

dimensions      [0 0 0 1 0 0 0];

internalField   nonuniform List<scalar> 
125
(
301.356
301.353
301.349
301.346
301.342
301.339
301.335
301.332
301.328
301.324
301.321
301.317
301.313
301.31
301.306
301.302
301.299
301.296
301.296
301.302
301.331
301.421
301.691
302.479
304.763
311.323
329.662
376.113
469.897
608.34
763.721
915.675
1058.65
1189.11
1300.65
1395.39
1475.31
1538.64
1589.26
1632.09
1668.85
1700.91
1729.24
1754.58
1777.44
1798.23
1817.26
1834.79
1851
1866.06
1880.11
1893.25
1905.58
1917.19
1928.14
1938.48
1948.28
1957.58
1966.4
1974.8
1982.77
1990.15
1997.08
2003.75
2010.17
2016.35
2022.31
2028.05
2033.59
2038.93
2044.08
2049.04
2053.83
2058.46
2062.92
2067.22
2071.36
2075.36
2079.22
2082.93
2086.51
2089.96
2093.29
2096.5
2099.59
2102.58
2105.46
2108.25
2110.95
2113.57
2116.12
2118.61
2121.05
2123.44
2125.81
2128.15
2130.5
2132.85
2135.22
2137.63
2140.09
2142.61
2145.22
2147.92
2150.74
2153.68
2156.75
2159.98
2163.37
2166.94
2170.69
2174.62
2178.76
2183.09
2187.63
2192.37
2197.31
2202.45
2207.77
2213.28
2218.96
2224.79
2230.78
2236.91
2243.16
)
;

boundaryField
{
    boundary
    {
        type            empty;
    }
    inlet
    {
        type            fixedValue;
        value           nonuniform 0();
    }
    outlet
    {
        type            zeroGradient;
    }
    procBoundary1to0
    {
        type            processor;
        value           uniform 2249.44;
    }
    procBoundary1to3
    {
        type            processor;
        value           uniform 301.36;
    }
}


// ************************************************************************* //
