/*--------------------------------*- C++ -*----------------------------------*\
  =========                 |
  \\      /  F ield         | OpenFOAM: The Open Source CFD Toolbox
   \\    /   O peration     | Website:  https://openfoam.org
    \\  /    A nd           | Version:  7
     \\/     M anipulation  |
\*---------------------------------------------------------------------------*/
FoamFile
{
    version     2.0;
    format      ascii;
    class       volScalarField;
    location    "0.00036";
    object      H;
}
// * * * * * * * * * * * * * * * * * * * * * * * * * * * * * * * * * * * * * //

dimensions      [0 0 0 0 0 0 0];

internalField   nonuniform List<scalar> 
500
(
1.48715e-41
2.01658e-41
2.13332e-41
2.16146e-41
2.17096e-41
2.17704e-41
2.18315e-41
2.19025e-41
2.19883e-41
2.2093e-41
2.22211e-41
2.23772e-41
2.25663e-41
2.27932e-41
2.30624e-41
2.33781e-41
2.37432e-41
2.41598e-41
2.46282e-41
2.51469e-41
2.57124e-41
2.63193e-41
2.69599e-41
2.7625e-41
2.83036e-41
2.89841e-41
2.96546e-41
3.03033e-41
3.09197e-41
3.14949e-41
3.20218e-41
3.24959e-41
3.29148e-41
3.32783e-41
3.35884e-41
3.38484e-41
3.40627e-41
3.42364e-41
3.4375e-41
3.44839e-41
3.45681e-41
3.46322e-41
3.46804e-41
3.4716e-41
3.4742e-41
3.47607e-41
3.4774e-41
3.47834e-41
3.47899e-41
3.47943e-41
3.47973e-41
3.47994e-41
3.48008e-41
3.48017e-41
3.48024e-41
3.48028e-41
3.48032e-41
3.48034e-41
3.48037e-41
3.48039e-41
3.48041e-41
3.48043e-41
3.48045e-41
3.48047e-41
3.48049e-41
3.48051e-41
3.48054e-41
3.48056e-41
3.48059e-41
3.48062e-41
3.48065e-41
3.48068e-41
3.48071e-41
3.48075e-41
3.48078e-41
3.48082e-41
3.48086e-41
3.48091e-41
3.48095e-41
3.481e-41
3.48105e-41
3.4811e-41
3.48115e-41
3.48121e-41
3.48127e-41
3.48133e-41
3.48139e-41
3.48146e-41
3.48153e-41
3.4816e-41
3.48168e-41
3.48176e-41
3.48184e-41
3.48192e-41
3.48201e-41
3.4821e-41
3.4822e-41
3.48229e-41
3.4824e-41
3.4825e-41
3.48261e-41
3.48272e-41
3.48284e-41
3.48296e-41
3.48308e-41
3.48321e-41
3.48334e-41
3.48348e-41
3.48362e-41
3.48376e-41
3.48391e-41
3.48406e-41
3.48422e-41
3.48438e-41
3.48454e-41
3.48471e-41
3.48489e-41
3.48506e-41
3.48524e-41
3.48543e-41
3.48562e-41
3.48581e-41
3.48601e-41
3.48621e-41
3.48641e-41
3.48662e-41
3.48682e-41
3.48703e-41
3.48725e-41
3.48746e-41
3.48768e-41
3.4879e-41
3.48812e-41
3.48835e-41
3.48857e-41
3.48879e-41
3.48901e-41
3.48923e-41
3.48945e-41
3.48968e-41
3.4899e-41
3.49013e-41
3.49036e-41
3.4906e-41
3.49085e-41
3.4911e-41
3.49136e-41
3.49162e-41
3.49189e-41
3.49217e-41
3.49245e-41
3.49273e-41
3.49301e-41
3.4933e-41
3.49358e-41
3.49386e-41
3.49413e-41
3.49439e-41
3.49465e-41
3.4949e-41
3.49514e-41
3.49537e-41
3.49559e-41
3.49581e-41
3.49601e-41
3.4962e-41
3.49637e-41
3.49654e-41
3.49669e-41
3.49683e-41
3.49696e-41
3.49707e-41
3.49717e-41
3.49725e-41
3.49731e-41
3.49736e-41
3.49738e-41
3.49739e-41
3.49738e-41
3.49734e-41
3.49728e-41
3.4972e-41
3.49709e-41
3.49695e-41
3.49679e-41
3.4966e-41
3.49638e-41
3.49612e-41
3.49584e-41
3.49552e-41
3.49517e-41
3.49478e-41
3.49435e-41
3.49389e-41
3.49338e-41
3.49284e-41
3.49225e-41
3.49162e-41
3.49094e-41
3.49022e-41
3.48945e-41
3.48863e-41
3.48777e-41
3.48685e-41
3.48588e-41
3.48486e-41
3.48378e-41
3.48265e-41
3.48147e-41
3.48022e-41
3.47892e-41
3.47757e-41
3.47615e-41
3.47468e-41
3.47314e-41
3.47155e-41
3.4699e-41
3.46822e-41
3.46664e-41
3.46576e-41
3.46836e-41
3.48742e-41
3.58238e-41
4.02301e-41
6.02001e-41
1.49475e-40
5.43954e-40
2.26752e-39
9.71404e-39
4.15244e-38
1.75877e-37
7.36868e-37
3.05252e-36
1.25015e-35
5.06158e-35
2.02595e-34
8.01692e-34
3.1366e-33
1.21351e-32
4.64353e-32
1.75794e-31
6.58705e-31
2.44431e-30
8.98942e-30
3.27996e-29
1.18895e-28
4.28951e-28
1.54394e-27
5.56119e-27
2.01235e-26
7.35066e-26
2.71241e-25
1.02006e-24
3.91976e-24
1.54334e-23
6.23304e-23
2.58026e-22
1.09244e-21
4.71595e-21
2.06889e-20
9.19593e-20
4.13166e-19
1.87368e-18
8.57303e-18
3.96085e-17
1.85189e-16
8.79567e-16
4.26731e-15
2.12989e-14
1.1024e-13
6.02674e-13
3.80705e-12
3.20967e-11
3.23075e-10
3.02268e-09
2.83817e-08
2.59573e-07
2.18437e-06
1.51506e-05
7.39042e-05
0.00022453
0.000470026
0.000791708
0.00115386
0.00149074
0.0017388
0.00187765
0.00192586
0.00191
0.00185881
0.00179016
0.00171497
0.00163941
0.0015667
0.0014983
0.00143472
0.00137598
0.00132181
0.00127187
0.00122576
0.0011831
0.00114355
0.00110678
0.0010725
0.00104048
0.0010105
0.000982346
0.000955868
0.000930911
0.000907346
0.000885055
0.000863935
0.000844483
0.000826391
0.000809055
0.000792429
0.000776467
0.00076113
0.000746382
0.000732186
0.000718512
0.000705331
0.000692614
0.000680338
0.000668479
0.000657016
0.000645928
0.000635197
0.000624805
0.000614737
0.000604977
0.000595511
0.000586326
0.000577409
0.000568749
0.000560334
0.000552155
0.000544202
0.000536465
0.000528937
0.000521608
0.000514472
0.000507521
0.000500748
0.000494147
0.000487712
0.000481437
0.000475316
0.000469344
0.000463517
0.000457828
0.000452275
0.000446853
0.000441557
0.000436384
0.000431331
0.000426392
0.000421566
0.000416849
0.000412237
0.000407729
0.00040332
0.000399009
0.000394793
0.000390669
0.000386635
0.000382689
0.000378828
0.000375051
0.000371355
0.000367739
0.0003642
0.000360736
0.000357344
0.000354021
0.000350764
0.000347548
0.000344386
0.000341282
0.000338235
0.000335245
0.000332309
0.000329425
0.000326589
0.0003238
0.000321055
0.000318352
0.000315688
0.000313062
0.000310469
0.000307909
0.000305379
0.000302877
0.000300399
0.000297944
0.000295509
0.000293091
0.000290689
0.0002883
0.00028592
0.000283549
0.000281182
0.000278819
0.000276456
0.000274092
0.000271723
0.000269349
0.000266967
0.000264575
0.000262171
0.000259754
0.000257322
0.000254873
0.000252407
0.000249922
0.000247417
0.000244891
0.000242344
0.000239775
0.000237183
0.000234569
0.000231933
0.000229274
0.000226593
0.00022389
0.000221166
0.000218421
0.000215657
0.000212874
0.000210073
0.000207257
0.000204425
0.000201579
0.000198722
0.000195855
0.000192979
0.000190096
0.000187209
0.000184318
0.000181428
0.000178539
0.000175654
0.000172775
0.000169904
0.000167045
0.000164199
0.000161369
0.000158557
0.000155767
0.000153
0.00015026
0.000147549
0.000144869
0.000142223
0.000139614
0.000137044
0.000134516
0.000132032
0.000129594
0.000127204
0.000124865
0.000122578
0.000120345
0.000118169
0.00011605
0.00011399
0.00011199
0.000110052
0.000108176
0.000106362
0.000104612
0.000102926
0.000101304
9.97456e-05
9.82512e-05
9.68204e-05
9.54525e-05
9.41471e-05
9.29032e-05
9.17199e-05
9.05962e-05
8.95309e-05
8.85227e-05
8.75702e-05
8.6672e-05
8.58264e-05
8.50321e-05
8.42874e-05
8.35909e-05
8.29411e-05
8.23367e-05
8.17768e-05
8.12608e-05
8.07887e-05
8.03616e-05
7.99819e-05
7.96538e-05
7.93848e-05
7.91862e-05
7.90753e-05
)
;

boundaryField
{
    boundary
    {
        type            empty;
    }
    inlet
    {
        type            fixedValue;
        value           uniform 0;
    }
    outlet
    {
        type            zeroGradient;
    }
}


// ************************************************************************* //
