/*--------------------------------*- C++ -*----------------------------------*\
  =========                 |
  \\      /  F ield         | OpenFOAM: The Open Source CFD Toolbox
   \\    /   O peration     | Website:  https://openfoam.org
    \\  /    A nd           | Version:  7
     \\/     M anipulation  |
\*---------------------------------------------------------------------------*/
FoamFile
{
    version     2.0;
    format      ascii;
    class       volScalarField;
    location    "0.00036";
    object      H2;
}
// * * * * * * * * * * * * * * * * * * * * * * * * * * * * * * * * * * * * * //

dimensions      [0 0 0 0 0 0 0];

internalField   nonuniform List<scalar> 
500
(
0.0285116
0.0285116
0.0285116
0.0285116
0.0285116
0.0285116
0.0285116
0.0285116
0.0285116
0.0285116
0.0285116
0.0285116
0.0285116
0.0285116
0.0285116
0.0285116
0.0285116
0.0285116
0.0285116
0.0285116
0.0285116
0.0285116
0.0285116
0.0285116
0.0285116
0.0285116
0.0285116
0.0285116
0.0285116
0.0285116
0.0285116
0.0285116
0.0285116
0.0285116
0.0285116
0.0285116
0.0285116
0.0285116
0.0285116
0.0285116
0.0285116
0.0285116
0.0285116
0.0285116
0.0285116
0.0285116
0.0285116
0.0285116
0.0285116
0.0285116
0.0285116
0.0285116
0.0285116
0.0285116
0.0285116
0.0285116
0.0285116
0.0285116
0.0285116
0.0285116
0.0285116
0.0285116
0.0285116
0.0285116
0.0285116
0.0285116
0.0285116
0.0285116
0.0285116
0.0285116
0.0285116
0.0285116
0.0285116
0.0285116
0.0285116
0.0285116
0.0285116
0.0285116
0.0285116
0.0285116
0.0285116
0.0285116
0.0285116
0.0285116
0.0285116
0.0285116
0.0285116
0.0285116
0.0285116
0.0285116
0.0285116
0.0285116
0.0285116
0.0285116
0.0285116
0.0285116
0.0285116
0.0285116
0.0285116
0.0285116
0.0285116
0.0285116
0.0285116
0.0285116
0.0285116
0.0285116
0.0285116
0.0285116
0.0285116
0.0285116
0.0285116
0.0285116
0.0285116
0.0285116
0.0285116
0.0285116
0.0285116
0.0285116
0.0285116
0.0285116
0.0285116
0.0285116
0.0285116
0.0285116
0.0285116
0.0285116
0.0285116
0.0285116
0.0285116
0.0285116
0.0285116
0.0285116
0.0285116
0.0285116
0.0285116
0.0285116
0.0285116
0.0285116
0.0285116
0.0285116
0.0285116
0.0285116
0.0285116
0.0285116
0.0285116
0.0285116
0.0285116
0.0285116
0.0285116
0.0285116
0.0285116
0.0285116
0.0285116
0.0285116
0.0285116
0.0285116
0.0285116
0.0285116
0.0285116
0.0285116
0.0285116
0.0285116
0.0285116
0.0285116
0.0285116
0.0285116
0.0285116
0.0285116
0.0285116
0.0285116
0.0285116
0.0285116
0.0285116
0.0285116
0.0285116
0.0285116
0.0285116
0.0285116
0.0285116
0.0285116
0.0285116
0.0285116
0.0285116
0.0285116
0.0285116
0.0285116
0.0285116
0.0285116
0.0285116
0.0285116
0.0285116
0.0285116
0.0285116
0.0285116
0.0285116
0.0285116
0.0285116
0.0285116
0.0285116
0.0285116
0.0285116
0.0285116
0.0285116
0.0285116
0.0285116
0.0285116
0.0285116
0.0285116
0.0285116
0.0285116
0.0285116
0.0285116
0.0285116
0.0285116
0.0285116
0.0285116
0.0285116
0.0285116
0.0285116
0.0285116
0.0285116
0.0285116
0.0285116
0.0285116
0.0285116
0.0285116
0.0285116
0.0285116
0.0285116
0.0285116
0.0285116
0.0285116
0.0285116
0.0285116
0.0285116
0.0285116
0.0285116
0.0285116
0.0285116
0.0285116
0.0285116
0.0285116
0.0285116
0.0285116
0.0285116
0.0285116
0.0285116
0.0285116
0.0285116
0.0285116
0.0285116
0.0285116
0.0285116
0.0285116
0.0285116
0.0285116
0.0285116
0.0285116
0.0285116
0.0285116
0.0285116
0.0285116
0.0285116
0.0285115
0.0285115
0.0285114
0.0285112
0.0285107
0.0285097
0.0285077
0.0285035
0.0284946
0.0284761
0.0284375
0.0283571
0.0281912
0.0278558
0.02721
0.0260768
0.0243325
0.0220451
0.0193845
0.0164367
0.0133657
0.0105157
0.00821814
0.00657927
0.00541332
0.00473364
0.00431381
0.00405527
0.00389395
0.00379019
0.00372008
0.00366947
0.00363006
0.00359705
0.00356769
0.00354041
0.00351434
0.00348902
0.00346419
0.00343974
0.00341561
0.0033918
0.00336831
0.00334514
0.0033223
0.00329982
0.00327768
0.00325591
0.00323451
0.00321412
0.00319454
0.00317524
0.0031562
0.00313743
0.00311893
0.00310068
0.00308269
0.00306496
0.00304748
0.00303025
0.00301326
0.00299652
0.00298002
0.00296375
0.00294771
0.0029319
0.00291631
0.00290094
0.00288579
0.00287086
0.00285613
0.00284162
0.00282731
0.0028132
0.00279929
0.00278557
0.00277205
0.00275873
0.00274559
0.00273265
0.00271989
0.00270732
0.00269494
0.00268275
0.00267074
0.00265891
0.00264728
0.00263583
0.00262457
0.0026135
0.00260262
0.00259193
0.00258144
0.00257114
0.00256105
0.00255116
0.00254148
0.002532
0.00252275
0.00251371
0.00250489
0.00249631
0.00248796
0.00247986
0.002472
0.00246441
0.00245709
0.00245007
0.00244336
0.002437
0.00243103
0.00242554
0.00242064
0.00241555
0.00240993
0.00240467
0.00239972
0.00239509
0.00239075
0.00238671
0.00238297
0.00237952
0.00237638
0.00237352
0.00237096
0.0023687
0.00236671
0.00236501
0.00236357
0.0023624
0.00236148
0.0023608
0.00236035
0.00236012
0.00236007
0.00236021
0.00236052
0.00236096
0.00236152
0.00236218
0.00236292
0.0023637
0.0023645
0.0023653
0.00236605
0.00236673
0.00236732
0.00236776
0.00236804
0.00236812
0.00236795
0.00236751
0.00236675
0.00236566
0.00236417
0.00236227
0.00235992
0.00235709
0.00235374
0.00234984
0.00234537
0.00234029
0.00233459
0.00232824
0.00232121
0.00231351
0.00230509
0.00229597
0.00228612
0.00227555
0.00226424
0.00225221
0.00223945
0.00222597
0.00221179
0.00219691
0.00218136
0.00216514
0.0021483
0.00213084
0.0021128
0.00209421
0.00207511
0.00205553
0.0020355
0.00201506
0.00199427
0.00197315
0.00195176
0.00193013
0.00190832
0.00188637
0.00186432
0.00184223
0.00182014
0.00179809
0.00177614
0.00175432
0.00173268
0.00171127
0.00169012
0.00166926
0.00164875
0.00162861
0.00160888
0.00158959
0.00157076
0.00155242
0.0015346
0.00151731
0.00150057
0.0014844
0.0014688
0.0014538
0.00143939
0.00142557
0.00141236
0.00139975
0.00138774
0.00137631
0.00136547
0.00135521
0.00134552
0.00133638
0.00132778
0.00131972
0.00131217
0.00130514
0.0012986
0.00129256
0.00128702
0.00128199
0.0012775
0.0012736
0.00127038
0.00126797
0.00126659
)
;

boundaryField
{
    boundary
    {
        type            empty;
    }
    inlet
    {
        type            fixedValue;
        value           uniform 0.0285116;
    }
    outlet
    {
        type            zeroGradient;
    }
}


// ************************************************************************* //
