/*--------------------------------*- C++ -*----------------------------------*\
  =========                 |
  \\      /  F ield         | OpenFOAM: The Open Source CFD Toolbox
   \\    /   O peration     | Website:  https://openfoam.org
    \\  /    A nd           | Version:  7
     \\/     M anipulation  |
\*---------------------------------------------------------------------------*/
FoamFile
{
    version     2.0;
    format      ascii;
    class       volScalarField;
    location    "0.00036";
    object      HO2;
}
// * * * * * * * * * * * * * * * * * * * * * * * * * * * * * * * * * * * * * //

dimensions      [0 0 0 0 0 0 0];

internalField   nonuniform List<scalar> 
500
(
5.60194e-38
1.27606e-37
1.99614e-37
2.71892e-37
3.44462e-37
4.1741e-37
4.90865e-37
5.64994e-37
6.4001e-37
7.16166e-37
7.93755e-37
8.73093e-37
9.54505e-37
1.0383e-36
1.12472e-36
1.21395e-36
1.30601e-36
1.40077e-36
1.49791e-36
1.5969e-36
1.69698e-36
1.79723e-36
1.89655e-36
1.99378e-36
2.0877e-36
2.17716e-36
2.2611e-36
2.33865e-36
2.40917e-36
2.47226e-36
2.52778e-36
2.57582e-36
2.61671e-36
2.65092e-36
2.67909e-36
2.70189e-36
2.72005e-36
2.73428e-36
2.74526e-36
2.75359e-36
2.75981e-36
2.7644e-36
2.76772e-36
2.7701e-36
2.77177e-36
2.77293e-36
2.77373e-36
2.77427e-36
2.77462e-36
2.77486e-36
2.77501e-36
2.77511e-36
2.77518e-36
2.77522e-36
2.77525e-36
2.77526e-36
2.77528e-36
2.77529e-36
2.77529e-36
2.7753e-36
2.77531e-36
2.77532e-36
2.77532e-36
2.77533e-36
2.77534e-36
2.77535e-36
2.77536e-36
2.77537e-36
2.77538e-36
2.7754e-36
2.77541e-36
2.77543e-36
2.77544e-36
2.77546e-36
2.77548e-36
2.7755e-36
2.77552e-36
2.77555e-36
2.77557e-36
2.7756e-36
2.77563e-36
2.77566e-36
2.77569e-36
2.77572e-36
2.77576e-36
2.77579e-36
2.77583e-36
2.77587e-36
2.77592e-36
2.77596e-36
2.77601e-36
2.77606e-36
2.77611e-36
2.77616e-36
2.77622e-36
2.77628e-36
2.77634e-36
2.7764e-36
2.77647e-36
2.77654e-36
2.77661e-36
2.77668e-36
2.77676e-36
2.77684e-36
2.77692e-36
2.777e-36
2.77709e-36
2.77718e-36
2.77727e-36
2.77737e-36
2.77747e-36
2.77757e-36
2.77768e-36
2.77779e-36
2.7779e-36
2.77801e-36
2.77813e-36
2.77825e-36
2.77837e-36
2.7785e-36
2.77863e-36
2.77876e-36
2.77884e-36
2.77855e-36
2.77608e-36
2.77075e-36
2.77404e-36
2.77687e-36
2.77879e-36
2.77975e-36
2.77995e-36
2.77962e-36
2.77892e-36
2.77798e-36
2.7769e-36
2.77577e-36
2.77466e-36
2.77365e-36
2.7728e-36
2.77218e-36
2.77179e-36
2.77165e-36
2.77176e-36
2.77209e-36
2.77261e-36
2.7733e-36
2.77412e-36
2.77503e-36
2.776e-36
2.77699e-36
2.77799e-36
2.77895e-36
2.77987e-36
2.78073e-36
2.78152e-36
2.78223e-36
2.78286e-36
2.78341e-36
2.78389e-36
2.78431e-36
2.78467e-36
2.78498e-36
2.78524e-36
2.78547e-36
2.78566e-36
2.78583e-36
2.78598e-36
2.78612e-36
2.78623e-36
2.78633e-36
2.78642e-36
2.78649e-36
2.78655e-36
2.7866e-36
2.78663e-36
2.78665e-36
2.78666e-36
2.78665e-36
2.78662e-36
2.78658e-36
2.78652e-36
2.78644e-36
2.78634e-36
2.78623e-36
2.78609e-36
2.78593e-36
2.78575e-36
2.78554e-36
2.78531e-36
2.78505e-36
2.78477e-36
2.78446e-36
2.78412e-36
2.78376e-36
2.78336e-36
2.78293e-36
2.78247e-36
2.78198e-36
2.78145e-36
2.78089e-36
2.78029e-36
2.77965e-36
2.77898e-36
2.77827e-36
2.77752e-36
2.77673e-36
2.7759e-36
2.77502e-36
2.77411e-36
2.77315e-36
2.77214e-36
2.77109e-36
2.77e-36
2.76886e-36
2.76768e-36
2.76645e-36
2.76517e-36
2.76384e-36
2.76248e-36
2.76107e-36
2.75969e-36
2.75855e-36
2.75881e-36
2.76574e-36
2.80396e-36
2.98646e-36
3.82767e-36
7.64827e-36
2.48283e-35
1.0144e-34
4.40611e-34
1.93316e-33
8.47167e-33
3.70391e-32
1.61796e-31
7.07721e-31
3.10778e-30
1.37351e-29
6.12312e-29
2.75786e-28
1.25585e-27
5.77993e-27
2.68509e-26
1.25639e-25
5.90577e-25
2.78088e-24
1.3081e-23
6.13205e-23
2.85948e-22
1.3252e-21
6.10374e-21
2.83353e-20
1.29601e-19
5.86218e-19
2.63027e-18
1.17148e-17
5.18152e-17
2.27714e-16
9.9487e-16
4.32349e-15
1.86999e-14
8.05402e-14
3.45599e-13
1.47812e-12
6.30375e-12
2.68154e-11
1.13813e-10
4.82084e-10
2.03828e-09
8.60341e-09
3.62501e-08
1.52341e-07
6.36784e-07
2.62866e-06
1.05926e-05
4.04208e-05
0.000136364
0.000347302
0.000513808
0.000490542
0.000387032
0.000278975
0.000196033
0.000137202
9.57943e-05
6.7336e-05
4.87378e-05
3.44448e-05
2.66462e-05
2.15989e-05
1.82343e-05
1.59051e-05
1.42225e-05
1.29541e-05
1.19599e-05
1.11539e-05
1.04821e-05
9.90955e-06
9.41299e-06
8.97627e-06
8.58787e-06
8.23935e-06
7.92427e-06
7.63767e-06
7.37561e-06
7.13488e-06
6.91288e-06
6.70745e-06
6.51676e-06
6.3393e-06
6.1738e-06
6.01925e-06
5.87912e-06
5.74906e-06
5.62577e-06
5.50874e-06
5.3975e-06
5.29162e-06
5.19072e-06
5.09446e-06
5.00253e-06
4.91463e-06
4.83051e-06
4.74994e-06
4.67269e-06
4.59856e-06
4.52739e-06
4.45898e-06
4.39319e-06
4.32987e-06
4.26889e-06
4.21012e-06
4.15345e-06
4.09877e-06
4.04597e-06
3.99497e-06
3.94567e-06
3.89799e-06
3.85186e-06
3.8072e-06
3.76394e-06
3.72201e-06
3.68136e-06
3.64193e-06
3.60366e-06
3.56649e-06
3.53038e-06
3.49528e-06
3.46114e-06
3.42792e-06
3.39557e-06
3.36406e-06
3.33333e-06
3.30336e-06
3.2741e-06
3.24552e-06
3.21757e-06
3.19023e-06
3.16346e-06
3.13722e-06
3.11149e-06
3.08622e-06
3.06138e-06
3.03694e-06
3.01286e-06
2.98912e-06
2.96568e-06
2.94251e-06
2.91956e-06
2.89681e-06
2.87419e-06
2.85165e-06
2.82911e-06
2.80642e-06
2.78332e-06
2.75939e-06
2.73568e-06
2.71381e-06
2.69195e-06
2.67006e-06
2.64809e-06
2.62601e-06
2.60378e-06
2.58138e-06
2.55879e-06
2.53598e-06
2.51294e-06
2.48965e-06
2.46612e-06
2.44233e-06
2.41829e-06
2.394e-06
2.36947e-06
2.34471e-06
2.31973e-06
2.29455e-06
2.26919e-06
2.24368e-06
2.21803e-06
2.19228e-06
2.16647e-06
2.14062e-06
2.11477e-06
2.08897e-06
2.06327e-06
2.0377e-06
2.01231e-06
1.98716e-06
1.9623e-06
1.93778e-06
1.91365e-06
1.88998e-06
1.86681e-06
1.84421e-06
1.82222e-06
1.8009e-06
1.7803e-06
1.76046e-06
1.74145e-06
1.7233e-06
1.70605e-06
1.68974e-06
1.6744e-06
1.66006e-06
1.64674e-06
1.63446e-06
1.62324e-06
1.61307e-06
1.60396e-06
1.59591e-06
1.5889e-06
1.58292e-06
1.57794e-06
1.57394e-06
1.57087e-06
1.56871e-06
1.5674e-06
1.56691e-06
1.56717e-06
1.56814e-06
1.56976e-06
1.57197e-06
1.5747e-06
1.57791e-06
1.58154e-06
1.58552e-06
1.58979e-06
1.59432e-06
1.59903e-06
1.60389e-06
1.60885e-06
1.61387e-06
1.61892e-06
1.62395e-06
1.62894e-06
1.63387e-06
1.63872e-06
1.64346e-06
1.64809e-06
1.65259e-06
1.65696e-06
1.66119e-06
1.66528e-06
1.66923e-06
1.67304e-06
1.67672e-06
1.68026e-06
1.68366e-06
1.68695e-06
1.69011e-06
1.69315e-06
1.69608e-06
1.69891e-06
1.70163e-06
1.70425e-06
1.70678e-06
1.70921e-06
1.71155e-06
1.7138e-06
1.71597e-06
1.71805e-06
1.72004e-06
1.72196e-06
1.72379e-06
1.72554e-06
1.7272e-06
1.72879e-06
1.7303e-06
1.73174e-06
1.73309e-06
1.73437e-06
1.73558e-06
1.73671e-06
1.73777e-06
1.73875e-06
1.73965e-06
1.74048e-06
1.74121e-06
1.74181e-06
1.7422e-06
)
;

boundaryField
{
    boundary
    {
        type            empty;
    }
    inlet
    {
        type            fixedValue;
        value           uniform 0;
    }
    outlet
    {
        type            zeroGradient;
    }
}


// ************************************************************************* //
