/*--------------------------------*- C++ -*----------------------------------*\
  =========                 |
  \\      /  F ield         | OpenFOAM: The Open Source CFD Toolbox
   \\    /   O peration     | Website:  https://openfoam.org
    \\  /    A nd           | Version:  7
     \\/     M anipulation  |
\*---------------------------------------------------------------------------*/
FoamFile
{
    version     2.0;
    format      ascii;
    class       volScalarField;
    location    "0.00036";
    object      N2;
}
// * * * * * * * * * * * * * * * * * * * * * * * * * * * * * * * * * * * * * //

dimensions      [0 0 0 0 0 0 0];

internalField   nonuniform List<scalar> 
500
(
0.745219
0.745219
0.745219
0.745219
0.745219
0.745219
0.745219
0.745219
0.745219
0.745219
0.745219
0.745219
0.745219
0.745219
0.745219
0.745219
0.745219
0.745219
0.745219
0.745219
0.745219
0.745219
0.745219
0.745219
0.74522
0.74522
0.74522
0.74522
0.74522
0.74522
0.74522
0.74522
0.74522
0.74522
0.74522
0.74522
0.74522
0.74522
0.74522
0.74522
0.74522
0.74522
0.74522
0.74522
0.74522
0.74522
0.74522
0.74522
0.74522
0.74522
0.74522
0.74522
0.74522
0.74522
0.74522
0.74522
0.74522
0.74522
0.74522
0.74522
0.74522
0.74522
0.74522
0.74522
0.74522
0.74522
0.74522
0.74522
0.74522
0.74522
0.74522
0.74522
0.74522
0.74522
0.74522
0.74522
0.74522
0.74522
0.74522
0.74522
0.74522
0.74522
0.74522
0.74522
0.74522
0.74522
0.74522
0.74522
0.74522
0.74522
0.74522
0.74522
0.74522
0.74522
0.74522
0.74522
0.74522
0.74522
0.74522
0.74522
0.74522
0.74522
0.74522
0.74522
0.74522
0.74522
0.74522
0.74522
0.74522
0.74522
0.74522
0.74522
0.74522
0.74522
0.74522
0.74522
0.74522
0.74522
0.74522
0.74522
0.74522
0.74522
0.74522
0.74522
0.74522
0.74522
0.74522
0.74522
0.74522
0.74522
0.74522
0.74522
0.74522
0.74522
0.74522
0.74522
0.74522
0.74522
0.74522
0.74522
0.74522
0.74522
0.74522
0.74522
0.74522
0.74522
0.74522
0.74522
0.74522
0.74522
0.74522
0.74522
0.74522
0.74522
0.74522
0.74522
0.74522
0.74522
0.74522
0.74522
0.74522
0.74522
0.74522
0.74522
0.74522
0.74522
0.74522
0.74522
0.74522
0.74522
0.74522
0.74522
0.74522
0.74522
0.74522
0.74522
0.74522
0.74522
0.74522
0.74522
0.74522
0.74522
0.74522
0.74522
0.74522
0.74522
0.74522
0.74522
0.74522
0.74522
0.74522
0.74522
0.74522
0.74522
0.74522
0.74522
0.74522
0.74522
0.74522
0.74522
0.74522
0.74522
0.74522
0.74522
0.74522
0.74522
0.74522
0.74522
0.74522
0.74522
0.74522
0.74522
0.74522
0.74522
0.74522
0.74522
0.74522
0.74522
0.74522
0.74522
0.74522
0.74522
0.74522
0.74522
0.74522
0.74522
0.74522
0.74522
0.74522
0.74522
0.74522
0.74522
0.74522
0.74522
0.74522
0.74522
0.74522
0.74522
0.74522
0.74522
0.74522
0.74522
0.74522
0.74522
0.74522
0.74522
0.74522
0.74522
0.74522
0.74522
0.74522
0.74522
0.74522
0.74522
0.74522
0.74522
0.74522
0.74522
0.74522
0.74522
0.74522
0.74522
0.74522
0.74522
0.74522
0.74522
0.74522
0.74522
0.745221
0.745222
0.745225
0.745232
0.745245
0.745271
0.745321
0.745409
0.745534
0.745627
0.745531
0.745223
0.744775
0.744213
0.743742
0.743616
0.743837
0.744173
0.744345
0.744874
0.745049
0.745171
0.745246
0.745292
0.745319
0.745333
0.745341
0.745344
0.745344
0.745342
0.74534
0.745337
0.745334
0.745331
0.745327
0.745324
0.745321
0.745318
0.745315
0.745312
0.74531
0.745307
0.745305
0.745303
0.745301
0.745299
0.745297
0.745295
0.745293
0.745291
0.745289
0.745288
0.745286
0.745285
0.745283
0.745282
0.745281
0.745279
0.745278
0.745277
0.745275
0.745274
0.745273
0.745272
0.745271
0.745269
0.745268
0.745267
0.745265
0.745264
0.745262
0.745261
0.745259
0.745257
0.745255
0.745254
0.745251
0.745249
0.745247
0.745245
0.745242
0.745239
0.745236
0.745233
0.74523
0.745227
0.745224
0.74522
0.745216
0.745213
0.745209
0.745205
0.7452
0.745196
0.745192
0.745188
0.745183
0.745179
0.745175
0.74517
0.745166
0.745162
0.745158
0.745154
0.745151
0.745148
0.745145
0.745145
0.745145
0.745144
0.745144
0.745143
0.745143
0.745143
0.745143
0.745143
0.745144
0.745145
0.745147
0.74515
0.745154
0.745159
0.745165
0.745172
0.745181
0.74519
0.745201
0.745213
0.745226
0.74524
0.745255
0.745271
0.745288
0.745305
0.745324
0.745343
0.745363
0.745383
0.745403
0.745424
0.745444
0.745465
0.745485
0.745505
0.745524
0.745542
0.74556
0.745576
0.745592
0.745605
0.745617
0.745628
0.745637
0.745644
0.745648
0.745651
0.745652
0.74565
0.745646
0.74564
0.745632
0.745621
0.745608
0.745594
0.745577
0.745559
0.745538
0.745517
0.745493
0.745469
0.745443
0.745417
0.74539
0.745362
0.745334
0.745306
0.745279
0.745251
0.745224
0.745197
0.745172
0.745147
0.745124
0.745101
0.74508
0.745061
0.745043
0.745026
0.745012
0.744999
0.744987
0.744978
0.744969
0.744963
0.744958
0.744955
0.744953
0.744953
0.744953
0.744956
0.744959
0.744963
0.744968
0.744974
0.744981
0.744988
0.744996
0.745005
0.745013
0.745022
0.745032
0.745041
0.74505
0.74506
0.745069
0.745078
0.745087
0.745095
0.745104
0.745112
0.74512
0.745127
0.745134
0.745141
0.745147
0.745153
0.745158
0.745163
0.745167
0.745171
0.745174
0.745175
)
;

boundaryField
{
    boundary
    {
        type            empty;
    }
    inlet
    {
        type            fixedValue;
        value           uniform 0.74522;
    }
    outlet
    {
        type            zeroGradient;
    }
}


// ************************************************************************* //
