/*--------------------------------*- C++ -*----------------------------------*\
  =========                 |
  \\      /  F ield         | OpenFOAM: The Open Source CFD Toolbox
   \\    /   O peration     | Website:  https://openfoam.org
    \\  /    A nd           | Version:  7
     \\/     M anipulation  |
\*---------------------------------------------------------------------------*/
FoamFile
{
    version     2.0;
    format      ascii;
    class       surfaceScalarField;
    location    "0.00036";
    object      phi;
}
// * * * * * * * * * * * * * * * * * * * * * * * * * * * * * * * * * * * * * //

dimensions      [1 0 -1 0 0 0 0];

internalField   nonuniform List<scalar> 
499
(
6.93214e-06
6.93185e-06
6.93155e-06
6.93123e-06
6.93089e-06
6.93054e-06
6.93016e-06
6.92975e-06
6.9293e-06
6.92879e-06
6.92821e-06
6.92756e-06
6.9268e-06
6.92594e-06
6.92495e-06
6.92383e-06
6.92256e-06
6.92115e-06
6.9196e-06
6.91792e-06
6.91612e-06
6.91422e-06
6.91226e-06
6.91024e-06
6.90822e-06
6.90622e-06
6.90427e-06
6.90239e-06
6.90062e-06
6.89897e-06
6.89746e-06
6.89608e-06
6.89485e-06
6.89376e-06
6.8928e-06
6.89197e-06
6.89125e-06
6.89062e-06
6.89008e-06
6.88962e-06
6.88921e-06
6.88885e-06
6.88852e-06
6.88823e-06
6.88796e-06
6.88771e-06
6.88748e-06
6.88725e-06
6.88703e-06
6.88681e-06
6.8866e-06
6.88639e-06
6.88618e-06
6.88598e-06
6.88577e-06
6.88556e-06
6.88536e-06
6.88515e-06
6.88494e-06
6.88474e-06
6.88453e-06
6.88433e-06
6.88412e-06
6.88391e-06
6.88371e-06
6.8835e-06
6.8833e-06
6.88309e-06
6.88288e-06
6.88267e-06
6.88247e-06
6.88226e-06
6.88205e-06
6.88185e-06
6.88164e-06
6.88143e-06
6.88122e-06
6.88101e-06
6.88081e-06
6.8806e-06
6.88039e-06
6.88018e-06
6.87997e-06
6.87976e-06
6.87955e-06
6.87934e-06
6.87913e-06
6.87892e-06
6.87871e-06
6.8785e-06
6.87829e-06
6.87808e-06
6.87787e-06
6.87766e-06
6.87745e-06
6.87724e-06
6.87702e-06
6.87681e-06
6.8766e-06
6.87639e-06
6.87617e-06
6.87596e-06
6.87575e-06
6.87554e-06
6.87532e-06
6.87511e-06
6.87489e-06
6.87468e-06
6.87446e-06
6.87425e-06
6.87403e-06
6.87382e-06
6.8736e-06
6.87339e-06
6.87317e-06
6.87295e-06
6.87274e-06
6.87252e-06
6.8723e-06
6.87209e-06
6.87187e-06
6.87165e-06
6.87143e-06
6.87121e-06
6.871e-06
6.87078e-06
6.87056e-06
6.87034e-06
6.87012e-06
6.8699e-06
6.86968e-06
6.86946e-06
6.86924e-06
6.86902e-06
6.8688e-06
6.86858e-06
6.86836e-06
6.86814e-06
6.86792e-06
6.8677e-06
6.86748e-06
6.86726e-06
6.86703e-06
6.86681e-06
6.86659e-06
6.86637e-06
6.86615e-06
6.86592e-06
6.8657e-06
6.86548e-06
6.86526e-06
6.86503e-06
6.86481e-06
6.86459e-06
6.86436e-06
6.86414e-06
6.86392e-06
6.86369e-06
6.86347e-06
6.86325e-06
6.86302e-06
6.8628e-06
6.86258e-06
6.86236e-06
6.86213e-06
6.86191e-06
6.86169e-06
6.86147e-06
6.86125e-06
6.86103e-06
6.86081e-06
6.86059e-06
6.86037e-06
6.86015e-06
6.85993e-06
6.85971e-06
6.85949e-06
6.85927e-06
6.85906e-06
6.85884e-06
6.85862e-06
6.85841e-06
6.85819e-06
6.85798e-06
6.85776e-06
6.85755e-06
6.85733e-06
6.85712e-06
6.85691e-06
6.8567e-06
6.85649e-06
6.85628e-06
6.85607e-06
6.85586e-06
6.85566e-06
6.85545e-06
6.85524e-06
6.85504e-06
6.85484e-06
6.85463e-06
6.85443e-06
6.85423e-06
6.85403e-06
6.85383e-06
6.85364e-06
6.85344e-06
6.85324e-06
6.85305e-06
6.85286e-06
6.85266e-06
6.85247e-06
6.85228e-06
6.85209e-06
6.85191e-06
6.85172e-06
6.85154e-06
6.85135e-06
6.85117e-06
6.85099e-06
6.85081e-06
6.85063e-06
6.85045e-06
6.85027e-06
6.8501e-06
6.84992e-06
6.84975e-06
6.84958e-06
6.84941e-06
6.84924e-06
6.84907e-06
6.8489e-06
6.84874e-06
6.84857e-06
6.84841e-06
6.84824e-06
6.84808e-06
6.84792e-06
6.84776e-06
6.8476e-06
6.84745e-06
6.84729e-06
6.84714e-06
6.84698e-06
6.84683e-06
6.84668e-06
6.84652e-06
6.84637e-06
6.84622e-06
6.84608e-06
6.84593e-06
6.84578e-06
6.84563e-06
6.84549e-06
6.84534e-06
6.8452e-06
6.84506e-06
6.84491e-06
6.84477e-06
6.84463e-06
6.84449e-06
6.84435e-06
6.84421e-06
6.84407e-06
6.84393e-06
6.84379e-06
6.84365e-06
6.84351e-06
6.84337e-06
6.84323e-06
6.84309e-06
6.84298e-06
6.84296e-06
6.84319e-06
6.8442e-06
6.8475e-06
6.85725e-06
6.88306e-06
6.93671e-06
7.00874e-06
7.07018e-06
7.11118e-06
7.13792e-06
7.15642e-06
7.16966e-06
7.17912e-06
7.18589e-06
7.19076e-06
7.19432e-06
7.19703e-06
7.19917e-06
7.20091e-06
7.20236e-06
7.20358e-06
7.20464e-06
7.20555e-06
7.20635e-06
7.20707e-06
7.2077e-06
7.20828e-06
7.20879e-06
7.20927e-06
7.2097e-06
7.21009e-06
7.21045e-06
7.21079e-06
7.2111e-06
7.21139e-06
7.21166e-06
7.21191e-06
7.21214e-06
7.21236e-06
7.21257e-06
7.21275e-06
7.21292e-06
7.21309e-06
7.21324e-06
7.21339e-06
7.21353e-06
7.21366e-06
7.21379e-06
7.21391e-06
7.21403e-06
7.21414e-06
7.21424e-06
7.21434e-06
7.21444e-06
7.21453e-06
7.21461e-06
7.2147e-06
7.21477e-06
7.21484e-06
7.21491e-06
7.21497e-06
7.21503e-06
7.21508e-06
7.21513e-06
7.21517e-06
7.2152e-06
7.21524e-06
7.21526e-06
7.21528e-06
7.2153e-06
7.21531e-06
7.21531e-06
7.21531e-06
7.21531e-06
7.2153e-06
7.21528e-06
7.21526e-06
7.21524e-06
7.21521e-06
7.21518e-06
7.21515e-06
7.21511e-06
7.21507e-06
7.21504e-06
7.215e-06
7.21496e-06
7.21493e-06
7.2149e-06
7.21488e-06
7.21487e-06
7.21486e-06
7.21486e-06
7.21487e-06
7.2149e-06
7.21494e-06
7.215e-06
7.21508e-06
7.21518e-06
7.21531e-06
7.21546e-06
7.21564e-06
7.21586e-06
7.21611e-06
7.21649e-06
7.21711e-06
7.2175e-06
7.21793e-06
7.2184e-06
7.21891e-06
7.21945e-06
7.22002e-06
7.22061e-06
7.22122e-06
7.22185e-06
7.22249e-06
7.22314e-06
7.22379e-06
7.22444e-06
7.22509e-06
7.22571e-06
7.2263e-06
7.22686e-06
7.22736e-06
7.2278e-06
7.22815e-06
7.22841e-06
7.22856e-06
7.22857e-06
7.22843e-06
7.22811e-06
7.22761e-06
7.22689e-06
7.22593e-06
7.22472e-06
7.22322e-06
7.22144e-06
7.21933e-06
7.21689e-06
7.21409e-06
7.21092e-06
7.20737e-06
7.20342e-06
7.19907e-06
7.19431e-06
7.18914e-06
7.18355e-06
7.17755e-06
7.17115e-06
7.16435e-06
7.15717e-06
7.14963e-06
7.14175e-06
7.13354e-06
7.12504e-06
7.11628e-06
7.10729e-06
7.0981e-06
7.08875e-06
7.07929e-06
7.06974e-06
7.06015e-06
7.05056e-06
7.04102e-06
7.03156e-06
7.02222e-06
7.01305e-06
7.00407e-06
6.99534e-06
6.98687e-06
6.97871e-06
6.97087e-06
6.96339e-06
6.95629e-06
6.94959e-06
6.9433e-06
6.93744e-06
6.93202e-06
6.92704e-06
6.9225e-06
6.91841e-06
6.91477e-06
6.91155e-06
6.90877e-06
6.9064e-06
6.90443e-06
6.90284e-06
6.90163e-06
6.90076e-06
6.90021e-06
6.89998e-06
6.90002e-06
6.90033e-06
6.90087e-06
6.90162e-06
6.90256e-06
6.90367e-06
6.90492e-06
6.9063e-06
6.90778e-06
6.90933e-06
6.91095e-06
6.91262e-06
6.91432e-06
6.91603e-06
6.91774e-06
6.91943e-06
6.92111e-06
6.92275e-06
6.92435e-06
6.92591e-06
6.92741e-06
6.92885e-06
6.93022e-06
6.93153e-06
6.93278e-06
6.93395e-06
6.93505e-06
6.93609e-06
6.93705e-06
6.93795e-06
6.93878e-06
6.93955e-06
6.94027e-06
6.94092e-06
6.94153e-06
6.94209e-06
6.94262e-06
)
;

boundaryField
{
    boundary
    {
        type            empty;
        value           nonuniform 0();
    }
    inlet
    {
        type            calculated;
        value           uniform -6.93243e-06;
    }
    outlet
    {
        type            calculated;
        value           uniform 6.94312e-06;
    }
}


// ************************************************************************* //
