/*--------------------------------*- C++ -*----------------------------------*\
  =========                 |
  \\      /  F ield         | OpenFOAM: The Open Source CFD Toolbox
   \\    /   O peration     | Website:  https://openfoam.org
    \\  /    A nd           | Version:  7
     \\/     M anipulation  |
\*---------------------------------------------------------------------------*/
FoamFile
{
    version     2.0;
    format      ascii;
    class       volScalarField;
    location    "0.00036";
    object      Qdot;
}
// * * * * * * * * * * * * * * * * * * * * * * * * * * * * * * * * * * * * * //

dimensions      [1 -1 -3 0 0 0 0];

internalField   nonuniform List<scalar> 
500
(
-2.45438e-27
-1.86671e-27
-1.74199e-27
-1.71735e-27
-1.71463e-27
-1.71708e-27
-1.72121e-27
-1.72646e-27
-1.7329e-27
-1.7408e-27
-1.75048e-27
-1.7623e-27
-1.77663e-27
-1.79384e-27
-1.81429e-27
-1.83827e-27
-1.86603e-27
-1.8977e-27
-1.9333e-27
-1.97272e-27
-2.01567e-27
-2.06172e-27
-2.11028e-27
-2.16063e-27
-2.21192e-27
-2.26326e-27
-2.31374e-27
-2.36246e-27
-2.40863e-27
-2.45158e-27
-2.49079e-27
-2.52595e-27
-2.55689e-27
-2.58365e-27
-2.60637e-27
-2.62533e-27
-2.64089e-27
-2.65344e-27
-2.66341e-27
-2.6712e-27
-2.6772e-27
-2.68174e-27
-2.68513e-27
-2.68763e-27
-2.68944e-27
-2.69074e-27
-2.69166e-27
-2.6923e-27
-2.69275e-27
-2.69305e-27
-2.69325e-27
-2.69339e-27
-2.69348e-27
-2.69355e-27
-2.69359e-27
-2.69362e-27
-2.69365e-27
-2.69367e-27
-2.69368e-27
-2.6937e-27
-2.69371e-27
-2.69373e-27
-2.69374e-27
-2.69376e-27
-2.69377e-27
-2.69379e-27
-2.69381e-27
-2.69383e-27
-2.69385e-27
-2.69387e-27
-2.69389e-27
-2.69392e-27
-2.69394e-27
-2.69397e-27
-2.694e-27
-2.69403e-27
-2.69406e-27
-2.69409e-27
-2.69412e-27
-2.69416e-27
-2.69419e-27
-2.69423e-27
-2.69427e-27
-2.69432e-27
-2.69436e-27
-2.69441e-27
-2.69445e-27
-2.6945e-27
-2.69456e-27
-2.69461e-27
-2.69467e-27
-2.69473e-27
-2.69479e-27
-2.69485e-27
-2.69492e-27
-2.69499e-27
-2.69506e-27
-2.69513e-27
-2.69521e-27
-2.69529e-27
-2.69537e-27
-2.69545e-27
-2.69554e-27
-2.69563e-27
-2.69572e-27
-2.69582e-27
-2.69592e-27
-2.69602e-27
-2.69612e-27
-2.69623e-27
-2.69634e-27
-2.69646e-27
-2.69657e-27
-2.69669e-27
-2.69682e-27
-2.69694e-27
-2.69707e-27
-2.6972e-27
-2.69734e-27
-2.69748e-27
-2.69762e-27
-2.69777e-27
-2.69791e-27
-2.69806e-27
-2.69822e-27
-2.69837e-27
-2.69852e-27
-2.69868e-27
-2.69884e-27
-2.699e-27
-2.69916e-27
-2.69933e-27
-2.69949e-27
-2.69966e-27
-2.69982e-27
-2.69999e-27
-2.70016e-27
-2.70032e-27
-2.70049e-27
-2.70065e-27
-2.70082e-27
-2.70099e-27
-2.70117e-27
-2.70134e-27
-2.70153e-27
-2.70171e-27
-2.70191e-27
-2.70211e-27
-2.70231e-27
-2.70252e-27
-2.70272e-27
-2.70294e-27
-2.70315e-27
-2.70336e-27
-2.70357e-27
-2.70378e-27
-2.70398e-27
-2.70418e-27
-2.70437e-27
-2.70456e-27
-2.70474e-27
-2.70491e-27
-2.70507e-27
-2.70523e-27
-2.70538e-27
-2.70552e-27
-2.70565e-27
-2.70578e-27
-2.70589e-27
-2.706e-27
-2.70609e-27
-2.70617e-27
-2.70624e-27
-2.7063e-27
-2.70635e-27
-2.70639e-27
-2.7064e-27
-2.70641e-27
-2.7064e-27
-2.70637e-27
-2.70633e-27
-2.70626e-27
-2.70618e-27
-2.70608e-27
-2.70596e-27
-2.70582e-27
-2.70565e-27
-2.70546e-27
-2.70525e-27
-2.70501e-27
-2.70475e-27
-2.70446e-27
-2.70414e-27
-2.70379e-27
-2.70342e-27
-2.70301e-27
-2.70257e-27
-2.7021e-27
-2.7016e-27
-2.70106e-27
-2.70049e-27
-2.69988e-27
-2.69923e-27
-2.69855e-27
-2.69782e-27
-2.69706e-27
-2.69626e-27
-2.69542e-27
-2.69453e-27
-2.69361e-27
-2.69264e-27
-2.69163e-27
-2.69057e-27
-2.68947e-27
-2.68833e-27
-2.68713e-27
-2.68586e-27
-2.68441e-27
-2.68226e-27
-2.67691e-27
-2.65652e-27
-2.56545e-27
-2.1453e-27
-2.08945e-28
8.63692e-27
4.86215e-26
2.27366e-25
1.01745e-24
4.47027e-24
1.93873e-23
8.3091e-23
3.51989e-22
1.47382e-21
6.09927e-21
2.49472e-20
1.00849e-19
4.02934e-19
1.59123e-18
6.2117e-18
2.39738e-17
9.1498e-17
3.45446e-16
1.29075e-15
4.7761e-15
1.75162e-14
6.37426e-14
2.30515e-13
8.30046e-13
2.98372e-12
1.0743e-11
3.8912e-11
1.42269e-10
5.27624e-10
1.99424e-09
7.71072e-09
3.05695e-08
1.24328e-07
5.18054e-07
2.20572e-06
9.56355e-06
4.20782e-05
0.000187279
0.000840969
0.00380302
0.0172997
0.0791323
0.364145
1.68819
7.90538
38.0748
200.197
1228.75
9086.67
70223.5
621706
5.86835e+06
5.55661e+07
4.70325e+08
2.70837e+09
8.06977e+09
1.25823e+10
1.3816e+10
1.39167e+10
1.39062e+10
1.33853e+10
1.20595e+10
1.01785e+10
8.23181e+09
6.69719e+09
5.5654e+09
4.7011e+09
4.03988e+09
3.52553e+09
3.1174e+09
2.78711e+09
2.51486e+09
2.28686e+09
2.09321e+09
1.92678e+09
1.78225e+09
1.65563e+09
1.54386e+09
1.4445e+09
1.35567e+09
1.27583e+09
1.20371e+09
1.13831e+09
1.07876e+09
1.02435e+09
9.7448e+08
9.28658e+08
8.86528e+08
8.48716e+08
8.14194e+08
7.8181e+08
7.5147e+08
7.2299e+08
6.962e+08
6.70968e+08
6.47156e+08
6.2466e+08
6.03381e+08
5.83226e+08
5.64115e+08
5.45972e+08
5.28733e+08
5.12333e+08
4.96717e+08
4.81833e+08
4.67635e+08
4.5408e+08
4.41127e+08
4.28739e+08
4.16883e+08
4.05529e+08
3.94646e+08
3.84208e+08
3.7419e+08
3.6457e+08
3.55325e+08
3.46436e+08
3.37884e+08
3.29652e+08
3.21723e+08
3.14082e+08
3.06716e+08
2.9961e+08
2.92751e+08
2.86129e+08
2.79732e+08
2.7355e+08
2.67573e+08
2.61791e+08
2.56196e+08
2.50779e+08
2.45532e+08
2.40449e+08
2.35522e+08
2.30744e+08
2.2611e+08
2.21612e+08
2.17245e+08
2.13004e+08
2.08884e+08
2.04879e+08
2.00985e+08
1.97198e+08
1.93513e+08
1.89926e+08
1.86435e+08
1.83035e+08
1.79724e+08
1.76501e+08
1.73368e+08
1.70331e+08
1.67492e+08
1.6471e+08
1.61511e+08
1.58563e+08
1.55741e+08
1.53013e+08
1.50356e+08
1.47758e+08
1.45213e+08
1.42714e+08
1.40259e+08
1.37843e+08
1.35464e+08
1.3312e+08
1.30808e+08
1.28526e+08
1.26272e+08
1.24044e+08
1.21839e+08
1.19657e+08
1.17495e+08
1.15352e+08
1.13226e+08
1.11114e+08
1.09016e+08
1.06931e+08
1.04856e+08
1.02791e+08
1.00735e+08
9.86867e+07
9.66457e+07
9.46113e+07
9.25827e+07
9.05604e+07
8.85437e+07
8.65328e+07
8.45278e+07
8.25291e+07
8.05371e+07
7.85522e+07
7.65752e+07
7.46065e+07
7.26484e+07
7.06999e+07
6.87628e+07
6.6838e+07
6.49267e+07
6.30297e+07
6.11483e+07
5.92835e+07
5.74364e+07
5.5608e+07
5.37994e+07
5.20116e+07
5.02456e+07
4.85024e+07
4.67831e+07
4.50886e+07
4.34199e+07
4.17779e+07
4.01637e+07
3.85781e+07
3.70221e+07
3.54966e+07
3.40026e+07
3.2541e+07
3.11127e+07
2.97184e+07
2.83591e+07
2.70354e+07
2.57481e+07
2.44978e+07
2.3285e+07
2.21102e+07
2.09737e+07
1.98758e+07
1.88165e+07
1.7796e+07
1.68141e+07
1.58705e+07
1.4965e+07
1.40971e+07
1.32662e+07
1.24716e+07
1.17127e+07
1.09886e+07
1.02985e+07
9.6414e+06
9.0163e+06
8.42221e+06
7.85809e+06
7.32288e+06
6.81551e+06
6.33492e+06
5.88006e+06
5.44987e+06
5.04336e+06
4.6595e+06
4.29732e+06
3.95587e+06
3.6341e+06
3.3314e+06
3.0467e+06
2.77918e+06
2.52806e+06
2.29256e+06
2.07193e+06
1.86545e+06
1.67244e+06
1.49186e+06
1.32363e+06
1.16675e+06
1.02058e+06
884445
757656
639471
529071
425524
327725
234324
143664
53822.9
-36565.6
-126977
-201471
)
;

boundaryField
{
    boundary
    {
        type            empty;
    }
    inlet
    {
        type            calculated;
        value           uniform 0;
    }
    outlet
    {
        type            calculated;
        value           uniform 0;
    }
}


// ************************************************************************* //
