/*--------------------------------*- C++ -*----------------------------------*\
  =========                 |
  \\      /  F ield         | OpenFOAM: The Open Source CFD Toolbox
   \\    /   O peration     | Website:  https://openfoam.org
    \\  /    A nd           | Version:  7
     \\/     M anipulation  |
\*---------------------------------------------------------------------------*/
FoamFile
{
    version     2.0;
    format      ascii;
    class       volVectorField;
    location    "0.00036";
    object      U;
}
// * * * * * * * * * * * * * * * * * * * * * * * * * * * * * * * * * * * * * //

dimensions      [0 1 -1 0 0 0 0];

internalField   nonuniform List<vector> 
500
(
(2.34892 0 0)
(2.34885 0 0)
(2.34878 0 0)
(2.34871 0 0)
(2.34865 0 0)
(2.34859 0 0)
(2.34854 0 0)
(2.34848 0 0)
(2.34844 0 0)
(2.34839 0 0)
(2.34835 0 0)
(2.34832 0 0)
(2.34829 0 0)
(2.34827 0 0)
(2.34825 0 0)
(2.34823 0 0)
(2.34822 0 0)
(2.3482 0 0)
(2.34818 0 0)
(2.34815 0 0)
(2.34812 0 0)
(2.34807 0 0)
(2.34802 0 0)
(2.34795 0 0)
(2.34788 0 0)
(2.34779 0 0)
(2.34769 0 0)
(2.34758 0 0)
(2.34747 0 0)
(2.34735 0 0)
(2.34723 0 0)
(2.34711 0 0)
(2.34698 0 0)
(2.34687 0 0)
(2.34675 0 0)
(2.34664 0 0)
(2.34653 0 0)
(2.34643 0 0)
(2.34634 0 0)
(2.34624 0 0)
(2.34616 0 0)
(2.34607 0 0)
(2.34599 0 0)
(2.34591 0 0)
(2.34584 0 0)
(2.34576 0 0)
(2.34569 0 0)
(2.34562 0 0)
(2.34555 0 0)
(2.34548 0 0)
(2.3454 0 0)
(2.34533 0 0)
(2.34526 0 0)
(2.34519 0 0)
(2.34512 0 0)
(2.34505 0 0)
(2.34498 0 0)
(2.34491 0 0)
(2.34484 0 0)
(2.34477 0 0)
(2.3447 0 0)
(2.34463 0 0)
(2.34456 0 0)
(2.34449 0 0)
(2.34442 0 0)
(2.34435 0 0)
(2.34428 0 0)
(2.34421 0 0)
(2.34414 0 0)
(2.34407 0 0)
(2.344 0 0)
(2.34393 0 0)
(2.34386 0 0)
(2.34379 0 0)
(2.34372 0 0)
(2.34365 0 0)
(2.34358 0 0)
(2.34351 0 0)
(2.34344 0 0)
(2.34337 0 0)
(2.3433 0 0)
(2.34323 0 0)
(2.34316 0 0)
(2.34309 0 0)
(2.34301 0 0)
(2.34294 0 0)
(2.34287 0 0)
(2.3428 0 0)
(2.34273 0 0)
(2.34266 0 0)
(2.34259 0 0)
(2.34252 0 0)
(2.34245 0 0)
(2.34237 0 0)
(2.3423 0 0)
(2.34223 0 0)
(2.34216 0 0)
(2.34209 0 0)
(2.34202 0 0)
(2.34195 0 0)
(2.34187 0 0)
(2.3418 0 0)
(2.34173 0 0)
(2.34166 0 0)
(2.34159 0 0)
(2.34151 0 0)
(2.34144 0 0)
(2.34137 0 0)
(2.3413 0 0)
(2.34123 0 0)
(2.34115 0 0)
(2.34108 0 0)
(2.34101 0 0)
(2.34094 0 0)
(2.34086 0 0)
(2.34079 0 0)
(2.34072 0 0)
(2.34065 0 0)
(2.34057 0 0)
(2.3405 0 0)
(2.34043 0 0)
(2.34036 0 0)
(2.34028 0 0)
(2.34021 0 0)
(2.34014 0 0)
(2.34006 0 0)
(2.33999 0 0)
(2.33992 0 0)
(2.33985 0 0)
(2.33977 0 0)
(2.3397 0 0)
(2.33962 0 0)
(2.33955 0 0)
(2.33948 0 0)
(2.3394 0 0)
(2.33933 0 0)
(2.33926 0 0)
(2.33918 0 0)
(2.33911 0 0)
(2.33904 0 0)
(2.33896 0 0)
(2.33889 0 0)
(2.33882 0 0)
(2.33874 0 0)
(2.33867 0 0)
(2.33859 0 0)
(2.33852 0 0)
(2.33845 0 0)
(2.33837 0 0)
(2.3383 0 0)
(2.33822 0 0)
(2.33815 0 0)
(2.33808 0 0)
(2.338 0 0)
(2.33793 0 0)
(2.33785 0 0)
(2.33778 0 0)
(2.33771 0 0)
(2.33763 0 0)
(2.33756 0 0)
(2.33748 0 0)
(2.33741 0 0)
(2.33733 0 0)
(2.33726 0 0)
(2.33719 0 0)
(2.33711 0 0)
(2.33704 0 0)
(2.33696 0 0)
(2.33689 0 0)
(2.33681 0 0)
(2.33674 0 0)
(2.33667 0 0)
(2.33659 0 0)
(2.33652 0 0)
(2.33644 0 0)
(2.33637 0 0)
(2.33629 0 0)
(2.33622 0 0)
(2.33615 0 0)
(2.33607 0 0)
(2.336 0 0)
(2.33592 0 0)
(2.33585 0 0)
(2.33577 0 0)
(2.3357 0 0)
(2.33563 0 0)
(2.33555 0 0)
(2.33548 0 0)
(2.3354 0 0)
(2.33533 0 0)
(2.33525 0 0)
(2.33518 0 0)
(2.33511 0 0)
(2.33503 0 0)
(2.33496 0 0)
(2.33488 0 0)
(2.33481 0 0)
(2.33473 0 0)
(2.33466 0 0)
(2.33458 0 0)
(2.33451 0 0)
(2.33444 0 0)
(2.33436 0 0)
(2.33429 0 0)
(2.33421 0 0)
(2.33414 0 0)
(2.33406 0 0)
(2.33399 0 0)
(2.33391 0 0)
(2.33384 0 0)
(2.33376 0 0)
(2.33369 0 0)
(2.33362 0 0)
(2.33354 0 0)
(2.33347 0 0)
(2.33339 0 0)
(2.33332 0 0)
(2.33324 0 0)
(2.33317 0 0)
(2.33309 0 0)
(2.33302 0 0)
(2.33294 0 0)
(2.33287 0 0)
(2.33279 0 0)
(2.33272 0 0)
(2.33264 0 0)
(2.33257 0 0)
(2.33249 0 0)
(2.33242 0 0)
(2.33234 0 0)
(2.33226 0 0)
(2.33219 0 0)
(2.33211 0 0)
(2.33204 0 0)
(2.33196 0 0)
(2.33189 0 0)
(2.33181 0 0)
(2.33174 0 0)
(2.33166 0 0)
(2.33159 0 0)
(2.33151 0 0)
(2.33144 0 0)
(2.33136 0 0)
(2.33129 0 0)
(2.33121 0 0)
(2.33114 0 0)
(2.33106 0 0)
(2.33099 0 0)
(2.33091 0 0)
(2.33084 0 0)
(2.33076 0 0)
(2.33069 0 0)
(2.33061 0 0)
(2.33054 0 0)
(2.33046 0 0)
(2.33039 0 0)
(2.33032 0 0)
(2.33024 0 0)
(2.33017 0 0)
(2.33009 0 0)
(2.33002 0 0)
(2.32995 0 0)
(2.32987 0 0)
(2.3298 0 0)
(2.32972 0 0)
(2.32965 0 0)
(2.32957 0 0)
(2.32949 0 0)
(2.32942 0 0)
(2.32937 0 0)
(2.32943 0 0)
(2.32979 0 0)
(2.33123 0 0)
(2.3359 0 0)
(2.34958 0 0)
(2.38583 0 0)
(2.47413 0 0)
(2.67865 0 0)
(3.11668 0 0)
(3.9584 0 0)
(5.11508 0 0)
(6.35426 0 0)
(7.50963 0 0)
(8.53 0 0)
(9.40388 0 0)
(10.1288 0 0)
(10.7267 0 0)
(11.2235 0 0)
(11.6263 0 0)
(11.9469 0 0)
(12.2108 0 0)
(12.4377 0 0)
(12.6369 0 0)
(12.8135 0 0)
(12.9714 0 0)
(13.1138 0 0)
(13.2432 0 0)
(13.3616 0 0)
(13.4705 0 0)
(13.5711 0 0)
(13.6646 0 0)
(13.7516 0 0)
(13.833 0 0)
(13.9093 0 0)
(13.9811 0 0)
(14.0487 0 0)
(14.1126 0 0)
(14.173 0 0)
(14.2304 0 0)
(14.2849 0 0)
(14.3366 0 0)
(14.3858 0 0)
(14.4315 0 0)
(14.4742 0 0)
(14.5155 0 0)
(14.5553 0 0)
(14.5938 0 0)
(14.6309 0 0)
(14.6668 0 0)
(14.7015 0 0)
(14.7351 0 0)
(14.7677 0 0)
(14.7993 0 0)
(14.8299 0 0)
(14.8596 0 0)
(14.8885 0 0)
(14.9166 0 0)
(14.9439 0 0)
(14.9705 0 0)
(14.9963 0 0)
(15.0215 0 0)
(15.0461 0 0)
(15.07 0 0)
(15.0934 0 0)
(15.1161 0 0)
(15.1384 0 0)
(15.1601 0 0)
(15.1813 0 0)
(15.2021 0 0)
(15.2224 0 0)
(15.2422 0 0)
(15.2616 0 0)
(15.2806 0 0)
(15.2992 0 0)
(15.3175 0 0)
(15.3353 0 0)
(15.3528 0 0)
(15.37 0 0)
(15.3868 0 0)
(15.4032 0 0)
(15.4194 0 0)
(15.4353 0 0)
(15.4509 0 0)
(15.4661 0 0)
(15.4811 0 0)
(15.4959 0 0)
(15.5104 0 0)
(15.5246 0 0)
(15.5385 0 0)
(15.5523 0 0)
(15.5658 0 0)
(15.579 0 0)
(15.5921 0 0)
(15.6049 0 0)
(15.6175 0 0)
(15.6299 0 0)
(15.6421 0 0)
(15.6541 0 0)
(15.6659 0 0)
(15.6776 0 0)
(15.689 0 0)
(15.7004 0 0)
(15.7116 0 0)
(15.7227 0 0)
(15.7339 0 0)
(15.7451 0 0)
(15.7563 0 0)
(15.7671 0 0)
(15.7771 0 0)
(15.787 0 0)
(15.7969 0 0)
(15.8066 0 0)
(15.8162 0 0)
(15.8256 0 0)
(15.835 0 0)
(15.8442 0 0)
(15.8534 0 0)
(15.8624 0 0)
(15.8713 0 0)
(15.8801 0 0)
(15.8888 0 0)
(15.8975 0 0)
(15.906 0 0)
(15.9145 0 0)
(15.9229 0 0)
(15.9312 0 0)
(15.9394 0 0)
(15.9476 0 0)
(15.9558 0 0)
(15.9638 0 0)
(15.9718 0 0)
(15.9798 0 0)
(15.9877 0 0)
(15.9955 0 0)
(16.0033 0 0)
(16.011 0 0)
(16.0186 0 0)
(16.0262 0 0)
(16.0337 0 0)
(16.0411 0 0)
(16.0485 0 0)
(16.0557 0 0)
(16.0628 0 0)
(16.0699 0 0)
(16.0768 0 0)
(16.0835 0 0)
(16.0901 0 0)
(16.0966 0 0)
(16.1029 0 0)
(16.109 0 0)
(16.1149 0 0)
(16.1206 0 0)
(16.1261 0 0)
(16.1314 0 0)
(16.1364 0 0)
(16.1412 0 0)
(16.1457 0 0)
(16.15 0 0)
(16.1541 0 0)
(16.1578 0 0)
(16.1613 0 0)
(16.1645 0 0)
(16.1675 0 0)
(16.1701 0 0)
(16.1726 0 0)
(16.1747 0 0)
(16.1766 0 0)
(16.1783 0 0)
(16.1797 0 0)
(16.181 0 0)
(16.182 0 0)
(16.1828 0 0)
(16.1834 0 0)
(16.1839 0 0)
(16.1842 0 0)
(16.1844 0 0)
(16.1845 0 0)
(16.1845 0 0)
(16.1844 0 0)
(16.1842 0 0)
(16.184 0 0)
(16.1837 0 0)
(16.1834 0 0)
(16.1831 0 0)
(16.1828 0 0)
(16.1825 0 0)
(16.1823 0 0)
(16.182 0 0)
(16.1818 0 0)
(16.1816 0 0)
(16.1815 0 0)
(16.1814 0 0)
(16.1814 0 0)
(16.1814 0 0)
(16.1815 0 0)
(16.1816 0 0)
(16.1818 0 0)
(16.182 0 0)
(16.1823 0 0)
(16.1826 0 0)
(16.183 0 0)
(16.1834 0 0)
(16.1838 0 0)
(16.1842 0 0)
(16.1847 0 0)
(16.1852 0 0)
(16.1857 0 0)
(16.1862 0 0)
(16.1867 0 0)
(16.1872 0 0)
(16.1877 0 0)
(16.1882 0 0)
(16.1887 0 0)
(16.1892 0 0)
(16.1896 0 0)
(16.1901 0 0)
(16.1905 0 0)
(16.1909 0 0)
(16.1913 0 0)
(16.1916 0 0)
(16.192 0 0)
(16.1923 0 0)
(16.1926 0 0)
(16.1929 0 0)
(16.1932 0 0)
(16.1935 0 0)
(16.1938 0 0)
(16.1943 0 0)
(16.1949 0 0)
(16.196 0 0)
)
;

boundaryField
{
    boundary
    {
        type            empty;
    }
    inlet
    {
        type            fixedValue;
        value           uniform (2.34893 0 0);
    }
    outlet
    {
        type            zeroGradient;
    }
}


// ************************************************************************* //
