/*--------------------------------*- C++ -*----------------------------------*\
  =========                 |
  \\      /  F ield         | OpenFOAM: The Open Source CFD Toolbox
   \\    /   O peration     | Website:  https://openfoam.org
    \\  /    A nd           | Version:  7
     \\/     M anipulation  |
\*---------------------------------------------------------------------------*/
FoamFile
{
    version     2.0;
    format      ascii;
    class       volScalarField;
    location    "0.00067";
    object      OH;
}
// * * * * * * * * * * * * * * * * * * * * * * * * * * * * * * * * * * * * * //

dimensions      [0 0 0 0 0 0 0];

internalField   nonuniform List<scalar> 
125
(
9.3588e-48
1.82045e-47
2.42156e-47
2.82499e-47
3.09438e-47
3.27386e-47
3.39344e-47
3.4734e-47
3.52738e-47
3.56451e-47
3.59088e-47
3.61053e-47
3.62608e-47
3.63923e-47
3.65108e-47
3.6623e-47
3.67335e-47
3.68451e-47
3.69598e-47
3.70796e-47
3.7206e-47
3.7341e-47
3.74866e-47
3.76451e-47
3.78195e-47
3.80125e-47
3.82278e-47
3.84689e-47
3.87398e-47
3.90446e-47
3.93874e-47
3.97725e-47
4.02039e-47
4.06855e-47
4.12207e-47
4.18125e-47
4.24631e-47
4.31741e-47
4.39458e-47
4.47776e-47
4.56677e-47
4.66131e-47
4.76093e-47
4.86505e-47
4.97298e-47
5.08391e-47
5.19691e-47
5.31101e-47
5.42517e-47
5.53833e-47
5.64944e-47
5.75752e-47
5.86162e-47
5.96093e-47
6.05474e-47
6.1425e-47
6.22381e-47
6.29839e-47
6.36616e-47
6.42713e-47
6.48148e-47
6.52946e-47
6.57142e-47
6.60779e-47
6.63902e-47
6.66559e-47
6.68802e-47
6.70677e-47
6.72231e-47
6.73509e-47
6.74551e-47
6.75394e-47
6.76071e-47
6.76609e-47
6.77035e-47
6.77369e-47
6.7763e-47
6.77831e-47
6.77987e-47
6.78106e-47
6.78197e-47
6.78266e-47
6.78319e-47
6.7836e-47
6.78391e-47
6.78416e-47
6.78436e-47
6.78452e-47
6.78466e-47
6.78478e-47
6.78489e-47
6.78499e-47
6.78509e-47
6.78519e-47
6.78529e-47
6.78539e-47
6.7855e-47
6.7856e-47
6.78571e-47
6.78583e-47
6.78595e-47
6.78607e-47
6.7862e-47
6.78634e-47
6.78648e-47
6.78663e-47
6.78678e-47
6.78694e-47
6.7871e-47
6.78727e-47
6.78745e-47
6.78764e-47
6.78783e-47
6.78803e-47
6.78823e-47
6.78845e-47
6.78867e-47
6.7889e-47
6.78914e-47
6.78938e-47
6.78965e-47
6.78994e-47
6.79028e-47
6.79075e-47
6.79148e-47
)
;

boundaryField
{
    boundary
    {
        type            empty;
    }
    inlet
    {
        type            fixedValue;
        value           uniform 0;
    }
    outlet
    {
        type            zeroGradient;
    }
    procBoundary2to3
    {
        type            processor;
        value           uniform 6.79238e-47;
    }
}


// ************************************************************************* //
