/*--------------------------------*- C++ -*----------------------------------*\
  =========                 |
  \\      /  F ield         | OpenFOAM: The Open Source CFD Toolbox
   \\    /   O peration     | Website:  https://openfoam.org
    \\  /    A nd           | Version:  7
     \\/     M anipulation  |
\*---------------------------------------------------------------------------*/
FoamFile
{
    version     2.0;
    format      ascii;
    class       volScalarField;
    location    "0.00097";
    object      H;
}
// * * * * * * * * * * * * * * * * * * * * * * * * * * * * * * * * * * * * * //

dimensions      [0 0 0 0 0 0 0];

internalField   nonuniform List<scalar> 
500
(
1.48569e-41
2.01243e-41
2.12614e-41
2.15093e-41
2.15665e-41
2.15833e-41
2.15915e-41
2.15978e-41
2.16033e-41
2.16082e-41
2.16122e-41
2.16151e-41
2.16168e-41
2.16171e-41
2.16156e-41
2.16122e-41
2.16067e-41
2.1599e-41
2.1589e-41
2.15768e-41
2.15625e-41
2.15463e-41
2.15286e-41
2.15097e-41
2.14902e-41
2.14706e-41
2.14515e-41
2.14335e-41
2.14172e-41
2.14032e-41
2.13919e-41
2.1384e-41
2.13799e-41
2.13799e-41
2.13846e-41
2.13942e-41
2.1409e-41
2.14295e-41
2.14559e-41
2.14887e-41
2.15282e-41
2.15749e-41
2.16294e-41
2.16923e-41
2.17643e-41
2.1846e-41
2.19383e-41
2.20421e-41
2.21583e-41
2.22878e-41
2.24314e-41
2.25902e-41
2.2765e-41
2.29564e-41
2.31653e-41
2.33921e-41
2.36373e-41
2.3901e-41
2.41832e-41
2.44837e-41
2.4802e-41
2.51373e-41
2.54886e-41
2.58547e-41
2.6234e-41
2.66247e-41
2.70248e-41
2.74319e-41
2.78438e-41
2.82579e-41
2.86715e-41
2.90821e-41
2.9487e-41
2.98838e-41
3.027e-41
3.06434e-41
3.10021e-41
3.13444e-41
3.16687e-41
3.19741e-41
3.22597e-41
3.25249e-41
3.27697e-41
3.29941e-41
3.31985e-41
3.33834e-41
3.35496e-41
3.36981e-41
3.38299e-41
3.39461e-41
3.4048e-41
3.41368e-41
3.42137e-41
3.42799e-41
3.43365e-41
3.43847e-41
3.44255e-41
3.44598e-41
3.44885e-41
3.45123e-41
3.45321e-41
3.45484e-41
3.45617e-41
3.45726e-41
3.45815e-41
3.45886e-41
3.45944e-41
3.45991e-41
3.46029e-41
3.46059e-41
3.46083e-41
3.46103e-41
3.46119e-41
3.46133e-41
3.46144e-41
3.46154e-41
3.46162e-41
3.4617e-41
3.46176e-41
3.46183e-41
3.46189e-41
3.46195e-41
3.462e-41
3.46206e-41
3.46211e-41
3.46216e-41
3.46221e-41
3.46225e-41
3.46229e-41
3.46234e-41
3.46241e-41
3.46248e-41
3.46257e-41
3.46266e-41
3.46277e-41
3.46288e-41
3.463e-41
3.46313e-41
3.46327e-41
3.46341e-41
3.46356e-41
3.46372e-41
3.46388e-41
3.46405e-41
3.46422e-41
3.46438e-41
3.46455e-41
3.46471e-41
3.46486e-41
3.46501e-41
3.46515e-41
3.46528e-41
3.46541e-41
3.46554e-41
3.46566e-41
3.46578e-41
3.46589e-41
3.46601e-41
3.46613e-41
3.46626e-41
3.46639e-41
3.46652e-41
3.46667e-41
3.46682e-41
3.46697e-41
3.46714e-41
3.46731e-41
3.46749e-41
3.46768e-41
3.46787e-41
3.46807e-41
3.46827e-41
3.46848e-41
3.46869e-41
3.46891e-41
3.46913e-41
3.46935e-41
3.46957e-41
3.4698e-41
3.47003e-41
3.47026e-41
3.47049e-41
3.47072e-41
3.47096e-41
3.4712e-41
3.47144e-41
3.47168e-41
3.47193e-41
3.47217e-41
3.47242e-41
3.47267e-41
3.47291e-41
3.47316e-41
3.47341e-41
3.47366e-41
3.4739e-41
3.47415e-41
3.47439e-41
3.47463e-41
3.47486e-41
3.47509e-41
3.47532e-41
3.47554e-41
3.47575e-41
3.47596e-41
3.47617e-41
3.47639e-41
3.47667e-41
3.47715e-41
3.4783e-41
3.48157e-41
3.49153e-41
3.52249e-41
3.61911e-41
3.92078e-41
4.86132e-41
7.78922e-41
1.68896e-40
4.51342e-40
1.32678e-39
4.03682e-39
1.24168e-38
3.83026e-38
1.18189e-37
3.64518e-37
1.12347e-36
3.46019e-36
1.06498e-35
3.27571e-35
1.00695e-34
3.09362e-34
9.49936e-34
2.91545e-33
8.94369e-33
2.74251e-32
8.40673e-32
2.57628e-31
7.89411e-31
2.41902e-30
7.41528e-30
2.2748e-29
6.98786e-29
2.15133e-28
6.64616e-28
2.06393e-27
6.45873e-27
2.04348e-26
6.56531e-26
2.15339e-25
7.25441e-25
2.52527e-24
9.17707e-24
3.45819e-23
1.35361e-22
5.49164e-22
2.29786e-21
9.85912e-21
4.31404e-20
1.91666e-19
8.61922e-19
3.91664e-18
1.79789e-17
8.34754e-17
3.93167e-16
1.88755e-15
9.29838e-15
4.73771e-14
2.51699e-13
1.47391e-12
1.04212e-11
9.41462e-11
9.20567e-10
8.60624e-09
7.99887e-08
7.10251e-07
5.54837e-06
3.33454e-05
0.000130847
0.000326698
0.000609528
0.000955442
0.00131455
0.00161592
0.00181363
0.00191048
0.00192457
0.00189005
0.00182928
0.00175672
0.00168086
0.00160636
0.0015355
0.00146928
0.00140791
0.00135128
0.00129907
0.00125091
0.00120639
0.00116517
0.0011269
0.00109128
0.00105804
0.00102695
0.000997795
0.000970402
0.000944609
0.000920274
0.000897273
0.000875496
0.000854845
0.000835234
0.000816583
0.000799343
0.000783259
0.0007678
0.00075293
0.000738616
0.000724827
0.000711532
0.000698705
0.00068632
0.000674354
0.000662786
0.000651594
0.000640761
0.000630269
0.000620101
0.000610241
0.000600677
0.000591393
0.000582378
0.000573619
0.000565106
0.000556828
0.000548776
0.000540939
0.000533308
0.000525877
0.000518637
0.00051158
0.000504699
0.000497988
0.00049144
0.00048505
0.000478812
0.000472719
0.000466767
0.000460952
0.000455268
0.000449711
0.000444276
0.00043896
0.000433758
0.000428668
0.000423684
0.000418805
0.000414026
0.000409345
0.000404759
0.000400264
0.000395859
0.00039154
0.000387304
0.000383151
0.000379076
0.000375079
0.000371157
0.000367308
0.00036353
0.000359822
0.000356181
0.000352607
0.000349098
0.000345653
0.000342271
0.000338951
0.00033568
0.000332451
0.000329278
0.000326157
0.000323088
0.000320069
0.000317099
0.000314178
0.000311303
0.000308474
0.000305689
0.000302948
0.00030025
0.000297594
0.000294978
0.000292403
0.000289866
0.000287367
0.000284906
0.000282481
0.000280092
0.000277738
0.000275418
0.000273132
0.000270878
0.000268657
0.000266467
0.000264308
0.000262179
0.00026008
0.000258011
0.000255969
0.000253956
0.00025197
0.000250011
0.000248078
0.000246171
0.000244289
0.000242433
0.000240601
0.000238792
0.000237008
0.000235246
0.000233507
0.000231791
0.000230096
0.000228423
0.000226771
0.00022514
0.00022353
0.000221939
0.000220368
0.000218816
0.000217284
0.00021577
0.000214275
0.000212798
0.000211338
0.000209896
0.000208472
0.000207064
0.000205674
0.000204299
0.000202941
0.000201599
0.000200273
0.000198962
0.000197666
0.000196385
0.000195119
0.000193868
0.000192631
0.000191408
0.000190199
0.000189003
0.000187822
0.000186653
0.000185498
0.000184355
0.000183226
0.000182109
0.000181004
0.000179911
0.000178831
0.000177762
0.000176706
0.00017566
0.000174627
0.000173604
0.000172593
0.000171592
0.000170603
0.000169624
0.000168656
0.000167698
0.000166751
0.000165814
0.000164887
0.00016397
0.000163063
0.000162165
0.000161278
0.0001604
0.000159532
0.000158674
0.000157826
0.000156987
0.000156158
0.000155339
0.00015453
0.000153733
0.000152946
0.000152172
0.000151411
0.000150665
0.000149937
0.000149229
0.000148547
0.000147898
0.000147291
0.000146741
0.000146268
0.000145904
0.000145694
)
;

boundaryField
{
    boundary
    {
        type            empty;
    }
    inlet
    {
        type            fixedValue;
        value           uniform 0;
    }
    outlet
    {
        type            zeroGradient;
    }
}


// ************************************************************************* //
