/*--------------------------------*- C++ -*----------------------------------*\
  =========                 |
  \\      /  F ield         | OpenFOAM: The Open Source CFD Toolbox
   \\    /   O peration     | Website:  https://openfoam.org
    \\  /    A nd           | Version:  7
     \\/     M anipulation  |
\*---------------------------------------------------------------------------*/
FoamFile
{
    version     2.0;
    format      ascii;
    class       volScalarField;
    location    "0.00097";
    object      H2;
}
// * * * * * * * * * * * * * * * * * * * * * * * * * * * * * * * * * * * * * //

dimensions      [0 0 0 0 0 0 0];

internalField   nonuniform List<scalar> 
500
(
0.0285116
0.0285116
0.0285116
0.0285116
0.0285116
0.0285116
0.0285116
0.0285116
0.0285116
0.0285116
0.0285116
0.0285116
0.0285116
0.0285116
0.0285116
0.0285116
0.0285116
0.0285116
0.0285116
0.0285116
0.0285116
0.0285116
0.0285116
0.0285116
0.0285116
0.0285116
0.0285116
0.0285116
0.0285116
0.0285116
0.0285116
0.0285116
0.0285116
0.0285116
0.0285116
0.0285116
0.0285116
0.0285116
0.0285116
0.0285116
0.0285116
0.0285116
0.0285116
0.0285116
0.0285116
0.0285116
0.0285116
0.0285116
0.0285116
0.0285116
0.0285116
0.0285116
0.0285116
0.0285116
0.0285116
0.0285116
0.0285116
0.0285116
0.0285116
0.0285116
0.0285116
0.0285116
0.0285116
0.0285116
0.0285116
0.0285116
0.0285116
0.0285116
0.0285116
0.0285116
0.0285116
0.0285116
0.0285116
0.0285116
0.0285116
0.0285116
0.0285116
0.0285116
0.0285116
0.0285116
0.0285116
0.0285116
0.0285116
0.0285116
0.0285116
0.0285116
0.0285116
0.0285116
0.0285116
0.0285116
0.0285116
0.0285116
0.0285116
0.0285116
0.0285116
0.0285116
0.0285116
0.0285116
0.0285116
0.0285116
0.0285116
0.0285116
0.0285116
0.0285116
0.0285116
0.0285116
0.0285116
0.0285116
0.0285116
0.0285116
0.0285116
0.0285116
0.0285116
0.0285116
0.0285116
0.0285116
0.0285116
0.0285116
0.0285116
0.0285116
0.0285116
0.0285116
0.0285116
0.0285116
0.0285116
0.0285116
0.0285116
0.0285116
0.0285116
0.0285116
0.0285116
0.0285116
0.0285116
0.0285116
0.0285116
0.0285116
0.0285116
0.0285116
0.0285116
0.0285116
0.0285116
0.0285116
0.0285116
0.0285116
0.0285116
0.0285116
0.0285116
0.0285116
0.0285116
0.0285116
0.0285116
0.0285116
0.0285116
0.0285116
0.0285116
0.0285116
0.0285116
0.0285116
0.0285116
0.0285116
0.0285116
0.0285116
0.0285116
0.0285116
0.0285116
0.0285116
0.0285116
0.0285116
0.0285116
0.0285116
0.0285116
0.0285116
0.0285116
0.0285116
0.0285116
0.0285116
0.0285116
0.0285116
0.0285116
0.0285116
0.0285116
0.0285116
0.0285116
0.0285116
0.0285116
0.0285116
0.0285116
0.0285116
0.0285116
0.0285116
0.0285116
0.0285116
0.0285116
0.0285116
0.0285116
0.0285116
0.0285116
0.0285116
0.0285116
0.0285116
0.0285116
0.0285116
0.0285116
0.0285116
0.0285116
0.0285116
0.0285116
0.0285116
0.0285116
0.0285116
0.0285116
0.0285116
0.0285116
0.0285116
0.0285116
0.0285116
0.0285116
0.0285116
0.0285116
0.0285116
0.0285116
0.0285116
0.0285116
0.0285116
0.0285116
0.0285116
0.0285116
0.0285116
0.0285116
0.0285116
0.0285116
0.0285116
0.0285116
0.0285116
0.0285116
0.0285116
0.0285116
0.0285116
0.0285116
0.0285116
0.0285116
0.0285116
0.0285116
0.0285116
0.0285116
0.0285116
0.0285116
0.0285116
0.0285116
0.0285116
0.0285116
0.0285116
0.0285116
0.0285116
0.0285116
0.0285116
0.0285116
0.0285116
0.0285116
0.0285116
0.0285116
0.0285115
0.0285114
0.0285113
0.028511
0.0285103
0.0285089
0.028506
0.0285
0.0284873
0.028461
0.0284063
0.0282931
0.0280615
0.0276024
0.0267524
0.0253451
0.0233305
0.0208602
0.0180624
0.0150315
0.0120193
0.0093988
0.00741147
0.00594575
0.00506783
0.00452071
0.00418388
0.00397565
0.00384424
0.00375803
0.00369812
0.00365337
0.00361731
0.00358618
0.00355784
0.0035311
0.00350529
0.00348006
0.00345524
0.00343074
0.00340654
0.00338263
0.00335903
0.00333574
0.00331279
0.00329018
0.00326793
0.00324604
0.00322452
0.00320337
0.00318259
0.00316281
0.00314382
0.00312511
0.00310666
0.00308848
0.00307057
0.00305291
0.00303551
0.00301835
0.00300145
0.00298479
0.00296837
0.00295218
0.00293623
0.0029205
0.002905
0.0028897
0.00287463
0.00285975
0.00284508
0.00283061
0.00281632
0.00280223
0.00278831
0.00277458
0.00276101
0.00274762
0.00273439
0.00272132
0.00270841
0.00269565
0.00268304
0.00267058
0.00265826
0.00264609
0.00263405
0.00262215
0.00261038
0.00259874
0.00258723
0.00257585
0.00256458
0.00255345
0.00254243
0.00253152
0.00252074
0.00251006
0.0024995
0.00248905
0.00247871
0.00246848
0.00245835
0.00244833
0.00243841
0.00242859
0.00241887
0.00240925
0.00239973
0.0023903
0.00238097
0.00237174
0.00236261
0.00235357
0.00234463
0.00233575
0.0023269
0.00231813
0.00230945
0.00230084
0.0022923
0.00228385
0.00227547
0.00226716
0.00225892
0.00225075
0.00224265
0.00223463
0.00222666
0.00221877
0.00221094
0.00220317
0.00219547
0.00218783
0.00218025
0.00217273
0.00216527
0.00215787
0.00215053
0.00214325
0.00213602
0.00212885
0.00212173
0.00211467
0.00210767
0.00210072
0.00209382
0.00208698
0.00208019
0.00207345
0.00206676
0.00206012
0.00205354
0.00204701
0.00204052
0.00203409
0.00202771
0.00202137
0.00201509
0.00200886
0.00200267
0.00199653
0.00199044
0.0019844
0.0019784
0.00197245
0.00196655
0.00196069
0.00195488
0.00194911
0.00194339
0.00193772
0.00193208
0.00192649
0.00192095
0.00191544
0.00190998
0.00190456
0.00189918
0.00189385
0.00188855
0.00188329
0.00187808
0.0018729
0.00186776
0.00186265
0.00185759
0.00185256
0.00184757
0.00184262
0.0018377
0.00183282
0.00182797
0.00182316
0.00181838
0.00181364
0.00180893
0.00180425
0.00179961
0.001795
0.00179042
0.00178587
0.00178136
0.00177688
0.00177243
0.00176801
0.00176362
0.00175927
0.00175494
0.00175065
0.00174638
0.00174215
0.00173795
0.00173378
0.00172964
0.00172553
0.00172146
0.00171741
0.0017134
0.00170942
0.00170547
0.00170156
0.00169769
0.00169386
0.00169006
0.00168632
0.00168262
0.00167898
0.00167542
0.00167193
0.00166854
0.00166527
0.00166215
0.00165923
0.00165655
0.00165419
0.00165223
0.00165077
0.00164995
)
;

boundaryField
{
    boundary
    {
        type            empty;
    }
    inlet
    {
        type            fixedValue;
        value           uniform 0.0285116;
    }
    outlet
    {
        type            zeroGradient;
    }
}


// ************************************************************************* //
