/*--------------------------------*- C++ -*----------------------------------*\
  =========                 |
  \\      /  F ield         | OpenFOAM: The Open Source CFD Toolbox
   \\    /   O peration     | Website:  https://openfoam.org
    \\  /    A nd           | Version:  7
     \\/     M anipulation  |
\*---------------------------------------------------------------------------*/
FoamFile
{
    version     2.0;
    format      ascii;
    class       volScalarField;
    location    "0.00097";
    object      H2O2;
}
// * * * * * * * * * * * * * * * * * * * * * * * * * * * * * * * * * * * * * //

dimensions      [0 0 0 0 0 0 0];

internalField   nonuniform List<scalar> 
500
(
1.99283e-52
6.40303e-52
1.27306e-51
2.09774e-51
3.1144e-51
4.32307e-51
5.72366e-51
7.31601e-51
9.09987e-51
1.10748e-50
1.32404e-50
1.55957e-50
1.814e-50
2.08721e-50
2.37908e-50
2.6895e-50
3.01833e-50
3.36546e-50
3.73082e-50
4.11434e-50
4.51604e-50
4.93596e-50
5.37424e-50
5.83106e-50
6.30667e-50
6.8014e-50
7.31564e-50
7.84982e-50
8.40442e-50
8.97998e-50
9.57704e-50
1.01962e-49
1.08381e-49
1.15034e-49
1.21928e-49
1.29072e-49
1.36473e-49
1.44143e-49
1.52092e-49
1.60334e-49
1.68884e-49
1.77758e-49
1.86977e-49
1.96561e-49
2.06535e-49
2.16925e-49
2.27758e-49
2.39063e-49
2.5087e-49
2.6321e-49
2.76111e-49
2.896e-49
3.03701e-49
3.18434e-49
3.33812e-49
3.49841e-49
3.66521e-49
3.8384e-49
4.01777e-49
4.20298e-49
4.39359e-49
4.58903e-49
4.78862e-49
4.99156e-49
5.19695e-49
5.40379e-49
5.61103e-49
5.81755e-49
6.02221e-49
6.22385e-49
6.42134e-49
6.61359e-49
6.79959e-49
6.97841e-49
7.14921e-49
7.31132e-49
7.46415e-49
7.6073e-49
7.74048e-49
7.86356e-49
7.97655e-49
8.07958e-49
8.1729e-49
8.25685e-49
8.33188e-49
8.39847e-49
8.4572e-49
8.50863e-49
8.55339e-49
8.59208e-49
8.62531e-49
8.65367e-49
8.67771e-49
8.69797e-49
8.71493e-49
8.72904e-49
8.74071e-49
8.7503e-49
8.75814e-49
8.76451e-49
8.76966e-49
8.77379e-49
8.7771e-49
8.77973e-49
8.78182e-49
8.78347e-49
8.78477e-49
8.78579e-49
8.7866e-49
8.78724e-49
8.78774e-49
8.78815e-49
8.78848e-49
8.78875e-49
8.78899e-49
8.78919e-49
8.78937e-49
8.78953e-49
8.78969e-49
8.78983e-49
8.78995e-49
8.78994e-49
8.78949e-49
8.78726e-49
8.77806e-49
8.75983e-49
8.76e-49
8.76018e-49
8.76037e-49
8.76057e-49
8.76078e-49
8.76101e-49
8.76124e-49
8.7615e-49
8.76176e-49
8.76204e-49
8.76234e-49
8.76265e-49
8.76298e-49
8.76332e-49
8.76368e-49
8.76406e-49
8.76445e-49
8.76486e-49
8.76528e-49
8.76571e-49
8.76615e-49
8.76661e-49
8.76708e-49
8.76757e-49
8.76809e-49
8.76863e-49
8.76921e-49
8.76984e-49
8.77052e-49
8.77127e-49
8.77208e-49
8.77298e-49
8.77397e-49
8.77504e-49
8.77621e-49
8.77748e-49
8.77883e-49
8.78026e-49
8.78176e-49
8.78332e-49
8.78492e-49
8.78654e-49
8.78816e-49
8.78976e-49
8.79133e-49
8.79284e-49
8.79429e-49
8.79565e-49
8.79693e-49
8.79812e-49
8.79922e-49
8.80024e-49
8.80119e-49
8.80208e-49
8.80292e-49
8.80374e-49
8.80454e-49
8.80535e-49
8.80619e-49
8.80706e-49
8.80799e-49
8.80897e-49
8.81003e-49
8.81115e-49
8.81235e-49
8.81361e-49
8.81494e-49
8.81632e-49
8.81774e-49
8.8192e-49
8.8207e-49
8.82226e-49
8.8241e-49
8.82718e-49
8.83608e-49
8.87163e-49
9.0286e-49
9.73593e-49
1.29264e-48
2.72721e-48
9.15268e-48
3.78198e-47
1.65232e-46
7.29463e-46
3.21943e-45
1.41716e-44
6.21949e-44
2.72153e-43
1.18758e-42
5.16871e-42
2.24414e-41
9.72179e-41
4.20292e-40
1.81359e-39
7.81244e-39
3.36017e-38
1.4432e-37
6.19081e-37
2.65262e-36
1.13542e-35
4.85554e-35
2.07468e-34
8.85776e-34
3.77902e-33
1.61113e-32
6.86414e-32
2.92247e-31
1.24343e-30
5.28684e-30
2.2463e-29
9.53742e-29
4.04651e-28
1.71559e-27
7.26833e-27
3.07716e-26
1.30189e-25
5.50462e-25
2.32617e-24
9.82541e-24
4.14858e-23
1.75119e-22
7.391e-22
3.1193e-21
1.31656e-20
5.55765e-20
2.36004e-19
9.99372e-19
4.22564e-18
1.78682e-17
7.55862e-17
3.19901e-16
1.35456e-15
5.73838e-15
2.43204e-14
1.03117e-13
4.37374e-13
1.85576e-12
7.87639e-12
3.34391e-11
1.42003e-10
6.03164e-10
2.56238e-09
1.08857e-08
4.62284e-08
1.9603e-07
8.27091e-07
3.43029e-06
1.34287e-05
4.40158e-05
9.41735e-05
0.000123247
0.00010836
6.09879e-05
2.59907e-05
1.05338e-05
5.48461e-06
4.42611e-06
4.69564e-06
5.39926e-06
5.97723e-06
6.39821e-06
6.64998e-06
6.75954e-06
6.76223e-06
6.68971e-06
6.56677e-06
6.41163e-06
6.23721e-06
6.05254e-06
5.86375e-06
5.67502e-06
5.48913e-06
5.3079e-06
5.13246e-06
4.96348e-06
4.80132e-06
4.6461e-06
4.4978e-06
4.35629e-06
4.22136e-06
4.09278e-06
3.97028e-06
3.85361e-06
3.74248e-06
3.63668e-06
3.536e-06
3.44314e-06
3.35575e-06
3.27183e-06
3.19119e-06
3.11368e-06
3.03914e-06
2.96742e-06
2.89839e-06
2.83192e-06
2.76788e-06
2.70616e-06
2.64666e-06
2.58925e-06
2.53386e-06
2.48038e-06
2.42873e-06
2.37882e-06
2.33058e-06
2.28394e-06
2.23881e-06
2.19515e-06
2.15287e-06
2.11194e-06
2.07228e-06
2.03384e-06
1.99659e-06
1.96045e-06
1.9254e-06
1.89138e-06
1.85836e-06
1.8263e-06
1.79515e-06
1.76489e-06
1.73547e-06
1.70687e-06
1.67905e-06
1.65199e-06
1.62565e-06
1.60002e-06
1.57505e-06
1.55074e-06
1.52705e-06
1.50397e-06
1.48146e-06
1.45952e-06
1.43812e-06
1.41724e-06
1.39687e-06
1.37699e-06
1.35757e-06
1.33861e-06
1.3201e-06
1.30201e-06
1.28433e-06
1.26706e-06
1.25017e-06
1.23366e-06
1.21751e-06
1.20172e-06
1.18628e-06
1.17117e-06
1.1564e-06
1.14195e-06
1.12783e-06
1.11399e-06
1.10037e-06
1.08703e-06
1.07396e-06
1.06115e-06
1.04859e-06
1.03629e-06
1.02422e-06
1.01239e-06
1.00079e-06
9.8941e-07
9.78248e-07
9.67297e-07
9.56552e-07
9.46008e-07
9.35659e-07
9.25501e-07
9.15529e-07
9.05738e-07
8.96123e-07
8.8668e-07
8.77406e-07
8.68296e-07
8.59345e-07
8.50551e-07
8.41908e-07
8.33415e-07
8.25067e-07
8.1686e-07
8.08792e-07
8.00859e-07
7.93057e-07
7.85385e-07
7.77838e-07
7.70415e-07
7.63111e-07
7.55925e-07
7.48854e-07
7.41894e-07
7.35044e-07
7.28301e-07
7.21663e-07
7.15127e-07
7.08691e-07
7.02353e-07
6.96111e-07
6.89962e-07
6.83905e-07
6.77938e-07
6.72058e-07
6.66265e-07
6.60556e-07
6.54929e-07
6.49383e-07
6.43917e-07
6.38528e-07
6.33215e-07
6.27977e-07
6.22812e-07
6.17719e-07
6.12697e-07
6.07744e-07
6.02859e-07
5.9804e-07
5.93287e-07
5.88599e-07
5.83973e-07
5.7941e-07
5.74908e-07
5.70465e-07
5.66082e-07
5.61756e-07
5.57488e-07
5.53276e-07
5.49119e-07
5.45016e-07
5.40966e-07
5.36969e-07
5.33023e-07
5.29128e-07
5.25283e-07
5.21488e-07
5.1774e-07
5.1404e-07
5.10387e-07
5.0678e-07
5.03218e-07
4.99701e-07
4.96227e-07
4.92797e-07
4.89409e-07
4.86063e-07
4.82759e-07
4.79495e-07
4.76271e-07
4.73086e-07
4.69941e-07
4.66833e-07
4.63764e-07
4.60731e-07
4.57735e-07
4.54775e-07
4.51851e-07
4.48961e-07
4.46107e-07
4.43287e-07
4.40501e-07
4.37749e-07
4.3503e-07
4.32344e-07
4.29693e-07
4.27075e-07
4.24491e-07
4.21944e-07
4.19436e-07
4.16969e-07
4.14547e-07
4.12181e-07
4.09882e-07
4.07672e-07
4.05588e-07
4.03693e-07
4.02107e-07
4.01067e-07
)
;

boundaryField
{
    boundary
    {
        type            empty;
    }
    inlet
    {
        type            fixedValue;
        value           uniform 0;
    }
    outlet
    {
        type            zeroGradient;
    }
}


// ************************************************************************* //
