/*--------------------------------*- C++ -*----------------------------------*\
  =========                 |
  \\      /  F ield         | OpenFOAM: The Open Source CFD Toolbox
   \\    /   O peration     | Website:  https://openfoam.org
    \\  /    A nd           | Version:  7
     \\/     M anipulation  |
\*---------------------------------------------------------------------------*/
FoamFile
{
    version     2.0;
    format      ascii;
    class       volScalarField;
    location    "0.00097";
    object      N2;
}
// * * * * * * * * * * * * * * * * * * * * * * * * * * * * * * * * * * * * * //

dimensions      [0 0 0 0 0 0 0];

internalField   nonuniform List<scalar> 
500
(
0.745219
0.745219
0.745219
0.745219
0.745219
0.745219
0.745219
0.745219
0.745219
0.745219
0.745219
0.745219
0.745219
0.745219
0.745219
0.745219
0.745219
0.745219
0.745219
0.745219
0.745219
0.745219
0.745219
0.745219
0.745219
0.745219
0.745219
0.745219
0.745219
0.745219
0.745219
0.745219
0.745219
0.745219
0.745219
0.745219
0.745219
0.745219
0.745219
0.745219
0.745219
0.745219
0.745219
0.745219
0.745219
0.745219
0.745219
0.745219
0.745219
0.745219
0.745219
0.745219
0.745219
0.745219
0.745219
0.745219
0.745219
0.745219
0.745219
0.745219
0.745219
0.745219
0.745219
0.745219
0.745219
0.745219
0.74522
0.74522
0.74522
0.74522
0.74522
0.74522
0.74522
0.74522
0.74522
0.74522
0.74522
0.74522
0.74522
0.74522
0.74522
0.74522
0.74522
0.74522
0.74522
0.74522
0.74522
0.74522
0.74522
0.74522
0.74522
0.74522
0.74522
0.74522
0.74522
0.74522
0.74522
0.74522
0.74522
0.74522
0.74522
0.74522
0.74522
0.74522
0.74522
0.74522
0.74522
0.74522
0.74522
0.74522
0.74522
0.74522
0.74522
0.74522
0.74522
0.74522
0.74522
0.74522
0.74522
0.74522
0.74522
0.74522
0.74522
0.74522
0.74522
0.74522
0.74522
0.74522
0.74522
0.74522
0.74522
0.74522
0.74522
0.74522
0.74522
0.74522
0.74522
0.74522
0.74522
0.74522
0.74522
0.74522
0.74522
0.74522
0.74522
0.74522
0.74522
0.74522
0.74522
0.74522
0.74522
0.74522
0.74522
0.74522
0.74522
0.74522
0.74522
0.74522
0.74522
0.74522
0.74522
0.74522
0.74522
0.74522
0.74522
0.74522
0.74522
0.74522
0.74522
0.74522
0.74522
0.74522
0.74522
0.74522
0.74522
0.74522
0.74522
0.74522
0.74522
0.74522
0.74522
0.74522
0.74522
0.74522
0.74522
0.74522
0.74522
0.74522
0.74522
0.74522
0.74522
0.74522
0.74522
0.74522
0.74522
0.74522
0.74522
0.74522
0.74522
0.74522
0.74522
0.74522
0.74522
0.74522
0.74522
0.74522
0.74522
0.74522
0.74522
0.74522
0.74522
0.74522
0.74522
0.74522
0.74522
0.74522
0.74522
0.74522
0.74522
0.74522
0.74522
0.74522
0.74522
0.74522
0.74522
0.74522
0.74522
0.74522
0.74522
0.74522
0.74522
0.74522
0.74522
0.74522
0.74522
0.74522
0.74522
0.74522
0.74522
0.74522
0.74522
0.74522
0.74522
0.74522
0.74522
0.74522
0.74522
0.74522
0.74522
0.74522
0.74522
0.74522
0.74522
0.74522
0.74522
0.74522
0.74522
0.74522
0.74522
0.74522
0.74522
0.74522
0.74522
0.74522
0.74522
0.74522
0.745222
0.745224
0.745228
0.745237
0.745255
0.745291
0.745357
0.745464
0.745589
0.745612
0.745406
0.745032
0.744522
0.743969
0.743636
0.74368
0.743956
0.744134
0.744735
0.744956
0.745112
0.745212
0.745274
0.745312
0.745334
0.745346
0.745352
0.745354
0.745354
0.745353
0.745351
0.745348
0.745344
0.745341
0.745337
0.745334
0.74533
0.745326
0.745322
0.745319
0.745315
0.745312
0.745308
0.745305
0.745302
0.745298
0.745295
0.745293
0.74529
0.745288
0.745285
0.745283
0.745281
0.745279
0.745277
0.745275
0.745274
0.745273
0.745271
0.74527
0.745269
0.745268
0.745267
0.745267
0.745266
0.745265
0.745265
0.745264
0.745264
0.745263
0.745263
0.745262
0.745262
0.745261
0.745261
0.74526
0.74526
0.745259
0.745259
0.745258
0.745258
0.745257
0.745256
0.745256
0.745255
0.745255
0.745254
0.745254
0.745253
0.745253
0.745252
0.745252
0.745251
0.745251
0.74525
0.74525
0.745249
0.745249
0.745249
0.745248
0.745248
0.745248
0.745247
0.745247
0.745247
0.745247
0.745246
0.745246
0.745246
0.745246
0.745246
0.745245
0.745245
0.745245
0.745245
0.745245
0.745245
0.745245
0.745244
0.745244
0.745244
0.745244
0.745244
0.745243
0.745243
0.745243
0.745243
0.745243
0.745242
0.745242
0.745242
0.745241
0.745241
0.745241
0.74524
0.74524
0.74524
0.745239
0.745239
0.745238
0.745238
0.745238
0.745237
0.745237
0.745236
0.745236
0.745235
0.745235
0.745234
0.745234
0.745233
0.745233
0.745233
0.745232
0.745232
0.745231
0.745231
0.745231
0.74523
0.74523
0.74523
0.74523
0.745229
0.745229
0.745229
0.745229
0.745229
0.745229
0.745229
0.745228
0.745228
0.745228
0.745228
0.745228
0.745228
0.745228
0.745228
0.745228
0.745228
0.745228
0.745228
0.745228
0.745228
0.745228
0.745228
0.745228
0.745228
0.745228
0.745228
0.745228
0.745228
0.745228
0.745228
0.745228
0.745228
0.745228
0.745228
0.745228
0.745228
0.745228
0.745228
0.745228
0.745228
0.745228
0.745228
0.745228
0.745228
0.745227
0.745227
0.745227
0.745227
0.745227
0.745227
0.745227
0.745226
0.745226
0.745226
0.745226
0.745225
0.745225
0.745225
0.745224
0.745224
0.745223
0.745223
0.745222
0.745221
0.745221
0.74522
0.745219
0.745217
0.745216
0.745215
0.745214
)
;

boundaryField
{
    boundary
    {
        type            empty;
    }
    inlet
    {
        type            fixedValue;
        value           uniform 0.74522;
    }
    outlet
    {
        type            zeroGradient;
    }
}


// ************************************************************************* //
