/*--------------------------------*- C++ -*----------------------------------*\
  =========                 |
  \\      /  F ield         | OpenFOAM: The Open Source CFD Toolbox
   \\    /   O peration     | Website:  https://openfoam.org
    \\  /    A nd           | Version:  7
     \\/     M anipulation  |
\*---------------------------------------------------------------------------*/
FoamFile
{
    version     2.0;
    format      ascii;
    class       volScalarField;
    location    "0.00097";
    object      O2;
}
// * * * * * * * * * * * * * * * * * * * * * * * * * * * * * * * * * * * * * //

dimensions      [0 0 0 0 0 0 0];

internalField   nonuniform List<scalar> 
500
(
0.226269
0.226269
0.226269
0.226269
0.226269
0.226269
0.226269
0.226269
0.226269
0.226269
0.226269
0.226269
0.226269
0.226269
0.226269
0.226269
0.226269
0.226269
0.226269
0.226269
0.226269
0.226269
0.226269
0.226269
0.226269
0.226269
0.226269
0.226269
0.226269
0.226269
0.226269
0.226269
0.226269
0.226269
0.226269
0.226269
0.226269
0.226269
0.226269
0.226269
0.226269
0.226269
0.226269
0.226269
0.226269
0.226269
0.226269
0.226269
0.226269
0.226269
0.226269
0.226269
0.226269
0.226269
0.226269
0.226269
0.226269
0.226269
0.226269
0.226269
0.226269
0.226269
0.226269
0.226269
0.226269
0.226269
0.226269
0.226269
0.226269
0.226269
0.226269
0.226269
0.226269
0.226269
0.226269
0.226269
0.226269
0.226269
0.226269
0.226269
0.226269
0.226269
0.226269
0.226269
0.226269
0.226269
0.226269
0.226269
0.226269
0.226269
0.226269
0.226269
0.226269
0.226269
0.226269
0.226269
0.226269
0.226269
0.226269
0.226269
0.226269
0.226269
0.226269
0.226269
0.226269
0.226269
0.226269
0.226269
0.226269
0.226269
0.226269
0.226269
0.226269
0.226269
0.226269
0.226269
0.226269
0.226269
0.226269
0.226269
0.226269
0.226269
0.226269
0.226269
0.226269
0.226269
0.226269
0.226269
0.226269
0.226269
0.226269
0.226269
0.226269
0.226269
0.226269
0.226269
0.226269
0.226269
0.226269
0.226269
0.226269
0.226269
0.226269
0.226269
0.226269
0.226269
0.226269
0.226269
0.226269
0.226269
0.226269
0.226269
0.226269
0.226269
0.226269
0.226269
0.226269
0.226269
0.226269
0.226269
0.226269
0.226269
0.226269
0.226269
0.226269
0.226269
0.226269
0.226269
0.226269
0.226269
0.226269
0.226269
0.226269
0.226269
0.226269
0.226269
0.226269
0.226269
0.226269
0.226269
0.226269
0.226269
0.226269
0.226269
0.226269
0.226269
0.226269
0.226269
0.226269
0.226269
0.226269
0.226269
0.226269
0.226269
0.226269
0.226269
0.226269
0.226269
0.226269
0.226269
0.226269
0.226269
0.226269
0.226269
0.226269
0.226269
0.226269
0.226269
0.226269
0.226269
0.226269
0.226269
0.226269
0.226269
0.226269
0.226269
0.226269
0.226269
0.226269
0.226269
0.226269
0.226269
0.226269
0.226269
0.226269
0.226269
0.226269
0.226269
0.226269
0.226269
0.226269
0.226269
0.226269
0.226269
0.226269
0.226269
0.226269
0.226269
0.226269
0.226269
0.226269
0.226269
0.226269
0.226269
0.226269
0.226269
0.226269
0.226269
0.226269
0.226269
0.226269
0.226269
0.226269
0.226269
0.226269
0.226269
0.226269
0.226269
0.226269
0.226269
0.226269
0.226269
0.226269
0.226269
0.226269
0.226269
0.22627
0.22627
0.226272
0.226274
0.226277
0.226277
0.226247
0.226083
0.22541
0.223256
0.217807
0.207686
0.194026
0.176763
0.15477
0.12927
0.10444
0.0843575
0.0660852
0.0552251
0.0478687
0.0428889
0.0394583
0.0370211
0.0352201
0.033831
0.0327136
0.0317805
0.0309765
0.0302665
0.0296276
0.0290445
0.0285067
0.0280068
0.0275392
0.0270998
0.0266853
0.0262931
0.025921
0.0255672
0.02523
0.0249082
0.0246004
0.0243058
0.0240235
0.0237529
0.0235016
0.0232625
0.0230307
0.0228057
0.0225871
0.0223745
0.0221677
0.0219662
0.0217699
0.0215785
0.0213916
0.0212092
0.021031
0.0208569
0.0206866
0.02052
0.020357
0.0201974
0.0200412
0.0198882
0.0197382
0.0195913
0.0194474
0.0193062
0.0191678
0.0190321
0.0188989
0.0187683
0.0186402
0.0185144
0.0183909
0.0182697
0.0181506
0.0180337
0.0179188
0.0178059
0.017695
0.0175859
0.0174786
0.0173731
0.0172693
0.0171672
0.0170667
0.0169677
0.0168703
0.0167743
0.0166798
0.0165867
0.0164949
0.0164044
0.0163152
0.0162273
0.0161406
0.016055
0.0159707
0.0158874
0.0158052
0.0157242
0.0156441
0.0155651
0.0154871
0.0154102
0.0153341
0.0152591
0.015185
0.0151118
0.0150395
0.014968
0.0148975
0.0148278
0.0147589
0.0146908
0.0146236
0.0145572
0.0144916
0.0144267
0.0143626
0.0142993
0.0142367
0.0141749
0.0141138
0.0140534
0.0139937
0.0139347
0.0138763
0.0138186
0.0137616
0.0137053
0.0136495
0.0135944
0.0135399
0.013486
0.0134327
0.0133799
0.0133277
0.0132761
0.013225
0.0131744
0.0131243
0.0130748
0.0130257
0.0129771
0.0129289
0.0128812
0.0128339
0.0127871
0.0127407
0.0126947
0.0126491
0.0126038
0.012559
0.0125145
0.0124704
0.0124266
0.0123832
0.0123402
0.0122974
0.012255
0.0122129
0.0121711
0.0121297
0.0120885
0.0120477
0.0120072
0.0119669
0.011927
0.0118873
0.011848
0.0118089
0.0117702
0.0117317
0.0116935
0.0116556
0.011618
0.0115807
0.0115436
0.0115069
0.0114704
0.0114342
0.0113983
0.0113626
0.0113273
0.0112922
0.0112574
0.0112228
0.0111885
0.0111545
0.0111208
0.0110873
0.0110541
0.0110211
0.0109884
0.0109559
0.0109238
0.0108918
0.0108601
0.0108287
0.0107975
0.0107665
0.0107358
0.0107053
0.0106751
0.0106451
0.0106153
0.0105857
0.0105564
0.0105273
0.0104984
0.0104697
0.0104412
0.010413
0.0103849
0.010357
0.0103293
0.0103017
0.0102744
0.0102471
0.0102201
0.0101931
0.0101663
0.0101396
0.010113
0.0100867
0.0100606
0.0100352
0.0100111
0.00998976
0.00997484
)
;

boundaryField
{
    boundary
    {
        type            empty;
    }
    inlet
    {
        type            fixedValue;
        value           uniform 0.226269;
    }
    outlet
    {
        type            zeroGradient;
    }
}


// ************************************************************************* //
