/*--------------------------------*- C++ -*----------------------------------*\
  =========                 |
  \\      /  F ield         | OpenFOAM: The Open Source CFD Toolbox
   \\    /   O peration     | Website:  https://openfoam.org
    \\  /    A nd           | Version:  7
     \\/     M anipulation  |
\*---------------------------------------------------------------------------*/
FoamFile
{
    version     2.0;
    format      ascii;
    class       volScalarField;
    location    "0.00097";
    object      OH;
}
// * * * * * * * * * * * * * * * * * * * * * * * * * * * * * * * * * * * * * //

dimensions      [0 0 0 0 0 0 0];

internalField   nonuniform List<scalar> 
500
(
9.38166e-48
1.82822e-47
2.43685e-47
2.84921e-47
3.12825e-47
3.31743e-47
3.44617e-47
3.53424e-47
3.59495e-47
3.6372e-47
3.66698e-47
3.68828e-47
3.70377e-47
3.71523e-47
3.72383e-47
3.73035e-47
3.73529e-47
3.73901e-47
3.74174e-47
3.74366e-47
3.74489e-47
3.74558e-47
3.74583e-47
3.74577e-47
3.74552e-47
3.74523e-47
3.74501e-47
3.74501e-47
3.74535e-47
3.74616e-47
3.74757e-47
3.74968e-47
3.75258e-47
3.75638e-47
3.76115e-47
3.76697e-47
3.77391e-47
3.78206e-47
3.79148e-47
3.80226e-47
3.8145e-47
3.8283e-47
3.84379e-47
3.8611e-47
3.88038e-47
3.90182e-47
3.92559e-47
3.95189e-47
3.98093e-47
4.01292e-47
4.04808e-47
4.08662e-47
4.12873e-47
4.17461e-47
4.22443e-47
4.27831e-47
4.33635e-47
4.39863e-47
4.46515e-47
4.53588e-47
4.61072e-47
4.68952e-47
4.77206e-47
4.85806e-47
4.94718e-47
5.03901e-47
5.13309e-47
5.22892e-47
5.32593e-47
5.42355e-47
5.52116e-47
5.61815e-47
5.71391e-47
5.80783e-47
5.89935e-47
5.98793e-47
6.07311e-47
6.15445e-47
6.23162e-47
6.30432e-47
6.37237e-47
6.43563e-47
6.49404e-47
6.54761e-47
6.59643e-47
6.64062e-47
6.68035e-47
6.71585e-47
6.74736e-47
6.77516e-47
6.79953e-47
6.82076e-47
6.83913e-47
6.85495e-47
6.86848e-47
6.87999e-47
6.88972e-47
6.89789e-47
6.90473e-47
6.91042e-47
6.91512e-47
6.91899e-47
6.92215e-47
6.92474e-47
6.92683e-47
6.92853e-47
6.92989e-47
6.93099e-47
6.93187e-47
6.93258e-47
6.93315e-47
6.93361e-47
6.93398e-47
6.93429e-47
6.93455e-47
6.93476e-47
6.93495e-47
6.93512e-47
6.93527e-47
6.93541e-47
6.93554e-47
6.93566e-47
6.93574e-47
6.93575e-47
6.93552e-47
6.93514e-47
6.93523e-47
6.93532e-47
6.93543e-47
6.93555e-47
6.9357e-47
6.93587e-47
6.93607e-47
6.93629e-47
6.93653e-47
6.93679e-47
6.93706e-47
6.93736e-47
6.93767e-47
6.93801e-47
6.93836e-47
6.93873e-47
6.93911e-47
6.93949e-47
6.93988e-47
6.94027e-47
6.94065e-47
6.94103e-47
6.94139e-47
6.94175e-47
6.94209e-47
6.94241e-47
6.94273e-47
6.94304e-47
6.94334e-47
6.94364e-47
6.94395e-47
6.94425e-47
6.94457e-47
6.9449e-47
6.94524e-47
6.9456e-47
6.94598e-47
6.94637e-47
6.94678e-47
6.94721e-47
6.94766e-47
6.94812e-47
6.9486e-47
6.94909e-47
6.94958e-47
6.95009e-47
6.95061e-47
6.95113e-47
6.95166e-47
6.95219e-47
6.95272e-47
6.95326e-47
6.9538e-47
6.95435e-47
6.9549e-47
6.95545e-47
6.95601e-47
6.95657e-47
6.95713e-47
6.9577e-47
6.95828e-47
6.95885e-47
6.95944e-47
6.96005e-47
6.96072e-47
6.96159e-47
6.96314e-47
6.96695e-47
6.97831e-47
7.01476e-47
7.13418e-47
7.52688e-47
8.81609e-47
1.30347e-46
2.67886e-46
7.14637e-46
2.16048e-45
6.82312e-45
2.18078e-44
6.98058e-44
2.23059e-43
7.10884e-43
2.25915e-42
7.15938e-42
2.26273e-41
7.13306e-41
2.24318e-40
7.03813e-40
2.20353e-39
6.88507e-39
2.14727e-38
6.68518e-38
2.078e-37
6.44967e-37
1.99914e-36
6.1889e-36
1.91379e-35
5.91192e-35
1.82455e-34
5.62619e-34
1.73354e-33
5.33753e-33
1.64233e-32
5.05029e-32
1.55212e-31
4.76764e-31
1.46377e-30
4.49209e-30
1.37803e-29
4.22612e-29
1.29582e-28
3.97325e-28
1.21857e-27
3.73961e-27
1.14896e-26
3.53699e-26
1.09222e-25
3.38885e-25
1.0589e-24
3.34268e-24
1.07047e-23
3.4958e-23
1.17112e-22
4.04925e-22
1.45242e-21
5.45051e-21
2.12148e-20
8.55092e-20
3.55597e-19
1.51701e-18
6.6004e-18
2.914e-17
1.30008e-16
5.84347e-16
2.64002e-15
1.19695e-14
5.43982e-14
2.47616e-13
1.12826e-12
5.14398e-12
2.34595e-11
1.06998e-10
4.92992e-10
2.29502e-09
1.07566e-08
5.08532e-08
2.47596e-07
1.31715e-06
8.2601e-06
5.62959e-05
0.000280006
0.000640577
0.000838592
0.00102224
0.00148443
0.00238083
0.00363322
0.00501459
0.00647608
0.007604
0.00850893
0.00921927
0.00977239
0.010204
0.0105434
0.0108125
0.0110279
0.0112016
0.0113423
0.0114568
0.0115499
0.0116255
0.0116864
0.011735
0.0117732
0.0118025
0.0118242
0.0118393
0.0118487
0.0118531
0.0118532
0.0118494
0.0118423
0.0118321
0.0118194
0.0118043
0.0117878
0.0117699
0.0117507
0.01173
0.0117081
0.0116851
0.0116611
0.0116361
0.0116102
0.0115836
0.0115562
0.0115282
0.0114997
0.0114706
0.011441
0.011411
0.0113806
0.0113499
0.011319
0.0112877
0.0112563
0.0112247
0.0111929
0.011161
0.0111289
0.0110968
0.0110647
0.0110325
0.0110003
0.0109681
0.0109359
0.0109038
0.0108716
0.0108396
0.0108076
0.0107756
0.0107437
0.010712
0.0106803
0.0106487
0.0106172
0.0105858
0.0105545
0.0105233
0.0104923
0.0104613
0.0104305
0.0103998
0.0103693
0.0103388
0.0103085
0.0102783
0.0102483
0.0102184
0.0101886
0.010159
0.0101295
0.0101002
0.010071
0.0100419
0.010013
0.00998427
0.00995566
0.00992719
0.00989884
0.0098706
0.00984251
0.00981458
0.0097868
0.00975916
0.00973169
0.00970436
0.00967719
0.00965017
0.00962331
0.0095966
0.00957005
0.00954365
0.00951741
0.00949133
0.0094654
0.00943963
0.00941401
0.00938855
0.00936325
0.0093381
0.00931311
0.00928827
0.00926358
0.00923904
0.00921465
0.00919042
0.00916632
0.00914238
0.00911858
0.00909492
0.0090714
0.00904802
0.00902478
0.00900167
0.00897869
0.00895585
0.00893313
0.00891054
0.00888808
0.00886573
0.00884351
0.00882141
0.00879942
0.00877755
0.0087558
0.00873415
0.00871262
0.0086912
0.00866988
0.00864868
0.00862758
0.00860659
0.0085857
0.00856493
0.00854425
0.00852368
0.00850322
0.00848286
0.0084626
0.00844245
0.0084224
0.00840246
0.00838262
0.00836289
0.00834327
0.00832374
0.00830433
0.00828502
0.00826582
0.00824672
0.00822773
0.00820884
0.00819006
0.00817139
0.00815282
0.00813436
0.008116
0.00809775
0.00807961
0.00806157
0.00804364
0.00802582
0.0080081
0.00799048
0.00797297
0.00795556
0.00793826
0.00792106
0.00790397
0.00788698
0.00787009
0.00785331
0.00783663
0.00782006
0.00780359
0.00778722
0.00777095
0.00775479
0.00773873
0.00772278
0.00770692
0.00769118
0.00767553
0.00766
0.00764456
0.00762924
0.00761403
0.00759894
0.00758397
0.00756912
0.00755442
0.00753988
0.00752552
0.00751138
0.00749752
0.007484
0.00747095
0.00745853
0.00744702
0.00743682
0.00742858
0.00742339
)
;

boundaryField
{
    boundary
    {
        type            empty;
    }
    inlet
    {
        type            fixedValue;
        value           uniform 0;
    }
    outlet
    {
        type            zeroGradient;
    }
}


// ************************************************************************* //
