/*--------------------------------*- C++ -*----------------------------------*\
  =========                 |
  \\      /  F ield         | OpenFOAM: The Open Source CFD Toolbox
   \\    /   O peration     | Website:  https://openfoam.org
    \\  /    A nd           | Version:  7
     \\/     M anipulation  |
\*---------------------------------------------------------------------------*/
FoamFile
{
    version     2.0;
    format      ascii;
    class       volScalarField;
    location    "0.00097";
    object      Qdot;
}
// * * * * * * * * * * * * * * * * * * * * * * * * * * * * * * * * * * * * * //

dimensions      [1 -1 -3 0 0 0 0];

internalField   nonuniform List<scalar> 
500
(
-2.45193e-27
-1.86213e-27
-1.73507e-27
-1.7079e-27
-1.70234e-27
-1.70149e-27
-1.70166e-27
-1.70205e-27
-1.70246e-27
-1.70282e-27
-1.70312e-27
-1.70335e-27
-1.70348e-27
-1.70349e-27
-1.70338e-27
-1.70312e-27
-1.70269e-27
-1.7021e-27
-1.70133e-27
-1.70039e-27
-1.69929e-27
-1.69804e-27
-1.69668e-27
-1.69523e-27
-1.69374e-27
-1.69224e-27
-1.69078e-27
-1.6894e-27
-1.68816e-27
-1.68709e-27
-1.68624e-27
-1.68565e-27
-1.68534e-27
-1.68536e-27
-1.68573e-27
-1.68647e-27
-1.68761e-27
-1.68918e-27
-1.69121e-27
-1.69371e-27
-1.69672e-27
-1.70029e-27
-1.70444e-27
-1.70922e-27
-1.71469e-27
-1.7209e-27
-1.72792e-27
-1.73581e-27
-1.74463e-27
-1.75447e-27
-1.76538e-27
-1.77743e-27
-1.79069e-27
-1.80522e-27
-1.82106e-27
-1.83826e-27
-1.85685e-27
-1.87682e-27
-1.8982e-27
-1.92094e-27
-1.94502e-27
-1.97037e-27
-1.99691e-27
-2.02456e-27
-2.05317e-27
-2.08262e-27
-2.11276e-27
-2.1434e-27
-2.17437e-27
-2.20548e-27
-2.23652e-27
-2.2673e-27
-2.29763e-27
-2.32732e-27
-2.35618e-27
-2.38406e-27
-2.4108e-27
-2.43629e-27
-2.46042e-27
-2.48311e-27
-2.5043e-27
-2.52396e-27
-2.54208e-27
-2.55867e-27
-2.57376e-27
-2.58739e-27
-2.59963e-27
-2.61055e-27
-2.62023e-27
-2.62876e-27
-2.63622e-27
-2.64271e-27
-2.64833e-27
-2.65316e-27
-2.65729e-27
-2.66079e-27
-2.66376e-27
-2.66625e-27
-2.66832e-27
-2.67005e-27
-2.67148e-27
-2.67266e-27
-2.67362e-27
-2.67441e-27
-2.67504e-27
-2.67556e-27
-2.67597e-27
-2.67631e-27
-2.67658e-27
-2.6768e-27
-2.67697e-27
-2.67711e-27
-2.67723e-27
-2.67733e-27
-2.67741e-27
-2.67748e-27
-2.67754e-27
-2.6776e-27
-2.67765e-27
-2.67769e-27
-2.67774e-27
-2.67778e-27
-2.67783e-27
-2.67787e-27
-2.67791e-27
-2.67795e-27
-2.67798e-27
-2.67801e-27
-2.67804e-27
-2.67808e-27
-2.67813e-27
-2.67819e-27
-2.67825e-27
-2.67832e-27
-2.6784e-27
-2.67849e-27
-2.67858e-27
-2.67867e-27
-2.67878e-27
-2.67889e-27
-2.679e-27
-2.67912e-27
-2.67924e-27
-2.67937e-27
-2.67949e-27
-2.67962e-27
-2.67974e-27
-2.67986e-27
-2.67998e-27
-2.68009e-27
-2.68019e-27
-2.68029e-27
-2.68039e-27
-2.68048e-27
-2.68057e-27
-2.68066e-27
-2.68075e-27
-2.68083e-27
-2.68093e-27
-2.68102e-27
-2.68112e-27
-2.68122e-27
-2.68132e-27
-2.68144e-27
-2.68156e-27
-2.68168e-27
-2.68181e-27
-2.68194e-27
-2.68208e-27
-2.68223e-27
-2.68238e-27
-2.68253e-27
-2.68268e-27
-2.68284e-27
-2.683e-27
-2.68317e-27
-2.68333e-27
-2.6835e-27
-2.68367e-27
-2.68384e-27
-2.68401e-27
-2.68419e-27
-2.68436e-27
-2.68454e-27
-2.68472e-27
-2.6849e-27
-2.68508e-27
-2.68526e-27
-2.68544e-27
-2.68563e-27
-2.68581e-27
-2.686e-27
-2.68618e-27
-2.68637e-27
-2.68655e-27
-2.68673e-27
-2.68692e-27
-2.6871e-27
-2.68727e-27
-2.68745e-27
-2.68762e-27
-2.68779e-27
-2.68795e-27
-2.6881e-27
-2.68824e-27
-2.68833e-27
-2.68829e-27
-2.68785e-27
-2.68616e-27
-2.68053e-27
-2.66247e-27
-2.6054e-27
-2.4259e-27
-1.86316e-27
-1.03017e-28
5.39125e-27
2.25104e-26
7.57615e-26
2.41151e-25
7.54102e-25
2.34295e-24
7.25857e-24
2.24503e-23
6.93546e-23
2.14042e-22
6.59999e-22
2.03351e-21
6.2609e-21
1.92636e-20
5.92337e-20
1.82032e-19
5.59101e-19
1.71636e-18
5.26642e-18
1.61522e-17
4.95192e-17
1.51767e-16
4.65032e-16
1.42481e-15
4.36612e-15
1.33856e-14
4.10754e-14
1.26248e-13
3.89037e-13
1.20361e-12
3.74594e-12
1.17598e-11
3.7376e-11
1.20829e-10
3.99551e-10
1.35973e-09
4.81481e-09
1.76682e-08
6.73662e-08
2.66835e-07
1.09378e-06
4.61404e-06
1.99116e-05
8.74293e-05
0.000388889
0.00174659
0.00790346
0.0359911
0.164906
0.760847
3.54194
16.6951
84.3054
466.115
3072.38
23448.7
192794
1.76675e+06
1.6828e+07
1.53967e+08
1.138e+09
4.89924e+09
1.05775e+10
1.34121e+10
1.38696e+10
1.39141e+10
1.37634e+10
1.29106e+10
1.12094e+10
9.1745e+09
7.45003e+09
6.14235e+09
5.13932e+09
4.37607e+09
3.78805e+09
3.32652e+09
2.95695e+09
2.6553e+09
2.4048e+09
2.19363e+09
2.01327e+09
1.85752e+09
1.72172e+09
1.60232e+09
1.49659e+09
1.40235e+09
1.31789e+09
1.24181e+09
1.17296e+09
1.1104e+09
1.05334e+09
1.00111e+09
9.53156e+08
9.09003e+08
8.68244e+08
8.30544e+08
7.95666e+08
7.64179e+08
7.35274e+08
7.08023e+08
6.82375e+08
6.5819e+08
6.35337e+08
6.13719e+08
5.93244e+08
5.73825e+08
5.55388e+08
5.37864e+08
5.21191e+08
5.05312e+08
4.90175e+08
4.75731e+08
4.61938e+08
4.48756e+08
4.36146e+08
4.24075e+08
4.12512e+08
4.01427e+08
3.90794e+08
3.80586e+08
3.70782e+08
3.61359e+08
3.52297e+08
3.43577e+08
3.35182e+08
3.27095e+08
3.193e+08
3.11784e+08
3.04532e+08
2.97531e+08
2.90771e+08
2.84239e+08
2.77925e+08
2.7182e+08
2.65913e+08
2.60195e+08
2.54659e+08
2.49296e+08
2.44099e+08
2.39062e+08
2.34176e+08
2.29436e+08
2.24836e+08
2.20371e+08
2.16034e+08
2.11821e+08
2.07727e+08
2.03747e+08
1.99877e+08
1.96113e+08
1.92451e+08
1.88887e+08
1.85418e+08
1.8204e+08
1.78749e+08
1.75544e+08
1.72421e+08
1.69378e+08
1.66413e+08
1.63527e+08
1.6072e+08
1.57981e+08
1.55291e+08
1.52661e+08
1.50094e+08
1.47588e+08
1.4514e+08
1.42748e+08
1.40411e+08
1.38128e+08
1.35896e+08
1.33713e+08
1.31579e+08
1.29492e+08
1.2745e+08
1.25452e+08
1.23498e+08
1.21585e+08
1.19712e+08
1.17879e+08
1.16083e+08
1.14325e+08
1.12603e+08
1.10916e+08
1.09263e+08
1.07643e+08
1.06056e+08
1.04499e+08
1.02974e+08
1.01478e+08
1.00011e+08
9.85719e+07
9.71605e+07
9.57758e+07
9.4417e+07
9.30837e+07
9.17751e+07
9.04902e+07
8.92292e+07
8.79909e+07
8.6775e+07
8.55808e+07
8.44078e+07
8.32555e+07
8.21234e+07
8.1011e+07
7.99179e+07
7.88435e+07
7.77875e+07
7.67494e+07
7.57288e+07
7.47253e+07
7.37385e+07
7.27683e+07
7.18137e+07
7.08749e+07
6.99513e+07
6.90427e+07
6.81487e+07
6.72691e+07
6.64034e+07
6.55514e+07
6.47129e+07
6.38875e+07
6.30751e+07
6.22752e+07
6.14876e+07
6.07122e+07
5.99487e+07
5.91968e+07
5.84563e+07
5.77271e+07
5.70079e+07
5.63005e+07
5.56036e+07
5.49168e+07
5.42402e+07
5.35734e+07
5.29164e+07
5.2269e+07
5.16309e+07
5.10022e+07
5.03819e+07
4.97711e+07
4.91689e+07
4.85751e+07
4.79898e+07
4.74127e+07
4.68436e+07
4.62825e+07
4.57292e+07
4.51836e+07
4.46455e+07
4.41147e+07
4.35913e+07
4.30749e+07
4.25656e+07
4.20632e+07
4.15676e+07
4.10786e+07
4.05962e+07
4.01203e+07
3.96507e+07
3.91873e+07
3.87301e+07
3.82789e+07
3.78337e+07
3.73944e+07
3.69608e+07
3.6533e+07
3.61107e+07
3.5694e+07
3.52826e+07
3.48769e+07
3.44762e+07
3.40805e+07
3.36901e+07
3.33045e+07
3.29234e+07
3.25463e+07
3.21727e+07
3.18025e+07
3.14371e+07
3.10882e+07
3.08201e+07
)
;

boundaryField
{
    boundary
    {
        type            empty;
    }
    inlet
    {
        type            calculated;
        value           uniform 0;
    }
    outlet
    {
        type            calculated;
        value           uniform 0;
    }
}


// ************************************************************************* //
