/*--------------------------------*- C++ -*----------------------------------*\
  =========                 |
  \\      /  F ield         | OpenFOAM: The Open Source CFD Toolbox
   \\    /   O peration     | Website:  https://openfoam.org
    \\  /    A nd           | Version:  7
     \\/     M anipulation  |
\*---------------------------------------------------------------------------*/
FoamFile
{
    version     2.0;
    format      ascii;
    class       volScalarField;
    location    "0.00097";
    object      rho;
}
// * * * * * * * * * * * * * * * * * * * * * * * * * * * * * * * * * * * * * //

dimensions      [1 -3 0 0 0 0 0];

internalField   nonuniform List<scalar> 
500
(
0.864767
0.864767
0.864767
0.864765
0.864764
0.864761
0.864759
0.864756
0.864754
0.864752
0.86475
0.864749
0.864748
0.864748
0.864749
0.86475
0.864752
0.864756
0.86476
0.864765
0.864771
0.864778
0.864786
0.864794
0.864803
0.864811
0.864819
0.864827
0.864834
0.86484
0.864845
0.864849
0.86485
0.86485
0.864848
0.864844
0.864838
0.864829
0.864818
0.864804
0.864787
0.864767
0.864744
0.864717
0.864687
0.864652
0.864613
0.86457
0.864521
0.864468
0.864409
0.864344
0.864273
0.864195
0.864112
0.864022
0.863926
0.863824
0.863716
0.863602
0.863483
0.863359
0.863231
0.863099
0.862965
0.862828
0.862691
0.862553
0.862415
0.862279
0.862145
0.862014
0.861886
0.861763
0.861644
0.861531
0.861424
0.861323
0.861228
0.861139
0.861057
0.860982
0.860913
0.86085
0.860793
0.860742
0.860696
0.860656
0.86062
0.860588
0.86056
0.860537
0.860516
0.860498
0.860483
0.86047
0.860459
0.86045
0.860443
0.860436
0.860431
0.860427
0.860423
0.86042
0.860418
0.860416
0.860415
0.860414
0.860413
0.860412
0.860411
0.860411
0.86041
0.86041
0.86041
0.86041
0.860409
0.860409
0.860409
0.860409
0.860409
0.860409
0.860409
0.860409
0.860409
0.860408
0.860408
0.860408
0.860408
0.860408
0.860408
0.860408
0.860408
0.860408
0.860407
0.860407
0.860407
0.860406
0.860406
0.860406
0.860405
0.860405
0.860405
0.860404
0.860404
0.860404
0.860403
0.860403
0.860402
0.860402
0.860402
0.860401
0.860401
0.860401
0.860401
0.8604
0.8604
0.8604
0.8604
0.860399
0.860399
0.860399
0.860398
0.860398
0.860398
0.860397
0.860397
0.860396
0.860396
0.860396
0.860395
0.860395
0.860394
0.860394
0.860393
0.860393
0.860392
0.860391
0.860391
0.86039
0.86039
0.860389
0.860389
0.860388
0.860388
0.860387
0.860386
0.860386
0.860385
0.860385
0.860384
0.860383
0.860383
0.860382
0.860382
0.860381
0.86038
0.86038
0.860379
0.860379
0.860378
0.860378
0.860377
0.860377
0.860376
0.860376
0.860375
0.860375
0.860374
0.860374
0.860374
0.860373
0.860373
0.860373
0.860373
0.860373
0.860372
0.860372
0.860372
0.860372
0.860372
0.860373
0.860373
0.860373
0.860373
0.860374
0.860374
0.860375
0.860376
0.860376
0.860377
0.860378
0.860379
0.86038
0.860381
0.860382
0.860384
0.860385
0.860387
0.860388
0.86039
0.860392
0.860394
0.860396
0.860398
0.8604
0.860403
0.860406
0.860408
0.860411
0.860415
0.860418
0.860421
0.860425
0.860429
0.860432
0.860436
0.86044
0.860444
0.860449
0.860453
0.860458
0.860463
0.860469
0.860475
0.86048
0.860482
0.860469
0.860405
0.860177
0.859438
0.857168
0.850419
0.831192
0.781545
0.68078
0.545514
0.427303
0.346977
0.294552
0.258533
0.232911
0.214954
0.201695
0.191559
0.184316
0.178997
0.174753
0.171289
0.168397
0.165934
0.163804
0.161936
0.160282
0.158803
0.15747
0.156261
0.155157
0.154144
0.153211
0.152348
0.151546
0.150799
0.1501
0.149445
0.14883
0.14825
0.147703
0.147186
0.146695
0.146231
0.14579
0.145383
0.145002
0.144635
0.144281
0.143941
0.143613
0.143297
0.142992
0.142697
0.142412
0.142136
0.141868
0.141609
0.141358
0.141115
0.140878
0.140649
0.140425
0.140208
0.139997
0.139792
0.139591
0.139396
0.139206
0.139021
0.13884
0.138664
0.138492
0.138323
0.138159
0.137998
0.137841
0.137688
0.137537
0.13739
0.137246
0.137105
0.136967
0.136832
0.136699
0.136569
0.136442
0.136317
0.136194
0.136074
0.135956
0.13584
0.135726
0.135615
0.135505
0.135397
0.135291
0.135187
0.135085
0.134984
0.134885
0.134788
0.134692
0.134598
0.134505
0.134414
0.134324
0.134236
0.13415
0.134065
0.13398
0.133897
0.133815
0.133734
0.133655
0.133576
0.133499
0.133422
0.133347
0.133273
0.1332
0.133128
0.133056
0.132986
0.132917
0.132848
0.132781
0.132714
0.132648
0.132583
0.132519
0.132456
0.132393
0.132331
0.13227
0.13221
0.13215
0.132091
0.132033
0.131975
0.131918
0.131862
0.131807
0.131752
0.131697
0.131644
0.131591
0.131538
0.131486
0.131435
0.131384
0.131334
0.131284
0.131235
0.131187
0.131139
0.131091
0.131045
0.130998
0.130952
0.130907
0.130862
0.130817
0.130773
0.13073
0.130687
0.130644
0.130602
0.13056
0.130519
0.130478
0.130437
0.130397
0.130357
0.130318
0.130279
0.130241
0.130202
0.130165
0.130127
0.13009
0.130053
0.130017
0.12998
0.129945
0.129909
0.129874
0.129839
0.129805
0.12977
0.129737
0.129703
0.12967
0.129637
0.129604
0.129571
0.129539
0.129507
0.129475
0.129444
0.129413
0.129382
0.129351
0.129321
0.129291
0.129261
0.129231
0.129202
0.129172
0.129143
0.129115
0.129086
0.129058
0.12903
0.129002
0.128974
0.128946
0.128919
0.128892
0.128865
0.128838
0.128811
0.128784
0.128758
0.128731
0.128705
0.128678
0.128652
0.128625
0.128599
0.128574
0.128552
0.128537
)
;

boundaryField
{
    boundary
    {
        type            empty;
    }
    inlet
    {
        type            calculated;
        value           uniform 0.864767;
    }
    outlet
    {
        type            calculated;
        value           uniform 0.128537;
    }
}


// ************************************************************************* //
