/*--------------------------------*- C++ -*----------------------------------*\
  =========                 |
  \\      /  F ield         | OpenFOAM: The Open Source CFD Toolbox
   \\    /   O peration     | Website:  https://openfoam.org
    \\  /    A nd           | Version:  7
     \\/     M anipulation  |
\*---------------------------------------------------------------------------*/
FoamFile
{
    version     2.0;
    format      ascii;
    class       volScalarField;
    location    "0.00097";
    object      T;
}
// * * * * * * * * * * * * * * * * * * * * * * * * * * * * * * * * * * * * * //

dimensions      [0 0 0 1 0 0 0];

internalField   nonuniform List<scalar> 
500
(
300
300
300
300.001
300.001
300.002
300.003
300.004
300.005
300.005
300.006
300.006
300.007
300.007
300.006
300.006
300.005
300.004
300.003
300.001
299.999
299.996
299.994
299.991
299.988
299.985
299.982
299.979
299.977
299.975
299.973
299.972
299.971
299.971
299.972
299.973
299.976
299.979
299.983
299.987
299.993
300
300.008
300.018
300.028
300.04
300.054
300.069
300.086
300.104
300.125
300.147
300.172
300.199
300.228
300.259
300.292
300.328
300.366
300.405
300.447
300.49
300.534
300.58
300.627
300.674
300.722
300.771
300.819
300.866
300.913
300.959
301.003
301.046
301.088
301.127
301.165
301.2
301.233
301.264
301.293
301.32
301.344
301.366
301.386
301.404
301.42
301.434
301.446
301.458
301.467
301.476
301.483
301.489
301.494
301.499
301.503
301.506
301.509
301.511
301.513
301.514
301.515
301.516
301.517
301.518
301.518
301.519
301.519
301.52
301.52
301.52
301.52
301.52
301.52
301.52
301.52
301.521
301.521
301.521
301.521
301.521
301.521
301.521
301.521
301.521
301.521
301.521
301.521
301.521
301.521
301.521
301.521
301.521
301.522
301.522
301.522
301.522
301.522
301.522
301.522
301.522
301.523
301.523
301.523
301.523
301.523
301.523
301.524
301.524
301.524
301.524
301.524
301.524
301.524
301.524
301.524
301.525
301.525
301.525
301.525
301.525
301.525
301.525
301.525
301.526
301.526
301.526
301.526
301.526
301.527
301.527
301.527
301.527
301.527
301.527
301.528
301.528
301.528
301.528
301.529
301.529
301.529
301.529
301.529
301.53
301.53
301.53
301.53
301.531
301.531
301.531
301.531
301.531
301.532
301.532
301.532
301.532
301.533
301.533
301.533
301.533
301.533
301.534
301.534
301.534
301.534
301.534
301.535
301.535
301.535
301.535
301.535
301.535
301.535
301.535
301.535
301.535
301.535
301.535
301.535
301.535
301.535
301.535
301.535
301.535
301.535
301.535
301.535
301.534
301.534
301.534
301.533
301.533
301.533
301.532
301.532
301.531
301.531
301.53
301.53
301.529
301.528
301.528
301.527
301.526
301.525
301.524
301.523
301.522
301.521
301.52
301.519
301.518
301.517
301.515
301.514
301.512
301.511
301.51
301.508
301.506
301.505
301.503
301.502
301.502
301.506
301.519
301.559
301.676
302.011
302.969
305.699
313.438
334.7
386.89
487.575
629.735
784.987
935.552
1076.86
1205.01
1313.43
1406
1484.26
1546.43
1595.83
1637.76
1673.82
1705.33
1733.22
1758.18
1780.73
1801.25
1820.05
1837.37
1853.4
1868.3
1882.21
1895.23
1907.46
1918.98
1929.85
1940.14
1949.89
1959.16
1967.98
1976.38
1984.41
1992.07
1999.41
2006.41
2012.94
2019.09
2025.06
2030.83
2036.42
2041.84
2047.1
2052.21
2057.17
2061.99
2066.68
2071.24
2075.68
2080.01
2084.23
2088.34
2092.35
2096.26
2100.08
2103.81
2107.45
2111.02
2114.5
2117.91
2121.24
2124.51
2127.71
2130.84
2133.9
2136.91
2139.86
2142.75
2145.59
2148.37
2151.1
2153.78
2156.41
2159
2161.54
2164.03
2166.48
2168.89
2171.26
2173.59
2175.89
2178.14
2180.36
2182.54
2184.69
2186.81
2188.89
2190.94
2192.96
2194.95
2196.91
2198.84
2200.75
2202.62
2204.47
2206.29
2208.09
2209.86
2211.59
2213.3
2214.99
2216.67
2218.33
2219.97
2221.58
2223.17
2224.75
2226.3
2227.84
2229.35
2230.85
2232.33
2233.79
2235.23
2236.66
2238.07
2239.46
2240.84
2242.2
2243.54
2244.87
2246.19
2247.49
2248.78
2250.05
2251.31
2252.56
2253.79
2255.01
2256.22
2257.41
2258.59
2259.76
2260.92
2262.06
2263.19
2264.32
2265.42
2266.52
2267.61
2268.69
2269.75
2270.8
2271.85
2272.88
2273.9
2274.92
2275.92
2276.91
2277.89
2278.87
2279.83
2280.78
2281.73
2282.66
2283.59
2284.51
2285.41
2286.31
2287.2
2288.09
2288.96
2289.83
2290.69
2291.54
2292.38
2293.22
2294.04
2294.87
2295.68
2296.49
2297.28
2298.08
2298.86
2299.64
2300.41
2301.18
2301.94
2302.69
2303.44
2304.18
2304.91
2305.64
2306.36
2307.08
2307.79
2308.5
2309.19
2309.89
2310.58
2311.26
2311.94
2312.61
2313.28
2313.94
2314.6
2315.25
2315.9
2316.54
2317.18
2317.81
2318.44
2319.06
2319.68
2320.3
2320.91
2321.51
2322.11
2322.71
2323.3
2323.89
2324.48
2325.06
2325.63
2326.21
2326.77
2327.34
2327.9
2328.45
2328.99
2329.52
2330.02
2330.45
2330.73
)
;

boundaryField
{
    boundary
    {
        type            empty;
    }
    inlet
    {
        type            fixedValue;
        value           uniform 300;
    }
    outlet
    {
        type            zeroGradient;
    }
}


// ************************************************************************* //
