/*--------------------------------*- C++ -*----------------------------------*\
  =========                 |
  \\      /  F ield         | OpenFOAM: The Open Source CFD Toolbox
   \\    /   O peration     | Website:  https://openfoam.org
    \\  /    A nd           | Version:  7
     \\/     M anipulation  |
\*---------------------------------------------------------------------------*/
FoamFile
{
    version     2.0;
    format      ascii;
    class       volScalarField;
    location    "0.00091";
    object      T;
}
// * * * * * * * * * * * * * * * * * * * * * * * * * * * * * * * * * * * * * //

dimensions      [0 0 0 1 0 0 0];

internalField   nonuniform List<scalar> 
125
(
300.001
300.002
300.003
300.004
300.005
300.006
300.006
300.007
300.007
300.007
300.007
300.007
300.006
300.005
300.003
300.001
299.999
299.996
299.993
299.99
299.987
299.983
299.98
299.977
299.974
299.972
299.97
299.968
299.968
299.967
299.968
299.97
299.972
299.975
299.979
299.984
299.99
299.997
300.005
300.014
300.025
300.037
300.05
300.065
300.082
300.101
300.121
300.144
300.169
300.196
300.226
300.258
300.292
300.329
300.368
300.409
300.452
300.496
300.542
300.59
300.638
300.688
300.737
300.787
300.836
300.885
300.933
300.979
301.025
301.068
301.11
301.15
301.187
301.222
301.255
301.285
301.313
301.338
301.362
301.382
301.401
301.418
301.433
301.446
301.457
301.467
301.476
301.483
301.489
301.495
301.499
301.503
301.506
301.509
301.511
301.513
301.514
301.515
301.516
301.517
301.518
301.518
301.518
301.519
301.519
301.519
301.519
301.519
301.52
301.52
301.52
301.52
301.52
301.52
301.52
301.52
301.52
301.52
301.52
301.52
301.52
301.52
301.52
301.52
301.52
)
;

boundaryField
{
    boundary
    {
        type            empty;
    }
    inlet
    {
        type            fixedValue;
        value           uniform 300;
    }
    outlet
    {
        type            zeroGradient;
    }
    procBoundary2to3
    {
        type            processor;
        value           uniform 301.52;
    }
}


// ************************************************************************* //
