/*--------------------------------*- C++ -*----------------------------------*\
  =========                 |
  \\      /  F ield         | OpenFOAM: The Open Source CFD Toolbox
   \\    /   O peration     | Website:  https://openfoam.org
    \\  /    A nd           | Version:  7
     \\/     M anipulation  |
\*---------------------------------------------------------------------------*/
FoamFile
{
    version     2.0;
    format      ascii;
    class       volScalarField;
    location    "0.00052";
    object      HO2;
}
// * * * * * * * * * * * * * * * * * * * * * * * * * * * * * * * * * * * * * //

dimensions      [0 0 0 0 0 0 0];

internalField   nonuniform List<scalar> 
125
(
1.3479e-19
5.74969e-19
2.44536e-18
1.03886e-17
4.4101e-17
1.87092e-16
7.93228e-16
3.36122e-15
1.42355e-14
6.02628e-14
2.55001e-13
1.0786e-12
4.56046e-12
1.9274e-11
8.14195e-11
3.4375e-10
1.45031e-09
6.11375e-09
2.57435e-08
1.08167e-07
4.52664e-07
1.87474e-06
7.60859e-06
2.95188e-05
0.000103491
0.000288037
0.000493473
0.000507148
0.000414946
0.000303413
0.000213849
0.000149787
0.000104676
7.34479e-05
5.281e-05
3.6954e-05
2.82532e-05
2.26487e-05
1.89428e-05
1.6403e-05
1.45878e-05
1.32334e-05
1.21813e-05
1.1335e-05
1.0634e-05
1.00396e-05
9.5261e-06
9.07585e-06
8.67643e-06
8.31874e-06
7.99593e-06
7.7027e-06
7.4349e-06
7.18916e-06
6.96275e-06
6.7534e-06
6.55919e-06
6.37854e-06
6.21009e-06
6.05272e-06
5.90553e-06
5.77188e-06
5.64768e-06
5.52981e-06
5.41781e-06
5.31126e-06
5.20975e-06
5.11295e-06
5.02053e-06
4.93222e-06
4.84774e-06
4.76686e-06
4.68936e-06
4.61505e-06
4.54372e-06
4.47521e-06
4.40937e-06
4.34604e-06
4.28509e-06
4.22639e-06
4.16983e-06
4.11528e-06
4.06266e-06
4.01185e-06
3.96278e-06
3.91535e-06
3.86949e-06
3.82512e-06
3.78217e-06
3.74057e-06
3.70026e-06
3.66119e-06
3.62329e-06
3.58651e-06
3.55081e-06
3.51614e-06
3.48245e-06
3.44971e-06
3.41787e-06
3.38689e-06
3.35675e-06
3.32741e-06
3.29884e-06
3.27101e-06
3.24389e-06
3.21746e-06
3.19168e-06
3.16655e-06
3.14203e-06
3.11811e-06
3.09476e-06
3.07197e-06
3.04972e-06
3.02798e-06
3.00675e-06
2.98601e-06
2.96574e-06
2.94593e-06
2.92657e-06
2.90763e-06
2.8891e-06
2.87098e-06
2.85324e-06
2.83587e-06
2.81885e-06
)
;

boundaryField
{
    boundary
    {
        type            empty;
    }
    inlet
    {
        type            fixedValue;
        value           nonuniform 0();
    }
    outlet
    {
        type            zeroGradient;
    }
    procBoundary1to0
    {
        type            processor;
        value           uniform 2.80218e-06;
    }
    procBoundary1to3
    {
        type            processor;
        value           uniform 3.14609e-20;
    }
}


// ************************************************************************* //
