/*--------------------------------*- C++ -*----------------------------------*\
  =========                 |
  \\      /  F ield         | OpenFOAM: The Open Source CFD Toolbox
   \\    /   O peration     | Website:  https://openfoam.org
    \\  /    A nd           | Version:  7
     \\/     M anipulation  |
\*---------------------------------------------------------------------------*/
FoamFile
{
    version     2.0;
    format      ascii;
    class       volVectorField;
    location    "0.00052";
    object      U;
}
// * * * * * * * * * * * * * * * * * * * * * * * * * * * * * * * * * * * * * //

dimensions      [0 1 -1 0 0 0 0];

internalField   nonuniform List<vector> 
125
(
(2.35316 0 0)
(2.35319 0 0)
(2.35321 0 0)
(2.35323 0 0)
(2.35325 0 0)
(2.35327 0 0)
(2.35329 0 0)
(2.35331 0 0)
(2.35333 0 0)
(2.35335 0 0)
(2.35337 0 0)
(2.35339 0 0)
(2.35341 0 0)
(2.35343 0 0)
(2.35345 0 0)
(2.35347 0 0)
(2.35349 0 0)
(2.35353 0 0)
(2.35365 0 0)
(2.35401 0 0)
(2.35519 0 0)
(2.35887 0 0)
(2.36968 0 0)
(2.39881 0 0)
(2.47075 0 0)
(2.63888 0 0)
(3.00471 0 0)
(3.74435 0 0)
(4.84508 0 0)
(6.08518 0 0)
(7.26903 0 0)
(8.32312 0 0)
(9.23174 0 0)
(9.99215 0 0)
(10.623 0 0)
(11.1471 0 0)
(11.5703 0 0)
(11.9056 0 0)
(12.1802 0 0)
(12.4153 0 0)
(12.6211 0 0)
(12.803 0 0)
(12.9652 0 0)
(13.1112 0 0)
(13.2436 0 0)
(13.3646 0 0)
(13.4758 0 0)
(13.5784 0 0)
(13.6736 0 0)
(13.7622 0 0)
(13.845 0 0)
(13.9226 0 0)
(13.9954 0 0)
(14.0641 0 0)
(14.129 0 0)
(14.1903 0 0)
(14.2485 0 0)
(14.3037 0 0)
(14.3563 0 0)
(14.4062 0 0)
(14.4539 0 0)
(14.4981 0 0)
(14.5394 0 0)
(14.5795 0 0)
(14.6182 0 0)
(14.6556 0 0)
(14.6917 0 0)
(14.7266 0 0)
(14.7604 0 0)
(14.7932 0 0)
(14.825 0 0)
(14.8558 0 0)
(14.8857 0 0)
(14.9148 0 0)
(14.9431 0 0)
(14.9705 0 0)
(14.9973 0 0)
(15.0233 0 0)
(15.0487 0 0)
(15.0734 0 0)
(15.0975 0 0)
(15.121 0 0)
(15.1439 0 0)
(15.1663 0 0)
(15.1882 0 0)
(15.2095 0 0)
(15.2304 0 0)
(15.2508 0 0)
(15.2708 0 0)
(15.2904 0 0)
(15.3095 0 0)
(15.3282 0 0)
(15.3466 0 0)
(15.3645 0 0)
(15.3821 0 0)
(15.3994 0 0)
(15.4163 0 0)
(15.4329 0 0)
(15.4492 0 0)
(15.4652 0 0)
(15.4809 0 0)
(15.4963 0 0)
(15.5114 0 0)
(15.5262 0 0)
(15.5408 0 0)
(15.5552 0 0)
(15.5693 0 0)
(15.5831 0 0)
(15.5968 0 0)
(15.6102 0 0)
(15.6233 0 0)
(15.6363 0 0)
(15.6491 0 0)
(15.6616 0 0)
(15.674 0 0)
(15.6862 0 0)
(15.6982 0 0)
(15.71 0 0)
(15.7216 0 0)
(15.7331 0 0)
(15.7444 0 0)
(15.7555 0 0)
(15.7665 0 0)
(15.7773 0 0)
(15.7879 0 0)
)
;

boundaryField
{
    boundary
    {
        type            empty;
    }
    inlet
    {
        type            fixedValue;
        value           nonuniform 0();
    }
    outlet
    {
        type            zeroGradient;
    }
    procBoundary1to0
    {
        type            processor;
        value           uniform (15.7984 0 0);
    }
    procBoundary1to3
    {
        type            processor;
        value           uniform (2.35315 0 0);
    }
}


// ************************************************************************* //
