/*--------------------------------*- C++ -*----------------------------------*\
  =========                 |
  \\      /  F ield         | OpenFOAM: The Open Source CFD Toolbox
   \\    /   O peration     | Website:  https://openfoam.org
    \\  /    A nd           | Version:  7
     \\/     M anipulation  |
\*---------------------------------------------------------------------------*/
FoamFile
{
    version     2.0;
    format      ascii;
    class       volScalarField;
    location    "0.00077";
    object      H;
}
// * * * * * * * * * * * * * * * * * * * * * * * * * * * * * * * * * * * * * //

dimensions      [0 0 0 0 0 0 0];

internalField   nonuniform List<scalar> 
125
(
1.48624e-41
2.01347e-41
2.12704e-41
2.151e-41
2.15525e-41
2.15485e-41
2.15309e-41
2.15071e-41
2.14792e-41
2.14484e-41
2.14159e-41
2.13828e-41
2.13504e-41
2.13199e-41
2.12924e-41
2.12689e-41
2.12502e-41
2.12367e-41
2.12289e-41
2.12268e-41
2.12304e-41
2.12397e-41
2.12545e-41
2.12747e-41
2.13003e-41
2.13312e-41
2.13676e-41
2.14098e-41
2.14582e-41
2.15135e-41
2.15765e-41
2.16481e-41
2.17295e-41
2.18219e-41
2.19266e-41
2.20449e-41
2.21785e-41
2.23288e-41
2.24971e-41
2.26848e-41
2.28932e-41
2.31232e-41
2.33759e-41
2.36516e-41
2.39507e-41
2.42731e-41
2.46183e-41
2.49854e-41
2.53731e-41
2.57797e-41
2.62031e-41
2.66406e-41
2.70893e-41
2.7546e-41
2.80072e-41
2.84692e-41
2.89284e-41
2.93811e-41
2.98237e-41
3.02527e-41
3.06653e-41
3.10586e-41
3.14305e-41
3.17791e-41
3.21032e-41
3.2402e-41
3.26751e-41
3.29227e-41
3.31453e-41
3.33438e-41
3.35195e-41
3.36736e-41
3.38078e-41
3.39238e-41
3.40232e-41
3.41078e-41
3.41792e-41
3.42391e-41
3.4289e-41
3.43301e-41
3.43639e-41
3.43914e-41
3.44137e-41
3.44316e-41
3.44459e-41
3.44573e-41
3.44663e-41
3.44733e-41
3.44788e-41
3.44831e-41
3.44865e-41
3.44891e-41
3.44911e-41
3.44927e-41
3.44939e-41
3.44949e-41
3.44957e-41
3.44964e-41
3.44969e-41
3.44974e-41
3.44979e-41
3.44983e-41
3.44988e-41
3.44992e-41
3.44996e-41
3.45e-41
3.45004e-41
3.45009e-41
3.45014e-41
3.45018e-41
3.45024e-41
3.45029e-41
3.45034e-41
3.4504e-41
3.45046e-41
3.45052e-41
3.45059e-41
3.45066e-41
3.45073e-41
3.4508e-41
3.45088e-41
3.45097e-41
3.45105e-41
3.45114e-41
3.4512e-41
)
;

boundaryField
{
    boundary
    {
        type            empty;
    }
    inlet
    {
        type            fixedValue;
        value           uniform 0;
    }
    outlet
    {
        type            zeroGradient;
    }
    procBoundary2to3
    {
        type            processor;
        value           uniform 3.45127e-41;
    }
}


// ************************************************************************* //
