/*--------------------------------*- C++ -*----------------------------------*\
  =========                 |
  \\      /  F ield         | OpenFOAM: The Open Source CFD Toolbox
   \\    /   O peration     | Website:  https://openfoam.org
    \\  /    A nd           | Version:  7
     \\/     M anipulation  |
\*---------------------------------------------------------------------------*/
FoamFile
{
    version     2.0;
    format      ascii;
    class       volScalarField;
    location    "6e-05";
    object      H;
}
// * * * * * * * * * * * * * * * * * * * * * * * * * * * * * * * * * * * * * //

dimensions      [0 0 0 0 0 0 0];

internalField   nonuniform List<scalar> 
500
(
1.56425e-41
2.30366e-41
2.61917e-41
2.81819e-41
2.96233e-41
3.06415e-41
3.13081e-41
3.1709e-41
3.19313e-41
3.20457e-41
3.21006e-41
3.21251e-41
3.21351e-41
3.21387e-41
3.21394e-41
3.21389e-41
3.2138e-41
3.21368e-41
3.21354e-41
3.2134e-41
3.21325e-41
3.21309e-41
3.21292e-41
3.21274e-41
3.21256e-41
3.21237e-41
3.21217e-41
3.21196e-41
3.21175e-41
3.21153e-41
3.2113e-41
3.21106e-41
3.21082e-41
3.21056e-41
3.2103e-41
3.21003e-41
3.20976e-41
3.20948e-41
3.20919e-41
3.20889e-41
3.20858e-41
3.20827e-41
3.20795e-41
3.20762e-41
3.20729e-41
3.20695e-41
3.2066e-41
3.20624e-41
3.20588e-41
3.20551e-41
3.20513e-41
3.20474e-41
3.20435e-41
3.20395e-41
3.20355e-41
3.20314e-41
3.20272e-41
3.20229e-41
3.20186e-41
3.20142e-41
3.20098e-41
3.20052e-41
3.20007e-41
3.1996e-41
3.19913e-41
3.19865e-41
3.19817e-41
3.19768e-41
3.19719e-41
3.19669e-41
3.19618e-41
3.19567e-41
3.19515e-41
3.19462e-41
3.19409e-41
3.19356e-41
3.19302e-41
3.19247e-41
3.19192e-41
3.19136e-41
3.1908e-41
3.19023e-41
3.18966e-41
3.18908e-41
3.1885e-41
3.18791e-41
3.18732e-41
3.18672e-41
3.18612e-41
3.18551e-41
3.1849e-41
3.18428e-41
3.18366e-41
3.18303e-41
3.1824e-41
3.18177e-41
3.18113e-41
3.18048e-41
3.17983e-41
3.17918e-41
3.17852e-41
3.17786e-41
3.17719e-41
3.17652e-41
3.17584e-41
3.17516e-41
3.17448e-41
3.17379e-41
3.17309e-41
3.17239e-41
3.17169e-41
3.17098e-41
3.17027e-41
3.16955e-41
3.16883e-41
3.1681e-41
3.16736e-41
3.16662e-41
3.16588e-41
3.16513e-41
3.16437e-41
3.16358e-41
3.16271e-41
3.16153e-41
3.1588e-41
3.15678e-41
3.15813e-41
3.1581e-41
3.15766e-41
3.15705e-41
3.15635e-41
3.15558e-41
3.15477e-41
3.15394e-41
3.15309e-41
3.15222e-41
3.15135e-41
3.15046e-41
3.14957e-41
3.14866e-41
3.14774e-41
3.14681e-41
3.14587e-41
3.14491e-41
3.14394e-41
3.14296e-41
3.14196e-41
3.14094e-41
3.13991e-41
3.13886e-41
3.1378e-41
3.13672e-41
3.13562e-41
3.1345e-41
3.13336e-41
3.1322e-41
3.13101e-41
3.12981e-41
3.12858e-41
3.12733e-41
3.12605e-41
3.12475e-41
3.12342e-41
3.12206e-41
3.12068e-41
3.11926e-41
3.11782e-41
3.11634e-41
3.11484e-41
3.1133e-41
3.11172e-41
3.11011e-41
3.10847e-41
3.10679e-41
3.10507e-41
3.10331e-41
3.10152e-41
3.09968e-41
3.0978e-41
3.09589e-41
3.09393e-41
3.09192e-41
3.08987e-41
3.08778e-41
3.08564e-41
3.08346e-41
3.08123e-41
3.07895e-41
3.07662e-41
3.07425e-41
3.07183e-41
3.06936e-41
3.06684e-41
3.06428e-41
3.06166e-41
3.059e-41
3.05629e-41
3.05353e-41
3.05072e-41
3.04787e-41
3.04497e-41
3.04202e-41
3.03903e-41
3.03599e-41
3.03291e-41
3.02979e-41
3.02663e-41
3.02342e-41
3.02018e-41
3.0169e-41
3.01358e-41
3.01023e-41
3.00685e-41
3.00344e-41
2.99999e-41
2.99653e-41
2.99303e-41
2.98952e-41
2.98598e-41
2.98242e-41
2.97885e-41
2.97527e-41
2.97167e-41
2.96806e-41
2.96445e-41
2.96083e-41
2.95721e-41
2.95359e-41
2.94997e-41
2.94635e-41
2.94278e-41
2.93941e-41
2.93726e-41
2.94236e-41
2.99079e-41
3.29811e-41
5.15097e-41
1.62226e-40
8.22397e-40
4.75591e-39
2.81903e-38
1.67877e-37
1.00163e-36
5.98937e-36
3.5928e-35
2.16446e-34
1.3111e-33
7.99454e-33
4.9122e-32
3.0442e-31
1.90405e-30
1.17705e-29
7.63345e-29
5.0208e-28
3.32163e-27
2.20604e-26
1.46823e-25
9.77491e-25
6.49836e-24
4.30665e-23
2.84086e-22
1.8627e-21
1.21261e-20
7.83091e-20
5.01393e-19
3.18242e-18
2.003e-17
1.25114e-16
7.76633e-16
4.7998e-15
2.96036e-14
1.82701e-13
1.19023e-12
8.89623e-12
7.87963e-11
6.94576e-10
5.99186e-09
5.17952e-08
4.38283e-07
3.41913e-06
2.17579e-05
9.57094e-05
0.000263789
0.000518143
0.00083694
0.00118034
0.00148505
0.0017057
0.00181879
0.00185145
0.00183061
0.0017782
0.00170918
0.00163274
0.00155417
0.00147631
0.00140054
0.00132747
0.00125724
0.00118982
0.00112508
0.00106288
0.0010031
0.000945656
0.000890467
0.000837494
0.000786715
0.000738117
0.000691694
0.000647445
0.000605364
0.000565439
0.000528765
0.000494914
0.000462803
0.000432423
0.000403753
0.000376767
0.000351432
0.000327706
0.000305545
0.000284898
0.000265709
0.00024792
0.000231469
0.000216292
0.000202326
0.000189504
0.000177761
0.000167031
0.00015725
0.000148355
0.000140285
0.000132979
0.000126381
0.000120435
0.000115091
0.000110297
0.000106007
0.000102176
9.87649e-05
9.57333e-05
9.30456e-05
9.06684e-05
8.85711e-05
8.6725e-05
8.51041e-05
8.36845e-05
8.24443e-05
8.13635e-05
8.04242e-05
7.96099e-05
7.89058e-05
7.82987e-05
7.77766e-05
7.73288e-05
7.69458e-05
7.6619e-05
7.63411e-05
7.61054e-05
7.59059e-05
7.57377e-05
7.55962e-05
7.54774e-05
7.5378e-05
7.5295e-05
7.52259e-05
7.51685e-05
7.51207e-05
7.5081e-05
7.50479e-05
7.50201e-05
7.49965e-05
7.4976e-05
7.49578e-05
7.4941e-05
7.49292e-05
7.4925e-05
7.49219e-05
7.49197e-05
7.4918e-05
7.49168e-05
7.49159e-05
7.49151e-05
7.49146e-05
7.49141e-05
7.49138e-05
7.49135e-05
7.49133e-05
7.49132e-05
7.49131e-05
7.4913e-05
7.49129e-05
7.49129e-05
7.49128e-05
7.49128e-05
7.49127e-05
7.49127e-05
7.49126e-05
7.49126e-05
7.49125e-05
7.49125e-05
7.49124e-05
7.49123e-05
7.49122e-05
7.49122e-05
7.49121e-05
7.4912e-05
7.49119e-05
7.49118e-05
7.49117e-05
7.49116e-05
7.49114e-05
7.49113e-05
7.49112e-05
7.49111e-05
7.49109e-05
7.49108e-05
7.49107e-05
7.49106e-05
7.49104e-05
7.49103e-05
7.49101e-05
7.491e-05
7.49099e-05
7.49097e-05
7.49096e-05
7.49094e-05
7.49093e-05
7.49091e-05
7.4909e-05
7.49088e-05
7.49087e-05
7.49085e-05
7.49084e-05
7.49082e-05
7.49081e-05
7.49079e-05
7.49078e-05
7.49076e-05
7.49075e-05
7.49073e-05
7.49072e-05
7.49071e-05
7.49069e-05
7.49068e-05
7.49066e-05
7.49065e-05
7.49063e-05
7.49062e-05
7.49061e-05
7.49059e-05
7.49058e-05
7.49057e-05
7.49055e-05
7.49054e-05
7.49053e-05
7.49051e-05
7.4905e-05
7.49049e-05
7.49048e-05
7.49047e-05
7.49046e-05
7.49044e-05
7.49043e-05
7.49042e-05
7.49041e-05
7.4904e-05
7.49039e-05
7.49038e-05
7.49037e-05
7.49036e-05
7.49036e-05
7.49035e-05
7.49034e-05
7.49033e-05
7.49032e-05
7.49032e-05
7.49031e-05
7.4903e-05
7.4903e-05
7.49029e-05
7.49029e-05
7.49028e-05
7.49028e-05
7.49028e-05
7.49027e-05
7.49027e-05
7.49027e-05
7.49027e-05
7.49027e-05
7.49027e-05
7.49027e-05
7.49027e-05
7.49027e-05
7.49027e-05
7.49026e-05
7.49026e-05
7.49026e-05
7.49026e-05
)
;

boundaryField
{
    boundary
    {
        type            empty;
    }
    inlet
    {
        type            fixedValue;
        value           uniform 0;
    }
    outlet
    {
        type            zeroGradient;
    }
}


// ************************************************************************* //
