/*--------------------------------*- C++ -*----------------------------------*\
  =========                 |
  \\      /  F ield         | OpenFOAM: The Open Source CFD Toolbox
   \\    /   O peration     | Website:  https://openfoam.org
    \\  /    A nd           | Version:  7
     \\/     M anipulation  |
\*---------------------------------------------------------------------------*/
FoamFile
{
    version     2.0;
    format      ascii;
    class       volScalarField;
    location    "6e-05";
    object      H2O;
}
// * * * * * * * * * * * * * * * * * * * * * * * * * * * * * * * * * * * * * //

dimensions      [0 0 0 0 0 0 0];

internalField   nonuniform List<scalar> 
500
(
8.00848e-48
2.23239e-47
3.7901e-47
5.23928e-47
6.43295e-47
7.31933e-47
7.92011e-47
8.29555e-47
8.51372e-47
8.63247e-47
8.69339e-47
8.723e-47
8.73672e-47
8.74281e-47
8.74543e-47
8.74653e-47
8.74701e-47
8.74724e-47
8.74738e-47
8.74748e-47
8.74758e-47
8.74768e-47
8.74779e-47
8.7479e-47
8.74801e-47
8.74814e-47
8.74826e-47
8.7484e-47
8.74854e-47
8.74869e-47
8.74885e-47
8.74901e-47
8.74919e-47
8.74937e-47
8.74955e-47
8.74975e-47
8.74996e-47
8.75017e-47
8.75039e-47
8.75063e-47
8.75087e-47
8.75112e-47
8.75139e-47
8.75166e-47
8.75194e-47
8.75224e-47
8.75254e-47
8.75286e-47
8.75319e-47
8.75353e-47
8.75388e-47
8.75425e-47
8.75462e-47
8.75501e-47
8.75541e-47
8.75583e-47
8.75625e-47
8.75669e-47
8.75715e-47
8.75762e-47
8.7581e-47
8.75859e-47
8.7591e-47
8.75962e-47
8.76016e-47
8.76071e-47
8.76128e-47
8.76186e-47
8.76246e-47
8.76307e-47
8.76369e-47
8.76433e-47
8.76499e-47
8.76566e-47
8.76634e-47
8.76705e-47
8.76776e-47
8.7685e-47
8.76925e-47
8.77001e-47
8.77079e-47
8.77159e-47
8.7724e-47
8.77323e-47
8.77407e-47
8.77493e-47
8.77581e-47
8.7767e-47
8.77761e-47
8.77853e-47
8.77947e-47
8.78043e-47
8.7814e-47
8.78239e-47
8.7834e-47
8.78442e-47
8.78546e-47
8.78651e-47
8.78758e-47
8.78867e-47
8.78977e-47
8.79089e-47
8.79202e-47
8.79317e-47
8.79434e-47
8.79552e-47
8.79672e-47
8.79793e-47
8.79915e-47
8.80039e-47
8.80165e-47
8.80292e-47
8.8042e-47
8.8055e-47
8.80681e-47
8.80813e-47
8.80947e-47
8.81081e-47
8.81214e-47
8.81337e-47
8.81412e-47
8.8128e-47
8.8034e-47
8.76478e-47
8.62717e-47
8.4206e-47
8.5061e-47
8.59806e-47
8.67887e-47
8.73946e-47
8.77988e-47
8.80474e-47
8.81925e-47
8.82755e-47
8.83241e-47
8.83547e-47
8.83765e-47
8.83943e-47
8.84102e-47
8.84253e-47
8.84401e-47
8.84546e-47
8.8469e-47
8.84833e-47
8.84974e-47
8.85114e-47
8.85252e-47
8.85387e-47
8.85521e-47
8.85652e-47
8.85781e-47
8.85907e-47
8.8603e-47
8.86149e-47
8.86265e-47
8.86377e-47
8.86484e-47
8.86588e-47
8.86687e-47
8.8678e-47
8.86869e-47
8.86952e-47
8.87028e-47
8.87099e-47
8.87163e-47
8.8722e-47
8.8727e-47
8.87312e-47
8.87346e-47
8.87371e-47
8.87388e-47
8.87396e-47
8.87394e-47
8.87383e-47
8.87361e-47
8.87328e-47
8.87284e-47
8.87229e-47
8.87162e-47
8.87083e-47
8.86991e-47
8.86886e-47
8.86767e-47
8.86635e-47
8.86489e-47
8.86328e-47
8.86152e-47
8.85961e-47
8.85755e-47
8.85532e-47
8.85294e-47
8.85038e-47
8.84767e-47
8.84478e-47
8.84171e-47
8.83848e-47
8.83506e-47
8.83147e-47
8.8277e-47
8.82374e-47
8.8196e-47
8.81528e-47
8.81077e-47
8.80608e-47
8.8012e-47
8.79614e-47
8.7909e-47
8.78547e-47
8.77985e-47
8.77406e-47
8.76809e-47
8.76194e-47
8.75562e-47
8.74913e-47
8.74246e-47
8.73563e-47
8.72864e-47
8.72149e-47
8.71418e-47
8.70672e-47
8.69911e-47
8.69136e-47
8.68348e-47
8.67546e-47
8.66731e-47
8.65904e-47
8.65065e-47
8.64218e-47
8.63381e-47
8.62669e-47
8.62812e-47
8.68603e-47
9.12705e-47
1.23229e-46
3.7112e-46
2.49789e-45
2.27202e-44
2.31522e-43
2.50535e-42
2.79563e-41
3.15473e-40
3.55571e-39
3.97213e-38
4.37695e-37
4.74399e-36
5.05179e-35
5.28886e-34
5.45838e-33
5.57931e-32
5.68082e-31
5.78976e-30
7.8821e-29
8.07759e-28
8.15037e-27
8.19303e-26
8.21029e-25
8.20153e-24
8.16228e-23
8.0841e-22
7.95534e-21
7.76256e-20
7.49268e-19
7.13551e-18
6.68627e-17
6.14766e-16
5.53097e-15
4.85586e-14
4.14887e-13
3.4406e-12
2.76207e-11
2.14097e-10
1.59831e-09
1.1461e-08
7.87492e-08
5.17219e-07
3.23786e-06
1.92322e-05
0.000107325
0.000548308
0.0024045
0.00811682
0.0197889
0.0363343
0.0562115
0.0796173
0.105628
0.130806
0.155012
0.171746
0.183736
0.192182
0.19819
0.202581
0.205908
0.208528
0.210666
0.212462
0.21401
0.215372
0.216592
0.217704
0.218734
0.219703
0.220628
0.221524
0.222401
0.223266
0.224126
0.224981
0.225834
0.226682
0.227522
0.228327
0.229104
0.229868
0.230615
0.231343
0.232046
0.232723
0.233369
0.233984
0.234565
0.23511
0.23562
0.236093
0.236531
0.236933
0.2373
0.237634
0.237937
0.23821
0.238455
0.238673
0.238868
0.23904
0.239193
0.239327
0.239445
0.239547
0.239637
0.239715
0.239783
0.239841
0.239891
0.239935
0.239972
0.240004
0.240031
0.240055
0.240075
0.240092
0.240106
0.240118
0.240129
0.240137
0.240145
0.240151
0.240156
0.240161
0.240164
0.240167
0.24017
0.240172
0.240174
0.240175
0.240176
0.240177
0.240178
0.240179
0.240179
0.24018
0.24018
0.240181
0.240181
0.240181
0.240182
0.240182
0.240182
0.240182
0.240182
0.240182
0.240182
0.240182
0.240182
0.240182
0.240182
0.240182
0.240182
0.240181
0.240181
0.240181
0.240181
0.240181
0.240181
0.240181
0.240181
0.240181
0.240181
0.240181
0.240181
0.240181
0.240181
0.240181
0.240181
0.240181
0.240181
0.240181
0.240181
0.240181
0.240181
0.240181
0.240181
0.240181
0.240181
0.240181
0.240181
0.240181
0.24018
0.24018
0.24018
0.24018
0.24018
0.24018
0.24018
0.24018
0.24018
0.24018
0.24018
0.24018
0.24018
0.24018
0.24018
0.24018
0.24018
0.24018
0.24018
0.24018
0.24018
0.24018
0.24018
0.24018
0.24018
0.24018
0.24018
0.24018
0.24018
0.24018
0.24018
0.24018
0.24018
0.24018
0.24018
0.24018
0.24018
0.24018
0.24018
0.24018
0.24018
0.24018
0.24018
0.24018
0.24018
0.24018
0.24018
0.24018
0.24018
0.24018
0.24018
0.24018
0.24018
0.24018
0.24018
0.24018
0.24018
0.24018
0.24018
0.24018
0.24018
0.24018
0.24018
0.24018
0.24018
0.24018
0.24018
0.24018
0.24018
0.24018
0.24018
0.24018
0.24018
0.24018
0.24018
0.24018
0.24018
0.24018
0.24018
0.24018
0.24018
0.24018
0.24018
)
;

boundaryField
{
    boundary
    {
        type            empty;
    }
    inlet
    {
        type            fixedValue;
        value           uniform 0;
    }
    outlet
    {
        type            zeroGradient;
    }
}


// ************************************************************************* //
