/*--------------------------------*- C++ -*----------------------------------*\
  =========                 |
  \\      /  F ield         | OpenFOAM: The Open Source CFD Toolbox
   \\    /   O peration     | Website:  https://openfoam.org
    \\  /    A nd           | Version:  7
     \\/     M anipulation  |
\*---------------------------------------------------------------------------*/
FoamFile
{
    version     2.0;
    format      ascii;
    class       volScalarField;
    location    "6e-05";
    object      H2O2;
}
// * * * * * * * * * * * * * * * * * * * * * * * * * * * * * * * * * * * * * //

dimensions      [0 0 0 0 0 0 0];

internalField   nonuniform List<scalar> 
500
(
1.79133e-52
5.32171e-52
9.49784e-52
1.36207e-51
1.71543e-51
1.98419e-51
2.16848e-51
2.28384e-51
2.35047e-51
2.3863e-51
2.40436e-51
2.41296e-51
2.41684e-51
2.41852e-51
2.41922e-51
2.41951e-51
2.41963e-51
2.4197e-51
2.41974e-51
2.41977e-51
2.4198e-51
2.41984e-51
2.41987e-51
2.41991e-51
2.41994e-51
2.41998e-51
2.42003e-51
2.42007e-51
2.42012e-51
2.42016e-51
2.42021e-51
2.42027e-51
2.42032e-51
2.42038e-51
2.42044e-51
2.4205e-51
2.42056e-51
2.42063e-51
2.4207e-51
2.42077e-51
2.42085e-51
2.42093e-51
2.42101e-51
2.42109e-51
2.42117e-51
2.42126e-51
2.42136e-51
2.42145e-51
2.42155e-51
2.42165e-51
2.42175e-51
2.42186e-51
2.42197e-51
2.42209e-51
2.42221e-51
2.42233e-51
2.42245e-51
2.42258e-51
2.42271e-51
2.42285e-51
2.42299e-51
2.42313e-51
2.42327e-51
2.42342e-51
2.42358e-51
2.42374e-51
2.4239e-51
2.42406e-51
2.42423e-51
2.42441e-51
2.42459e-51
2.42477e-51
2.42495e-51
2.42514e-51
2.42534e-51
2.42554e-51
2.42574e-51
2.42595e-51
2.42616e-51
2.42637e-51
2.42659e-51
2.42682e-51
2.42704e-51
2.42728e-51
2.42751e-51
2.42776e-51
2.428e-51
2.42825e-51
2.42851e-51
2.42877e-51
2.42903e-51
2.4293e-51
2.42957e-51
2.42985e-51
2.43013e-51
2.43041e-51
2.4307e-51
2.431e-51
2.4313e-51
2.4316e-51
2.43191e-51
2.43222e-51
2.43254e-51
2.43286e-51
2.43319e-51
2.43352e-51
2.43385e-51
2.43419e-51
2.43453e-51
2.43488e-51
2.43523e-51
2.43559e-51
2.43594e-51
2.43631e-51
2.43667e-51
2.43704e-51
2.43742e-51
2.43779e-51
2.43817e-51
2.43853e-51
2.43879e-51
2.43854e-51
2.43598e-51
2.42401e-51
2.37721e-51
2.30049e-51
2.33065e-51
2.36447e-51
2.39383e-51
2.41502e-51
2.42842e-51
2.43616e-51
2.44039e-51
2.44266e-51
2.44394e-51
2.44473e-51
2.4453e-51
2.44577e-51
2.4462e-51
2.44661e-51
2.44702e-51
2.44742e-51
2.44781e-51
2.44821e-51
2.44859e-51
2.44898e-51
2.44935e-51
2.44972e-51
2.45009e-51
2.45044e-51
2.45079e-51
2.45113e-51
2.45146e-51
2.45178e-51
2.45208e-51
2.45238e-51
2.45266e-51
2.45293e-51
2.45319e-51
2.45343e-51
2.45366e-51
2.45386e-51
2.45405e-51
2.45422e-51
2.45437e-51
2.4545e-51
2.45461e-51
2.45469e-51
2.45475e-51
2.45479e-51
2.45479e-51
2.45477e-51
2.45473e-51
2.45465e-51
2.45454e-51
2.4544e-51
2.45422e-51
2.45401e-51
2.45377e-51
2.45348e-51
2.45316e-51
2.4528e-51
2.4524e-51
2.45196e-51
2.45148e-51
2.45095e-51
2.45038e-51
2.44976e-51
2.4491e-51
2.44839e-51
2.44763e-51
2.44682e-51
2.44596e-51
2.44504e-51
2.44408e-51
2.44307e-51
2.442e-51
2.44088e-51
2.4397e-51
2.43847e-51
2.43718e-51
2.43584e-51
2.43445e-51
2.433e-51
2.43149e-51
2.42993e-51
2.42831e-51
2.42664e-51
2.42492e-51
2.42314e-51
2.42131e-51
2.41942e-51
2.41748e-51
2.4155e-51
2.41346e-51
2.41137e-51
2.40923e-51
2.40705e-51
2.40482e-51
2.40255e-51
2.40023e-51
2.39787e-51
2.39547e-51
2.39303e-51
2.39055e-51
2.38804e-51
2.38549e-51
2.38291e-51
2.3803e-51
2.3777e-51
2.37529e-51
2.37426e-51
2.38193e-51
2.44411e-51
2.84974e-51
5.46786e-51
2.32075e-50
1.59305e-49
1.46437e-48
1.77007e-47
2.6141e-46
4.2657e-45
7.21579e-44
1.22891e-42
2.08113e-41
3.48382e-40
5.74572e-39
9.31862e-38
1.48538e-36
2.32877e-35
3.59649e-34
7.87842e-33
1.17896e-31
1.72497e-30
2.48284e-29
3.51306e-28
4.88229e-27
6.65835e-26
8.90204e-25
1.16558e-23
1.49291e-22
1.86831e-21
2.28152e-20
2.71493e-19
3.14342e-18
3.53557e-17
3.85635e-16
4.07141e-15
4.15233e-14
4.08208e-13
3.8592e-12
3.49967e-11
3.03528e-10
2.50878e-09
1.96642e-08
1.44978e-07
9.89021e-07
5.99983e-06
2.91802e-05
8.94704e-05
0.000136907
0.000135548
8.27055e-05
3.62528e-05
1.4235e-05
6.56933e-06
4.54705e-06
4.44078e-06
4.8917e-06
5.38513e-06
5.75378e-06
5.9621e-06
6.02486e-06
5.97048e-06
5.82639e-06
5.615e-06
5.3534e-06
5.05472e-06
4.72965e-06
4.38748e-06
4.03683e-06
3.68583e-06
3.34198e-06
3.01185e-06
2.70075e-06
2.41247e-06
2.14932e-06
1.91217e-06
1.70074e-06
1.51388e-06
1.34987e-06
1.20668e-06
1.08586e-06
9.81998e-07
8.90828e-07
8.10804e-07
7.40529e-07
6.78751e-07
6.24367e-07
5.76406e-07
5.34026e-07
4.96501e-07
4.63202e-07
4.3359e-07
4.07203e-07
3.83646e-07
3.62579e-07
3.43713e-07
3.26798e-07
3.11619e-07
2.97991e-07
2.85754e-07
2.74766e-07
2.64906e-07
2.56066e-07
2.48147e-07
2.41065e-07
2.3474e-07
2.29103e-07
2.24088e-07
2.19637e-07
2.15695e-07
2.12213e-07
2.09145e-07
2.06448e-07
2.04083e-07
2.02016e-07
2.00214e-07
1.98646e-07
1.97287e-07
1.96111e-07
1.95096e-07
1.94223e-07
1.93474e-07
1.92833e-07
1.92285e-07
1.91819e-07
1.91423e-07
1.91087e-07
1.90803e-07
1.90563e-07
1.90362e-07
1.90192e-07
1.9005e-07
1.89931e-07
1.89832e-07
1.89748e-07
1.89679e-07
1.89621e-07
1.89572e-07
1.89531e-07
1.89495e-07
1.89464e-07
1.89435e-07
1.89406e-07
1.89376e-07
1.89354e-07
1.89348e-07
1.89345e-07
1.89342e-07
1.89339e-07
1.89336e-07
1.89333e-07
1.8933e-07
1.89326e-07
1.89323e-07
1.89319e-07
1.89315e-07
1.89312e-07
1.89308e-07
1.89304e-07
1.893e-07
1.89297e-07
1.89293e-07
1.89289e-07
1.89286e-07
1.89282e-07
1.89278e-07
1.89275e-07
1.89271e-07
1.89267e-07
1.89263e-07
1.8926e-07
1.89256e-07
1.89252e-07
1.89248e-07
1.89245e-07
1.89241e-07
1.89237e-07
1.89233e-07
1.89229e-07
1.89226e-07
1.89222e-07
1.89218e-07
1.89214e-07
1.8921e-07
1.89207e-07
1.89203e-07
1.89199e-07
1.89195e-07
1.89192e-07
1.89188e-07
1.89184e-07
1.8918e-07
1.89177e-07
1.89173e-07
1.89169e-07
1.89165e-07
1.89162e-07
1.89158e-07
1.89154e-07
1.89151e-07
1.89147e-07
1.89143e-07
1.8914e-07
1.89136e-07
1.89132e-07
1.89129e-07
1.89126e-07
1.89122e-07
1.89119e-07
1.89115e-07
1.89112e-07
1.89108e-07
1.89105e-07
1.89102e-07
1.89099e-07
1.89095e-07
1.89092e-07
1.89089e-07
1.89086e-07
1.89083e-07
1.8908e-07
1.89077e-07
1.89074e-07
1.89071e-07
1.89068e-07
1.89066e-07
1.89063e-07
1.8906e-07
1.89058e-07
1.89055e-07
1.89053e-07
1.8905e-07
1.89048e-07
1.89046e-07
1.89044e-07
1.89041e-07
1.89039e-07
1.89037e-07
1.89035e-07
1.89033e-07
1.89032e-07
1.8903e-07
1.89028e-07
1.89026e-07
1.89025e-07
1.89023e-07
1.89022e-07
1.8902e-07
1.89019e-07
1.89018e-07
1.89017e-07
1.89016e-07
1.89014e-07
1.89013e-07
1.89012e-07
1.89012e-07
1.89011e-07
1.8901e-07
1.89009e-07
1.89008e-07
1.89008e-07
1.89007e-07
1.89007e-07
1.89006e-07
1.89005e-07
1.89005e-07
1.89004e-07
1.89002e-07
)
;

boundaryField
{
    boundary
    {
        type            empty;
    }
    inlet
    {
        type            fixedValue;
        value           uniform 0;
    }
    outlet
    {
        type            zeroGradient;
    }
}


// ************************************************************************* //
