/*--------------------------------*- C++ -*----------------------------------*\
  =========                 |
  \\      /  F ield         | OpenFOAM: The Open Source CFD Toolbox
   \\    /   O peration     | Website:  https://openfoam.org
    \\  /    A nd           | Version:  7
     \\/     M anipulation  |
\*---------------------------------------------------------------------------*/
FoamFile
{
    version     2.0;
    format      ascii;
    class       volScalarField;
    location    "6e-05";
    object      HO2;
}
// * * * * * * * * * * * * * * * * * * * * * * * * * * * * * * * * * * * * * //

dimensions      [0 0 0 0 0 0 0];

internalField   nonuniform List<scalar> 
500
(
5.74573e-38
1.29639e-37
1.96073e-37
2.52121e-37
2.95348e-37
3.25863e-37
3.45666e-37
3.57552e-37
3.64192e-37
3.67667e-37
3.6938e-37
3.70179e-37
3.70534e-37
3.70684e-37
3.70746e-37
3.7077e-37
3.7078e-37
3.70784e-37
3.70785e-37
3.70787e-37
3.70788e-37
3.70789e-37
3.7079e-37
3.70791e-37
3.70792e-37
3.70793e-37
3.70794e-37
3.70796e-37
3.70797e-37
3.70799e-37
3.708e-37
3.70802e-37
3.70804e-37
3.70806e-37
3.70808e-37
3.7081e-37
3.70812e-37
3.70815e-37
3.70817e-37
3.7082e-37
3.70823e-37
3.70826e-37
3.70829e-37
3.70832e-37
3.70836e-37
3.70839e-37
3.70843e-37
3.70847e-37
3.70852e-37
3.70856e-37
3.70861e-37
3.70866e-37
3.70871e-37
3.70876e-37
3.70882e-37
3.70887e-37
3.70893e-37
3.709e-37
3.70906e-37
3.70913e-37
3.7092e-37
3.70927e-37
3.70935e-37
3.70942e-37
3.7095e-37
3.70959e-37
3.70967e-37
3.70976e-37
3.70985e-37
3.70995e-37
3.71005e-37
3.71015e-37
3.71025e-37
3.71036e-37
3.71046e-37
3.71058e-37
3.71069e-37
3.71081e-37
3.71093e-37
3.71106e-37
3.71119e-37
3.71132e-37
3.71145e-37
3.71159e-37
3.71173e-37
3.71187e-37
3.71202e-37
3.71217e-37
3.71233e-37
3.71248e-37
3.71264e-37
3.71281e-37
3.71298e-37
3.71315e-37
3.71332e-37
3.7135e-37
3.71368e-37
3.71386e-37
3.71405e-37
3.71424e-37
3.71443e-37
3.71463e-37
3.71483e-37
3.71503e-37
3.71524e-37
3.71545e-37
3.71566e-37
3.71588e-37
3.7161e-37
3.71632e-37
3.71654e-37
3.71677e-37
3.717e-37
3.71723e-37
3.71746e-37
3.7177e-37
3.71794e-37
3.71818e-37
3.71842e-37
3.71864e-37
3.71878e-37
3.7185e-37
3.7163e-37
3.70619e-37
3.6665e-37
3.60203e-37
3.62859e-37
3.65711e-37
3.6814e-37
3.69874e-37
3.70962e-37
3.71585e-37
3.71921e-37
3.72097e-37
3.72192e-37
3.72247e-37
3.72284e-37
3.72313e-37
3.72339e-37
3.72363e-37
3.72386e-37
3.72408e-37
3.7243e-37
3.72451e-37
3.72471e-37
3.72491e-37
3.7251e-37
3.72528e-37
3.72545e-37
3.72561e-37
3.72576e-37
3.7259e-37
3.72603e-37
3.72614e-37
3.72624e-37
3.72633e-37
3.7264e-37
3.72645e-37
3.72648e-37
3.7265e-37
3.7265e-37
3.72648e-37
3.72643e-37
3.72636e-37
3.72627e-37
3.72616e-37
3.72601e-37
3.72584e-37
3.72565e-37
3.72542e-37
3.72516e-37
3.72487e-37
3.72455e-37
3.72419e-37
3.7238e-37
3.72337e-37
3.72291e-37
3.7224e-37
3.72185e-37
3.72126e-37
3.72063e-37
3.71996e-37
3.71924e-37
3.71847e-37
3.71765e-37
3.71679e-37
3.71587e-37
3.71491e-37
3.71389e-37
3.71282e-37
3.71169e-37
3.71051e-37
3.70928e-37
3.70799e-37
3.70664e-37
3.70523e-37
3.70376e-37
3.70224e-37
3.70065e-37
3.69901e-37
3.6973e-37
3.69554e-37
3.69371e-37
3.69183e-37
3.68988e-37
3.68788e-37
3.68581e-37
3.68369e-37
3.68151e-37
3.67926e-37
3.67696e-37
3.67461e-37
3.6722e-37
3.66973e-37
3.66721e-37
3.66464e-37
3.66202e-37
3.65934e-37
3.65662e-37
3.65385e-37
3.65104e-37
3.64818e-37
3.64528e-37
3.64235e-37
3.63937e-37
3.63635e-37
3.6333e-37
3.63022e-37
3.62711e-37
3.62401e-37
3.62115e-37
3.61987e-37
3.62842e-37
3.69759e-37
4.13965e-37
6.87498e-37
2.37054e-36
1.27034e-35
7.59644e-35
4.61537e-34
2.79576e-33
1.67943e-32
9.97311e-32
5.84083e-31
3.36923e-30
1.91504e-29
1.07532e-28
5.99312e-28
3.33393e-27
1.85866e-26
1.03821e-25
6.1371e-25
3.43749e-24
1.90871e-23
1.06155e-22
5.91996e-22
3.31153e-21
1.85909e-20
1.04837e-19
5.94647e-19
3.3992e-18
1.96347e-17
1.14985e-16
6.85236e-16
4.16982e-15
2.5968e-14
1.65484e-13
1.07559e-12
7.08312e-12
4.68122e-11
3.0702e-10
1.9754e-09
1.23273e-08
7.38082e-08
4.18784e-07
2.22228e-06
1.08127e-05
4.64107e-05
0.000162965
0.000397083
0.000524457
0.000474396
0.000364815
0.000259978
0.000182052
0.00012746
8.93323e-05
6.02923e-05
4.2709e-05
3.12749e-05
2.38274e-05
1.88813e-05
1.54837e-05
1.30487e-05
1.12235e-05
9.79615e-06
8.63877e-06
7.67314e-06
6.8504e-06
6.13922e-06
5.51881e-06
4.97483e-06
4.49698e-06
4.07747e-06
3.71016e-06
3.38991e-06
3.11227e-06
2.87317e-06
2.66883e-06
2.49566e-06
2.35019e-06
2.22911e-06
2.1322e-06
2.05335e-06
1.98826e-06
1.93481e-06
1.89112e-06
1.85549e-06
1.82644e-06
1.80271e-06
1.78327e-06
1.76726e-06
1.75403e-06
1.74305e-06
1.73392e-06
1.72635e-06
1.72012e-06
1.71505e-06
1.71102e-06
1.7079e-06
1.70561e-06
1.70405e-06
1.70315e-06
1.7028e-06
1.70295e-06
1.70349e-06
1.70437e-06
1.70551e-06
1.70683e-06
1.70829e-06
1.70983e-06
1.7114e-06
1.71297e-06
1.7145e-06
1.71598e-06
1.71738e-06
1.7187e-06
1.71992e-06
1.72104e-06
1.72207e-06
1.72299e-06
1.72383e-06
1.72457e-06
1.72523e-06
1.72581e-06
1.72632e-06
1.72677e-06
1.72716e-06
1.72751e-06
1.7278e-06
1.72806e-06
1.72829e-06
1.72848e-06
1.72865e-06
1.7288e-06
1.72893e-06
1.72905e-06
1.72915e-06
1.72924e-06
1.72932e-06
1.72939e-06
1.72945e-06
1.72952e-06
1.72958e-06
1.72963e-06
1.72961e-06
1.72961e-06
1.72974e-06
1.72981e-06
1.72985e-06
1.72988e-06
1.7299e-06
1.72993e-06
1.72995e-06
1.72998e-06
1.73e-06
1.73003e-06
1.73006e-06
1.73008e-06
1.73011e-06
1.73014e-06
1.73016e-06
1.73019e-06
1.73021e-06
1.73024e-06
1.73027e-06
1.73029e-06
1.73032e-06
1.73034e-06
1.73037e-06
1.7304e-06
1.73042e-06
1.73045e-06
1.73047e-06
1.7305e-06
1.73052e-06
1.73055e-06
1.73058e-06
1.7306e-06
1.73062e-06
1.73065e-06
1.73067e-06
1.7307e-06
1.73073e-06
1.73075e-06
1.73078e-06
1.7308e-06
1.73083e-06
1.73085e-06
1.73088e-06
1.7309e-06
1.73093e-06
1.73095e-06
1.73098e-06
1.731e-06
1.73103e-06
1.73105e-06
1.73108e-06
1.7311e-06
1.73112e-06
1.73115e-06
1.73117e-06
1.73119e-06
1.73122e-06
1.73124e-06
1.73126e-06
1.73128e-06
1.73131e-06
1.73133e-06
1.73135e-06
1.73137e-06
1.73139e-06
1.73141e-06
1.73143e-06
1.73145e-06
1.73147e-06
1.73149e-06
1.73151e-06
1.73152e-06
1.73154e-06
1.73155e-06
1.73157e-06
1.73158e-06
1.7316e-06
1.73161e-06
1.73163e-06
1.73164e-06
1.73165e-06
1.73166e-06
1.73167e-06
1.73168e-06
1.73169e-06
1.7317e-06
1.73171e-06
1.73172e-06
1.73173e-06
1.73173e-06
1.73174e-06
1.73174e-06
1.73175e-06
1.73175e-06
1.73175e-06
1.73175e-06
1.73176e-06
1.73176e-06
1.73176e-06
1.73175e-06
1.73175e-06
1.73175e-06
1.73175e-06
1.73175e-06
1.73174e-06
1.73174e-06
1.73173e-06
1.73172e-06
1.73172e-06
1.73171e-06
1.7317e-06
1.73169e-06
1.73167e-06
1.73166e-06
1.73164e-06
1.73163e-06
1.73162e-06
1.7316e-06
1.73159e-06
1.73157e-06
1.73156e-06
1.73155e-06
1.73154e-06
)
;

boundaryField
{
    boundary
    {
        type            empty;
    }
    inlet
    {
        type            fixedValue;
        value           uniform 0;
    }
    outlet
    {
        type            zeroGradient;
    }
}


// ************************************************************************* //
