/*--------------------------------*- C++ -*----------------------------------*\
  =========                 |
  \\      /  F ield         | OpenFOAM: The Open Source CFD Toolbox
   \\    /   O peration     | Website:  https://openfoam.org
    \\  /    A nd           | Version:  7
     \\/     M anipulation  |
\*---------------------------------------------------------------------------*/
FoamFile
{
    version     2.0;
    format      ascii;
    class       volScalarField;
    location    "6e-05";
    object      O;
}
// * * * * * * * * * * * * * * * * * * * * * * * * * * * * * * * * * * * * * //

dimensions      [0 0 0 0 0 0 0];

internalField   nonuniform List<scalar> 
500
(
1.65445e-47
3.93511e-47
6.07249e-47
7.91717e-47
9.38204e-47
1.04534e-46
1.11779e-46
1.16333e-46
1.19012e-46
1.20496e-46
1.21273e-46
1.2166e-46
1.21845e-46
1.21929e-46
1.21965e-46
1.21981e-46
1.21987e-46
1.2199e-46
1.21991e-46
1.21991e-46
1.21992e-46
1.21992e-46
1.21992e-46
1.21992e-46
1.21992e-46
1.21992e-46
1.21992e-46
1.21992e-46
1.21993e-46
1.21993e-46
1.21993e-46
1.21993e-46
1.21994e-46
1.21994e-46
1.21994e-46
1.21995e-46
1.21995e-46
1.21996e-46
1.21996e-46
1.21997e-46
1.21998e-46
1.21998e-46
1.21999e-46
1.22e-46
1.22001e-46
1.22002e-46
1.22003e-46
1.22004e-46
1.22005e-46
1.22007e-46
1.22008e-46
1.22009e-46
1.22011e-46
1.22013e-46
1.22014e-46
1.22016e-46
1.22018e-46
1.2202e-46
1.22022e-46
1.22025e-46
1.22027e-46
1.22029e-46
1.22032e-46
1.22035e-46
1.22037e-46
1.2204e-46
1.22043e-46
1.22046e-46
1.2205e-46
1.22053e-46
1.22056e-46
1.2206e-46
1.22064e-46
1.22068e-46
1.22072e-46
1.22076e-46
1.2208e-46
1.22084e-46
1.22089e-46
1.22093e-46
1.22098e-46
1.22103e-46
1.22108e-46
1.22113e-46
1.22118e-46
1.22124e-46
1.22129e-46
1.22135e-46
1.22141e-46
1.22147e-46
1.22153e-46
1.22159e-46
1.22166e-46
1.22172e-46
1.22179e-46
1.22186e-46
1.22193e-46
1.222e-46
1.22207e-46
1.22214e-46
1.22222e-46
1.22229e-46
1.22237e-46
1.22245e-46
1.22253e-46
1.22261e-46
1.22269e-46
1.22278e-46
1.22286e-46
1.22295e-46
1.22304e-46
1.22312e-46
1.22321e-46
1.2233e-46
1.2234e-46
1.22349e-46
1.22358e-46
1.22367e-46
1.22376e-46
1.22383e-46
1.2238e-46
1.22345e-46
1.22193e-46
1.21668e-46
1.20044e-46
1.1811e-46
1.19187e-46
1.20228e-46
1.21072e-46
1.21665e-46
1.22041e-46
1.22264e-46
1.2239e-46
1.22462e-46
1.22503e-46
1.22528e-46
1.22545e-46
1.22558e-46
1.22568e-46
1.22578e-46
1.22587e-46
1.22595e-46
1.22604e-46
1.22612e-46
1.22619e-46
1.22626e-46
1.22633e-46
1.2264e-46
1.22646e-46
1.22652e-46
1.22657e-46
1.22662e-46
1.22666e-46
1.22669e-46
1.22672e-46
1.22675e-46
1.22677e-46
1.22677e-46
1.22678e-46
1.22677e-46
1.22676e-46
1.22673e-46
1.2267e-46
1.22666e-46
1.2266e-46
1.22654e-46
1.22647e-46
1.22638e-46
1.22628e-46
1.22617e-46
1.22604e-46
1.22591e-46
1.22575e-46
1.22558e-46
1.2254e-46
1.2252e-46
1.22499e-46
1.22476e-46
1.22451e-46
1.22424e-46
1.22395e-46
1.22365e-46
1.22332e-46
1.22298e-46
1.22261e-46
1.22223e-46
1.22182e-46
1.22139e-46
1.22094e-46
1.22046e-46
1.21996e-46
1.21944e-46
1.2189e-46
1.21833e-46
1.21773e-46
1.21711e-46
1.21647e-46
1.2158e-46
1.21511e-46
1.21439e-46
1.21364e-46
1.21287e-46
1.21207e-46
1.21125e-46
1.2104e-46
1.20953e-46
1.20863e-46
1.20771e-46
1.20676e-46
1.20579e-46
1.20479e-46
1.20377e-46
1.20272e-46
1.20165e-46
1.20056e-46
1.19945e-46
1.19832e-46
1.19716e-46
1.19599e-46
1.1948e-46
1.19358e-46
1.19235e-46
1.1911e-46
1.18984e-46
1.18856e-46
1.18726e-46
1.18595e-46
1.18465e-46
1.18346e-46
1.18307e-46
1.18785e-46
1.22636e-46
1.49031e-46
3.32773e-46
1.6895e-45
1.25643e-44
1.07942e-43
1.01417e-42
1.01425e-41
1.05409e-40
1.11718e-39
1.19212e-38
1.27048e-37
1.34522e-36
1.40979e-35
1.4577e-34
1.4829e-33
1.48065e-32
1.44899e-31
1.38962e-30
1.30749e-29
1.62152e-28
1.47559e-27
1.30172e-26
1.12559e-25
9.53433e-25
7.90316e-24
6.40374e-23
5.06598e-22
3.9077e-21
2.93484e-20
2.14273e-19
1.51819e-18
1.04193e-17
6.91185e-17
4.42183e-16
2.72121e-15
1.60647e-14
9.0702e-14
4.88182e-13
2.49615e-12
1.20824e-11
5.51781e-11
2.37072e-10
9.56804e-10
3.63344e-09
1.31386e-08
4.75193e-08
1.99259e-07
1.17459e-06
8.66131e-06
5.10599e-05
0.00021979
0.000729605
0.00170808
0.00294433
0.00407584
0.0048939
0.00529885
0.00542699
0.00537638
0.00522098
0.0050098
0.00477323
0.00452948
0.00428914
0.00405804
0.00383905
0.0036332
0.00344038
0.00325978
0.00309026
0.00293053
0.00277937
0.00263565
0.00249845
0.00236703
0.00224087
0.00211964
0.00200315
0.00189135
0.00178428
0.00168509
0.00159225
0.00150349
0.00141886
0.00133846
0.00126231
0.00119044
0.00112284
0.00105945
0.00100021
0.000945004
0.000893719
0.000846205
0.000802303
0.000761844
0.000724651
0.000690543
0.000659339
0.000630861
0.000604931
0.000581379
0.000560037
0.000540746
0.000523353
0.000507712
0.000493682
0.000481132
0.000469935
0.000459973
0.000451134
0.000443314
0.000436415
0.000430346
0.000425022
0.000420365
0.000416303
0.00041277
0.000409706
0.000407056
0.00040477
0.000402805
0.00040112
0.000399679
0.00039845
0.000397405
0.000396519
0.00039577
0.000395138
0.000394607
0.000394162
0.000393789
0.000393479
0.00039322
0.000393006
0.000392829
0.000392682
0.000392562
0.000392462
0.000392379
0.000392309
0.00039225
0.000392196
0.000392143
0.000392087
0.000392049
0.000392047
0.000392048
0.000392051
0.000392053
0.000392054
0.000392056
0.000392057
0.000392058
0.000392059
0.00039206
0.00039206
0.000392061
0.000392062
0.000392063
0.000392063
0.000392064
0.000392065
0.000392066
0.000392066
0.000392067
0.000392068
0.000392068
0.000392069
0.00039207
0.00039207
0.000392071
0.000392071
0.000392072
0.000392072
0.000392073
0.000392073
0.000392073
0.000392074
0.000392074
0.000392075
0.000392075
0.000392075
0.000392075
0.000392076
0.000392076
0.000392076
0.000392077
0.000392077
0.000392077
0.000392077
0.000392078
0.000392078
0.000392078
0.000392078
0.000392078
0.000392078
0.000392079
0.000392079
0.000392079
0.000392079
0.000392079
0.000392079
0.000392079
0.000392079
0.000392079
0.000392079
0.000392079
0.000392079
0.000392079
0.000392079
0.000392079
0.000392079
0.000392079
0.000392079
0.000392078
0.000392078
0.000392078
0.000392078
0.000392078
0.000392077
0.000392077
0.000392077
0.000392077
0.000392076
0.000392076
0.000392076
0.000392076
0.000392075
0.000392075
0.000392075
0.000392074
0.000392074
0.000392074
0.000392073
0.000392073
0.000392072
0.000392072
0.000392071
0.000392071
0.00039207
0.00039207
0.000392069
0.000392069
0.000392068
0.000392068
0.000392067
0.000392067
0.000392066
0.000392065
0.000392065
0.000392064
0.000392064
0.000392063
0.000392062
0.000392062
0.000392061
0.00039206
0.00039206
0.000392059
0.000392059
0.000392058
0.000392057
0.000392057
0.000392056
0.000392055
0.000392054
0.000392054
0.000392053
)
;

boundaryField
{
    boundary
    {
        type            empty;
    }
    inlet
    {
        type            fixedValue;
        value           uniform 0;
    }
    outlet
    {
        type            zeroGradient;
    }
}


// ************************************************************************* //
