/*--------------------------------*- C++ -*----------------------------------*\
  =========                 |
  \\      /  F ield         | OpenFOAM: The Open Source CFD Toolbox
   \\    /   O peration     | Website:  https://openfoam.org
    \\  /    A nd           | Version:  7
     \\/     M anipulation  |
\*---------------------------------------------------------------------------*/
FoamFile
{
    version     2.0;
    format      ascii;
    class       volScalarField;
    location    "6e-05";
    object      O2;
}
// * * * * * * * * * * * * * * * * * * * * * * * * * * * * * * * * * * * * * //

dimensions      [0 0 0 0 0 0 0];

internalField   nonuniform List<scalar> 
500
(
0.226269
0.226269
0.226269
0.226269
0.226269
0.226269
0.226269
0.226269
0.226269
0.226269
0.226269
0.226269
0.226269
0.226269
0.226269
0.226269
0.226269
0.226269
0.226269
0.226269
0.226269
0.226269
0.226269
0.226269
0.226269
0.226269
0.226269
0.226269
0.226269
0.226269
0.226269
0.226269
0.226269
0.226269
0.226269
0.226269
0.226269
0.226269
0.226269
0.226269
0.226269
0.226269
0.226269
0.226269
0.226269
0.226269
0.226269
0.226269
0.226269
0.226269
0.226269
0.226269
0.226269
0.226269
0.226269
0.226269
0.226269
0.226269
0.226269
0.226269
0.226269
0.226269
0.226269
0.226269
0.226269
0.226269
0.226269
0.226269
0.226269
0.226269
0.226269
0.226269
0.226269
0.226269
0.226269
0.226269
0.226269
0.226269
0.226269
0.226269
0.226269
0.226269
0.226269
0.226269
0.226269
0.226269
0.226269
0.226269
0.226269
0.226269
0.226269
0.226269
0.226269
0.226269
0.226269
0.226269
0.226269
0.226269
0.226269
0.226269
0.226269
0.226269
0.226269
0.226269
0.226269
0.226269
0.226269
0.226269
0.226269
0.226269
0.226269
0.226269
0.226269
0.226269
0.226269
0.226269
0.226269
0.226269
0.226269
0.226269
0.226269
0.226269
0.226269
0.226269
0.226269
0.226269
0.226269
0.226269
0.226269
0.226269
0.226269
0.226269
0.226269
0.226269
0.226269
0.226269
0.226269
0.226269
0.226269
0.226269
0.226269
0.226269
0.226269
0.226269
0.226269
0.226269
0.226269
0.226269
0.226269
0.226269
0.226269
0.226269
0.226269
0.226269
0.226269
0.226269
0.226269
0.226269
0.226269
0.226269
0.226269
0.226269
0.226269
0.226269
0.226269
0.226269
0.226269
0.226269
0.226269
0.226269
0.226269
0.226269
0.226269
0.226269
0.226269
0.226269
0.226269
0.226269
0.226269
0.226269
0.226269
0.226269
0.226269
0.226269
0.226269
0.226269
0.226269
0.226269
0.226269
0.226269
0.226269
0.226269
0.226269
0.226269
0.226269
0.226269
0.226269
0.226269
0.226269
0.226269
0.226269
0.226269
0.226269
0.226269
0.226269
0.226269
0.226269
0.226269
0.226269
0.226269
0.226269
0.226269
0.226269
0.226269
0.226269
0.226269
0.226269
0.226269
0.226269
0.226269
0.226269
0.226269
0.226269
0.226269
0.226269
0.226269
0.226269
0.226269
0.226269
0.226269
0.226269
0.226269
0.226269
0.226269
0.226269
0.226269
0.226269
0.226269
0.226269
0.226269
0.226269
0.226269
0.226269
0.226269
0.226269
0.226269
0.226269
0.226269
0.226269
0.226269
0.226269
0.226269
0.226269
0.226269
0.226269
0.226269
0.226269
0.226269
0.226269
0.226269
0.226269
0.226269
0.226269
0.226269
0.226269
0.226269
0.226269
0.226269
0.226269
0.226269
0.226269
0.226269
0.226269
0.22627
0.226272
0.226275
0.226272
0.226211
0.225849
0.224352
0.219865
0.21025
0.196354
0.179097
0.157512
0.132243
0.107049
0.0819125
0.0644849
0.0519053
0.0430241
0.0367209
0.0321414
0.0286998
0.0260156
0.0238475
0.0220435
0.0205075
0.019177
0.0180099
0.0169766
0.016055
0.015228
0.0144818
0.0138049
0.013188
0.0126231
0.0121038
0.0116248
0.0111817
0.0107713
0.0103909
0.0100492
0.00973639
0.00944445
0.00917261
0.00892028
0.008687
0.00847235
0.00827595
0.0080974
0.00793626
0.00779201
0.00766408
0.00755177
0.0074543
0.00737079
0.00730031
0.00724181
0.00719423
0.00715646
0.00712741
0.00710596
0.00709107
0.00708173
0.00707699
0.007076
0.00707797
0.00708221
0.00708812
0.00709519
0.00710299
0.00711116
0.00711943
0.00712757
0.00713541
0.00714285
0.00714979
0.00715619
0.00716203
0.0071673
0.00717203
0.00717622
0.00717992
0.00718316
0.00718597
0.00718841
0.00719051
0.0071923
0.00719383
0.00719512
0.00719621
0.00719713
0.0071979
0.00719853
0.00719906
0.0071995
0.00719986
0.00720016
0.0072004
0.0072006
0.00720077
0.00720091
0.00720103
0.00720115
0.0072013
0.00720141
0.00720141
0.00720141
0.00720141
0.00720141
0.00720141
0.0072014
0.0072014
0.00720139
0.00720138
0.00720138
0.00720137
0.00720137
0.00720137
0.00720136
0.00720136
0.00720136
0.00720135
0.00720135
0.00720134
0.00720134
0.00720133
0.00720133
0.00720132
0.00720132
0.00720131
0.00720131
0.0072013
0.0072013
0.00720129
0.00720129
0.00720128
0.00720128
0.00720128
0.00720127
0.00720127
0.00720127
0.00720126
0.00720126
0.00720126
0.00720125
0.00720125
0.00720125
0.00720125
0.00720124
0.00720124
0.00720124
0.00720123
0.00720123
0.00720123
0.00720122
0.00720122
0.00720122
0.00720122
0.00720121
0.00720121
0.00720121
0.00720121
0.0072012
0.0072012
0.0072012
0.0072012
0.00720119
0.00720119
0.00720119
0.00720119
0.00720118
0.00720118
0.00720118
0.00720118
0.00720118
0.00720117
0.00720117
0.00720117
0.00720117
0.00720117
0.00720117
0.00720117
0.00720117
0.00720116
0.00720116
0.00720116
0.00720116
0.00720116
0.00720116
0.00720116
0.00720116
0.00720116
0.00720116
0.00720116
0.00720116
0.00720116
0.00720116
0.00720116
0.00720116
0.00720116
0.00720116
0.00720116
0.00720116
0.00720117
0.00720117
0.00720117
0.00720117
0.00720117
0.00720117
0.00720117
0.00720118
0.00720118
0.00720118
0.00720118
0.00720119
0.00720119
0.00720119
0.00720119
0.0072012
0.0072012
0.0072012
0.00720121
0.00720121
0.00720121
0.00720122
0.00720122
0.00720122
0.00720122
)
;

boundaryField
{
    boundary
    {
        type            empty;
    }
    inlet
    {
        type            fixedValue;
        value           uniform 0.226269;
    }
    outlet
    {
        type            zeroGradient;
    }
}


// ************************************************************************* //
