/*--------------------------------*- C++ -*----------------------------------*\
  =========                 |
  \\      /  F ield         | OpenFOAM: The Open Source CFD Toolbox
   \\    /   O peration     | Website:  https://openfoam.org
    \\  /    A nd           | Version:  7
     \\/     M anipulation  |
\*---------------------------------------------------------------------------*/
FoamFile
{
    version     2.0;
    format      ascii;
    class       volScalarField;
    location    "6e-05";
    object      OH;
}
// * * * * * * * * * * * * * * * * * * * * * * * * * * * * * * * * * * * * * //

dimensions      [0 0 0 0 0 0 0];

internalField   nonuniform List<scalar> 
500
(
1.03015e-47
2.12252e-47
2.96296e-47
3.59169e-47
4.04143e-47
4.34448e-47
4.53538e-47
4.64767e-47
4.70952e-47
4.74158e-47
4.75729e-47
4.7646e-47
4.76783e-47
4.76919e-47
4.76972e-47
4.76989e-47
4.76992e-47
4.76989e-47
4.76983e-47
4.76976e-47
4.76968e-47
4.76959e-47
4.76951e-47
4.76941e-47
4.76932e-47
4.76922e-47
4.76911e-47
4.769e-47
4.76889e-47
4.76877e-47
4.76865e-47
4.76853e-47
4.7684e-47
4.76827e-47
4.76813e-47
4.76799e-47
4.76785e-47
4.7677e-47
4.76755e-47
4.7674e-47
4.76725e-47
4.76709e-47
4.76693e-47
4.76676e-47
4.7666e-47
4.76643e-47
4.76625e-47
4.76608e-47
4.7659e-47
4.76572e-47
4.76554e-47
4.76536e-47
4.76517e-47
4.76498e-47
4.76479e-47
4.7646e-47
4.7644e-47
4.76421e-47
4.76401e-47
4.76381e-47
4.76361e-47
4.76341e-47
4.7632e-47
4.763e-47
4.76279e-47
4.76258e-47
4.76237e-47
4.76216e-47
4.76194e-47
4.76173e-47
4.76152e-47
4.7613e-47
4.76108e-47
4.76087e-47
4.76065e-47
4.76043e-47
4.76021e-47
4.75999e-47
4.75976e-47
4.75954e-47
4.75932e-47
4.75909e-47
4.75887e-47
4.75865e-47
4.75842e-47
4.75819e-47
4.75797e-47
4.75774e-47
4.75751e-47
4.75728e-47
4.75705e-47
4.75682e-47
4.75659e-47
4.75636e-47
4.75613e-47
4.7559e-47
4.75567e-47
4.75544e-47
4.7552e-47
4.75497e-47
4.75473e-47
4.7545e-47
4.75426e-47
4.75402e-47
4.75378e-47
4.75354e-47
4.7533e-47
4.75306e-47
4.75282e-47
4.75257e-47
4.75233e-47
4.75208e-47
4.75183e-47
4.75157e-47
4.75132e-47
4.75106e-47
4.7508e-47
4.75053e-47
4.75026e-47
4.74996e-47
4.74957e-47
4.74885e-47
4.74696e-47
4.74099e-47
4.71992e-47
4.69379e-47
4.71293e-47
4.72525e-47
4.73349e-47
4.73894e-47
4.74225e-47
4.74404e-47
4.74486e-47
4.7451e-47
4.74504e-47
4.7448e-47
4.74448e-47
4.74411e-47
4.74371e-47
4.74329e-47
4.74285e-47
4.7424e-47
4.74192e-47
4.74143e-47
4.74092e-47
4.74039e-47
4.73984e-47
4.73927e-47
4.73867e-47
4.73805e-47
4.73741e-47
4.73673e-47
4.73603e-47
4.7353e-47
4.73454e-47
4.73375e-47
4.73292e-47
4.73206e-47
4.73116e-47
4.73023e-47
4.72925e-47
4.72823e-47
4.72716e-47
4.72605e-47
4.7249e-47
4.72369e-47
4.72244e-47
4.72113e-47
4.71976e-47
4.71834e-47
4.71686e-47
4.71532e-47
4.71372e-47
4.71205e-47
4.71032e-47
4.70851e-47
4.70664e-47
4.7047e-47
4.70268e-47
4.70058e-47
4.6984e-47
4.69615e-47
4.69381e-47
4.69139e-47
4.68889e-47
4.68629e-47
4.68361e-47
4.68084e-47
4.67797e-47
4.67502e-47
4.67196e-47
4.66882e-47
4.66557e-47
4.66223e-47
4.65879e-47
4.65525e-47
4.65161e-47
4.64787e-47
4.64403e-47
4.64009e-47
4.63605e-47
4.63191e-47
4.62767e-47
4.62333e-47
4.61889e-47
4.61435e-47
4.60972e-47
4.60499e-47
4.60017e-47
4.59526e-47
4.59026e-47
4.58517e-47
4.57999e-47
4.57473e-47
4.56939e-47
4.56397e-47
4.55847e-47
4.55291e-47
4.54727e-47
4.54157e-47
4.5358e-47
4.52998e-47
4.5241e-47
4.51817e-47
4.51219e-47
4.50617e-47
4.5001e-47
4.49403e-47
4.48807e-47
4.48309e-47
4.48494e-47
4.53681e-47
4.9895e-47
9.01833e-47
4.82488e-46
4.59794e-45
4.98036e-44
5.57454e-43
6.29181e-42
7.07841e-41
7.88251e-40
8.64891e-39
9.31999e-38
9.84093e-37
1.01685e-35
1.02813e-34
1.01873e-33
9.92434e-33
9.54885e-32
9.11368e-31
8.64519e-30
1.04561e-28
9.72037e-28
8.7899e-27
7.80491e-26
6.80211e-25
5.81423e-24
4.87053e-23
3.99519e-22
3.20626e-21
2.51517e-20
1.92679e-19
1.44006e-18
1.04904e-17
7.44153e-17
5.13609e-16
3.44665e-15
2.2476e-14
1.42365e-13
8.75464e-13
5.22265e-12
3.01941e-11
1.7049e-10
9.41006e-10
5.05469e-09
2.63622e-08
1.3497e-07
7.11847e-07
4.26718e-06
2.95813e-05
0.000179876
0.000538393
0.00078334
0.0009392
0.00129746
0.00203699
0.0031257
0.004464
0.00566044
0.00666996
0.00746654
0.00807097
0.0085218
0.00885818
0.00911332
0.00931306
0.00947644
0.0096168
0.00974278
0.00985937
0.00996872
0.0100709
0.0101644
0.010247
0.0103158
0.010368
0.0104012
0.0104132
0.0104025
0.0103685
0.0103112
0.0102313
0.0101332
0.0100195
0.00988944
0.00974482
0.0095876
0.00941994
0.009244
0.00906196
0.00887592
0.00868788
0.00849969
0.00831301
0.00812935
0.00795
0.00777608
0.00760853
0.00744809
0.00729535
0.00715076
0.00701459
0.00688703
0.00676813
0.00665784
0.00655603
0.00646249
0.00637695
0.00629907
0.00622848
0.00616479
0.00610757
0.00605637
0.00601074
0.00597026
0.00593448
0.00590297
0.00587532
0.00585117
0.00583013
0.00581187
0.00579608
0.00578248
0.00577079
0.00576078
0.00575224
0.00574497
0.00573881
0.00573361
0.00572922
0.00572553
0.00572245
0.00571988
0.00571774
0.00571596
0.0057145
0.00571329
0.0057123
0.00571149
0.00571082
0.00571027
0.00570982
0.00570943
0.00570908
0.00570873
0.00570829
0.00570801
0.00570811
0.00570818
0.00570824
0.00570829
0.00570833
0.00570837
0.00570841
0.00570844
0.00570847
0.0057085
0.00570853
0.00570856
0.00570859
0.00570862
0.00570865
0.00570868
0.00570871
0.00570874
0.00570877
0.0057088
0.00570882
0.00570885
0.00570888
0.00570891
0.00570894
0.00570897
0.00570899
0.00570902
0.00570905
0.00570908
0.0057091
0.00570913
0.00570915
0.00570918
0.00570921
0.00570923
0.00570926
0.00570928
0.00570931
0.00570934
0.00570936
0.00570939
0.00570941
0.00570944
0.00570946
0.00570949
0.00570951
0.00570953
0.00570956
0.00570958
0.0057096
0.00570963
0.00570965
0.00570967
0.00570969
0.00570972
0.00570974
0.00570976
0.00570978
0.0057098
0.00570982
0.00570984
0.00570986
0.00570988
0.0057099
0.00570992
0.00570993
0.00570995
0.00570997
0.00570998
0.00571
0.00571001
0.00571003
0.00571004
0.00571006
0.00571007
0.00571008
0.00571009
0.0057101
0.00571012
0.00571013
0.00571014
0.00571014
0.00571015
0.00571016
0.00571017
0.00571017
0.00571018
0.00571018
0.00571019
0.00571019
0.00571019
0.0057102
0.0057102
0.0057102
0.0057102
0.0057102
0.0057102
0.00571019
0.00571019
0.00571019
0.00571018
0.00571018
0.00571017
0.00571017
0.00571016
0.00571015
0.00571014
0.00571013
0.00571012
0.00571011
0.0057101
0.00571009
0.00571007
0.00571006
0.00571005
0.00571003
0.00571002
0.00571
0.00570999
0.00570998
0.00570997
0.00570996
)
;

boundaryField
{
    boundary
    {
        type            empty;
    }
    inlet
    {
        type            fixedValue;
        value           uniform 0;
    }
    outlet
    {
        type            zeroGradient;
    }
}


// ************************************************************************* //
