/*--------------------------------*- C++ -*----------------------------------*\
  =========                 |
  \\      /  F ield         | OpenFOAM: The Open Source CFD Toolbox
   \\    /   O peration     | Website:  https://openfoam.org
    \\  /    A nd           | Version:  7
     \\/     M anipulation  |
\*---------------------------------------------------------------------------*/
FoamFile
{
    version     2.0;
    format      ascii;
    class       volScalarField;
    location    "6e-05";
    object      p;
}
// * * * * * * * * * * * * * * * * * * * * * * * * * * * * * * * * * * * * * //

dimensions      [1 -1 -2 0 0 0 0];

internalField   nonuniform List<scalar> 
500
(
102882
102882
102882
102882
102882
102882
102882
102882
102882
102882
102881
102881
102881
102881
102881
102881
102880
102880
102880
102879
102879
102879
102879
102878
102878
102878
102877
102877
102876
102876
102876
102875
102875
102874
102874
102873
102873
102872
102872
102871
102871
102870
102869
102869
102868
102868
102867
102866
102866
102865
102864
102863
102863
102862
102861
102861
102860
102859
102858
102857
102857
102856
102855
102854
102853
102852
102852
102851
102850
102849
102848
102847
102846
102845
102844
102843
102842
102841
102840
102839
102838
102837
102836
102835
102834
102833
102832
102831
102830
102829
102828
102826
102825
102824
102823
102822
102821
102820
102819
102817
102816
102815
102814
102813
102812
102810
102809
102808
102807
102806
102804
102803
102802
102801
102799
102798
102797
102796
102794
102793
102792
102791
102789
102788
102787
102786
102784
102783
102782
102780
102779
102778
102777
102775
102774
102773
102771
102770
102769
102767
102766
102765
102763
102762
102761
102760
102758
102757
102756
102754
102753
102752
102750
102749
102748
102746
102745
102744
102742
102741
102740
102739
102737
102736
102735
102733
102732
102731
102730
102728
102727
102726
102725
102723
102722
102721
102720
102718
102717
102716
102715
102714
102713
102711
102710
102709
102708
102707
102706
102705
102703
102702
102701
102700
102699
102698
102697
102696
102695
102694
102693
102692
102691
102690
102689
102688
102687
102686
102685
102684
102684
102683
102682
102681
102680
102679
102678
102677
102676
102676
102675
102674
102673
102672
102671
102670
102670
102669
102668
102667
102666
102665
102665
102664
102663
102662
102661
102660
102659
102659
102658
102657
102656
102655
102654
102653
102652
102652
102651
102650
102649
102648
102647
102646
102645
102645
102644
102643
102642
102641
102640
102639
102639
102638
102637
102636
102635
102635
102634
102633
102632
102631
102631
102630
102629
102628
102628
102627
102626
102625
102624
102622
102620
102617
102614
102612
102610
102608
102607
102605
102604
102603
102602
102601
102601
102600
102599
102599
102598
102598
102597
102597
102596
102596
102595
102595
102594
102594
102593
102593
102593
102592
102592
102591
102591
102590
102590
102590
102589
102589
102588
102588
102588
102587
102587
102587
102586
102586
102585
102585
102585
102584
102584
102583
102583
102583
102582
102582
102581
102581
102581
102580
102580
102580
102579
102579
102578
102578
102578
102577
102577
102576
102576
102576
102575
102575
102574
102574
102574
102573
102573
102573
102572
102572
102571
102571
102571
102570
102570
102570
102569
102569
102569
102568
102568
102567
102567
102567
102566
102566
102565
102564
102564
102563
102563
102562
102562
102561
102561
102560
102560
102560
102559
102559
102558
102558
102557
102557
102556
102556
102555
102555
102554
102554
102553
102553
102552
102552
102551
102551
102550
102550
102549
102549
102548
102548
102547
102547
102546
102546
102545
102545
102544
102544
102543
102543
102542
102542
102541
102541
102540
102540
102539
102539
102538
102538
102537
102537
102536
102535
102535
102534
102534
102533
102533
102532
102532
102531
102531
102530
102530
102529
102529
102528
102527
102527
102526
102526
102525
102525
102524
102524
102523
102522
102522
102521
102521
102520
102519
102519
102518
102518
102517
102517
102516
102515
102515
102514
102513
102513
102512
102512
102511
102510
102510
102509
102508
102508
102507
102506
102506
102505
102504
102503
102503
102502
102501
102501
102500
102499
)
;

boundaryField
{
    boundary
    {
        type            empty;
    }
    inlet
    {
        type            zeroGradient;
    }
    outlet
    {
        type            waveTransmissive;
        gamma           1.4;
        value           uniform 102499;
    }
}


// ************************************************************************* //
