/*--------------------------------*- C++ -*----------------------------------*\
  =========                 |
  \\      /  F ield         | OpenFOAM: The Open Source CFD Toolbox
   \\    /   O peration     | Website:  https://openfoam.org
    \\  /    A nd           | Version:  7
     \\/     M anipulation  |
\*---------------------------------------------------------------------------*/
FoamFile
{
    version     2.0;
    format      ascii;
    class       surfaceScalarField;
    location    "6e-05";
    object      phi;
}
// * * * * * * * * * * * * * * * * * * * * * * * * * * * * * * * * * * * * * //

dimensions      [1 0 -1 0 0 0 0];

internalField   nonuniform List<scalar> 
499
(
6.90143e-06
6.88844e-06
6.87562e-06
6.8636e-06
6.85272e-06
6.84304e-06
6.8344e-06
6.82655e-06
6.81924e-06
6.81224e-06
6.80542e-06
6.7987e-06
6.79203e-06
6.78539e-06
6.77878e-06
6.77218e-06
6.7656e-06
6.75904e-06
6.7525e-06
6.74598e-06
6.73948e-06
6.73299e-06
6.72654e-06
6.7201e-06
6.71369e-06
6.7073e-06
6.70093e-06
6.6946e-06
6.68829e-06
6.682e-06
6.67575e-06
6.66952e-06
6.66332e-06
6.65716e-06
6.65102e-06
6.64492e-06
6.63884e-06
6.6328e-06
6.62679e-06
6.62082e-06
6.61488e-06
6.60897e-06
6.6031e-06
6.59726e-06
6.59146e-06
6.5857e-06
6.57997e-06
6.57427e-06
6.56862e-06
6.563e-06
6.55742e-06
6.55187e-06
6.54637e-06
6.5409e-06
6.53546e-06
6.53007e-06
6.52471e-06
6.51939e-06
6.51411e-06
6.50887e-06
6.50366e-06
6.49849e-06
6.49336e-06
6.48827e-06
6.48321e-06
6.47819e-06
6.4732e-06
6.46825e-06
6.46334e-06
6.45846e-06
6.45362e-06
6.44881e-06
6.44404e-06
6.4393e-06
6.43459e-06
6.42991e-06
6.42527e-06
6.42066e-06
6.41608e-06
6.41153e-06
6.40701e-06
6.40252e-06
6.39806e-06
6.39362e-06
6.38921e-06
6.38483e-06
6.38047e-06
6.37614e-06
6.37183e-06
6.36754e-06
6.36327e-06
6.35903e-06
6.3548e-06
6.3506e-06
6.34641e-06
6.34224e-06
6.33808e-06
6.33394e-06
6.32982e-06
6.3257e-06
6.3216e-06
6.31751e-06
6.31343e-06
6.30936e-06
6.30529e-06
6.30123e-06
6.29718e-06
6.29313e-06
6.28908e-06
6.28503e-06
6.28099e-06
6.27694e-06
6.27289e-06
6.26883e-06
6.26477e-06
6.26071e-06
6.25663e-06
6.25255e-06
6.24845e-06
6.24435e-06
6.24023e-06
6.23609e-06
6.23194e-06
6.22777e-06
6.22358e-06
6.21937e-06
6.21513e-06
6.21086e-06
6.20658e-06
6.20226e-06
6.19792e-06
6.19355e-06
6.18915e-06
6.18471e-06
6.18024e-06
6.17572e-06
6.17117e-06
6.16658e-06
6.16194e-06
6.15726e-06
6.15253e-06
6.14775e-06
6.14292e-06
6.13803e-06
6.13309e-06
6.12809e-06
6.12303e-06
6.1179e-06
6.11271e-06
6.10745e-06
6.10212e-06
6.09672e-06
6.09124e-06
6.08568e-06
6.08004e-06
6.07432e-06
6.06852e-06
6.06262e-06
6.05663e-06
6.05055e-06
6.04437e-06
6.03809e-06
6.03171e-06
6.02522e-06
6.01863e-06
6.01192e-06
6.0051e-06
5.99816e-06
5.9911e-06
5.98392e-06
5.97661e-06
5.96918e-06
5.96161e-06
5.95391e-06
5.94607e-06
5.9381e-06
5.92998e-06
5.92173e-06
5.91332e-06
5.90477e-06
5.89607e-06
5.88722e-06
5.87822e-06
5.86906e-06
5.85975e-06
5.85028e-06
5.84065e-06
5.83087e-06
5.82093e-06
5.81082e-06
5.80056e-06
5.79015e-06
5.77957e-06
5.76884e-06
5.75795e-06
5.74691e-06
5.73571e-06
5.72436e-06
5.71287e-06
5.70123e-06
5.68944e-06
5.67752e-06
5.66545e-06
5.65326e-06
5.64093e-06
5.62848e-06
5.61591e-06
5.60322e-06
5.59043e-06
5.57752e-06
5.56452e-06
5.55142e-06
5.53823e-06
5.52496e-06
5.51162e-06
5.4982e-06
5.48472e-06
5.47118e-06
5.45759e-06
5.44396e-06
5.43029e-06
5.41659e-06
5.40286e-06
5.38911e-06
5.37535e-06
5.36159e-06
5.34782e-06
5.33407e-06
5.32032e-06
5.30659e-06
5.29288e-06
5.27919e-06
5.26554e-06
5.25193e-06
5.23835e-06
5.22482e-06
5.21133e-06
5.1979e-06
5.18452e-06
5.17119e-06
5.15792e-06
5.1447e-06
5.13155e-06
5.11846e-06
5.10543e-06
5.09247e-06
5.07956e-06
5.06673e-06
5.05395e-06
5.04124e-06
5.02858e-06
5.01595e-06
5.00341e-06
4.99095e-06
4.97854e-06
4.96621e-06
4.95393e-06
4.94172e-06
4.92957e-06
4.91749e-06
4.90547e-06
4.89351e-06
4.88161e-06
4.86978e-06
4.85802e-06
4.84633e-06
4.8347e-06
4.82315e-06
4.81167e-06
4.80026e-06
4.78893e-06
4.77768e-06
4.76652e-06
4.75557e-06
4.74544e-06
4.73869e-06
4.745e-06
4.79593e-06
4.96615e-06
5.30956e-06
5.69168e-06
5.96332e-06
6.12504e-06
6.22422e-06
6.29072e-06
6.33793e-06
6.37038e-06
6.39351e-06
6.40901e-06
6.41908e-06
6.42451e-06
6.42549e-06
6.42168e-06
6.4125e-06
6.39723e-06
6.3753e-06
6.34629e-06
6.31007e-06
6.2668e-06
6.21693e-06
6.16116e-06
6.10042e-06
6.03578e-06
5.96837e-06
5.89936e-06
5.82989e-06
5.76102e-06
5.69368e-06
5.6287e-06
5.56676e-06
5.50839e-06
5.454e-06
5.40669e-06
5.36317e-06
5.32354e-06
5.28782e-06
5.25598e-06
5.22791e-06
5.20348e-06
5.18249e-06
5.16473e-06
5.14995e-06
5.13789e-06
5.12828e-06
5.12085e-06
5.11534e-06
5.11147e-06
5.109e-06
5.10769e-06
5.10734e-06
5.10773e-06
5.10871e-06
5.1101e-06
5.11179e-06
5.11365e-06
5.11558e-06
5.11752e-06
5.11939e-06
5.12114e-06
5.12275e-06
5.12418e-06
5.12542e-06
5.12645e-06
5.12728e-06
5.1279e-06
5.12832e-06
5.12855e-06
5.12859e-06
5.12847e-06
5.12818e-06
5.12775e-06
5.12718e-06
5.12649e-06
5.12569e-06
5.12479e-06
5.1238e-06
5.12274e-06
5.1216e-06
5.1204e-06
5.11915e-06
5.11785e-06
5.11651e-06
5.11514e-06
5.11373e-06
5.1123e-06
5.11084e-06
5.10936e-06
5.10786e-06
5.10635e-06
5.10482e-06
5.10328e-06
5.10173e-06
5.10017e-06
5.0986e-06
5.09702e-06
5.09544e-06
5.09386e-06
5.09226e-06
5.09066e-06
5.08905e-06
5.08744e-06
5.08581e-06
5.08418e-06
5.08255e-06
5.08091e-06
5.07927e-06
5.07762e-06
5.07596e-06
5.0743e-06
5.07263e-06
5.07096e-06
5.06928e-06
5.0676e-06
5.06591e-06
5.06422e-06
5.06252e-06
5.06081e-06
5.0591e-06
5.05738e-06
5.05566e-06
5.05393e-06
5.0522e-06
5.05046e-06
5.04871e-06
5.04696e-06
5.04521e-06
5.04344e-06
5.04168e-06
5.0399e-06
5.03812e-06
5.03634e-06
5.03455e-06
5.03276e-06
5.03096e-06
5.02915e-06
5.02734e-06
5.02553e-06
5.02371e-06
5.02189e-06
5.02006e-06
5.01822e-06
5.01639e-06
5.01454e-06
5.0127e-06
5.01084e-06
5.00899e-06
5.00713e-06
5.00526e-06
5.00339e-06
5.00152e-06
4.99964e-06
4.99776e-06
4.99588e-06
4.99399e-06
4.99209e-06
4.9902e-06
4.9883e-06
4.98639e-06
4.98448e-06
4.98257e-06
4.98066e-06
4.97873e-06
4.97681e-06
4.97488e-06
4.97295e-06
4.97101e-06
4.96907e-06
4.96713e-06
4.96518e-06
4.96323e-06
4.96127e-06
4.9593e-06
4.95733e-06
4.95536e-06
4.95338e-06
4.9514e-06
4.94941e-06
4.94741e-06
4.94541e-06
4.9434e-06
4.94139e-06
4.93936e-06
4.93733e-06
4.9353e-06
4.93325e-06
4.9312e-06
4.92914e-06
4.92706e-06
4.92498e-06
4.92289e-06
4.92079e-06
4.91868e-06
4.91656e-06
4.91442e-06
4.91228e-06
4.91012e-06
4.90794e-06
4.90576e-06
4.90356e-06
4.90134e-06
4.89911e-06
4.89686e-06
4.8946e-06
4.89232e-06
4.89002e-06
4.88771e-06
4.88537e-06
4.88302e-06
4.88064e-06
4.87825e-06
4.87583e-06
4.87339e-06
4.87093e-06
4.86844e-06
4.86593e-06
4.8634e-06
4.86084e-06
4.85825e-06
4.85563e-06
)
;

boundaryField
{
    boundary
    {
        type            empty;
        value           nonuniform 0();
    }
    inlet
    {
        type            calculated;
        value           uniform -6.9136e-06;
    }
    outlet
    {
        type            calculated;
        value           uniform 4.85299e-06;
    }
}


// ************************************************************************* //
