/*--------------------------------*- C++ -*----------------------------------*\
  =========                 |
  \\      /  F ield         | OpenFOAM: The Open Source CFD Toolbox
   \\    /   O peration     | Website:  https://openfoam.org
    \\  /    A nd           | Version:  7
     \\/     M anipulation  |
\*---------------------------------------------------------------------------*/
FoamFile
{
    version     2.0;
    format      ascii;
    class       volScalarField;
    location    "6e-05";
    object      Qdot;
}
// * * * * * * * * * * * * * * * * * * * * * * * * * * * * * * * * * * * * * //

dimensions      [1 -1 -3 0 0 0 0];

internalField   nonuniform List<scalar> 
500
(
-2.53165e-27
-2.11782e-27
-2.13824e-27
-2.24033e-27
-2.33698e-27
-2.40793e-27
-2.45315e-27
-2.47898e-27
-2.49241e-27
-2.49884e-27
-2.50166e-27
-2.50278e-27
-2.50316e-27
-2.50321e-27
-2.50314e-27
-2.50302e-27
-2.50287e-27
-2.50271e-27
-2.50253e-27
-2.50235e-27
-2.50215e-27
-2.50194e-27
-2.50173e-27
-2.50151e-27
-2.50127e-27
-2.50103e-27
-2.50078e-27
-2.50051e-27
-2.50024e-27
-2.49996e-27
-2.49967e-27
-2.49937e-27
-2.49906e-27
-2.49875e-27
-2.49842e-27
-2.49809e-27
-2.49774e-27
-2.49739e-27
-2.49703e-27
-2.49666e-27
-2.49628e-27
-2.4959e-27
-2.4955e-27
-2.4951e-27
-2.49469e-27
-2.49427e-27
-2.49384e-27
-2.4934e-27
-2.49296e-27
-2.49251e-27
-2.49205e-27
-2.49159e-27
-2.49111e-27
-2.49063e-27
-2.49014e-27
-2.48965e-27
-2.48915e-27
-2.48864e-27
-2.48812e-27
-2.4876e-27
-2.48707e-27
-2.48654e-27
-2.486e-27
-2.48545e-27
-2.4849e-27
-2.48434e-27
-2.48377e-27
-2.4832e-27
-2.48263e-27
-2.48205e-27
-2.48146e-27
-2.48087e-27
-2.48028e-27
-2.47968e-27
-2.47907e-27
-2.47846e-27
-2.47785e-27
-2.47723e-27
-2.47661e-27
-2.47598e-27
-2.47535e-27
-2.47472e-27
-2.47408e-27
-2.47344e-27
-2.4728e-27
-2.47215e-27
-2.4715e-27
-2.47085e-27
-2.4702e-27
-2.46954e-27
-2.46888e-27
-2.46822e-27
-2.46755e-27
-2.46689e-27
-2.46622e-27
-2.46555e-27
-2.46488e-27
-2.4642e-27
-2.46353e-27
-2.46285e-27
-2.46217e-27
-2.4615e-27
-2.46082e-27
-2.46013e-27
-2.45945e-27
-2.45877e-27
-2.45808e-27
-2.4574e-27
-2.45671e-27
-2.45602e-27
-2.45533e-27
-2.45465e-27
-2.45396e-27
-2.45326e-27
-2.45257e-27
-2.45188e-27
-2.45119e-27
-2.45049e-27
-2.44979e-27
-2.4491e-27
-2.4484e-27
-2.4477e-27
-2.44702e-27
-2.44651e-27
-2.44724e-27
-2.44652e-27
-2.44408e-27
-2.44315e-27
-2.44253e-27
-2.44192e-27
-2.44126e-27
-2.44058e-27
-2.43987e-27
-2.43915e-27
-2.43842e-27
-2.43769e-27
-2.43695e-27
-2.43621e-27
-2.43546e-27
-2.4347e-27
-2.43394e-27
-2.43318e-27
-2.4324e-27
-2.43162e-27
-2.43083e-27
-2.43004e-27
-2.42923e-27
-2.42842e-27
-2.42759e-27
-2.42676e-27
-2.42591e-27
-2.42505e-27
-2.42419e-27
-2.4233e-27
-2.42241e-27
-2.4215e-27
-2.42058e-27
-2.41964e-27
-2.41868e-27
-2.41771e-27
-2.41672e-27
-2.41572e-27
-2.41469e-27
-2.41365e-27
-2.41258e-27
-2.4115e-27
-2.41039e-27
-2.40926e-27
-2.40811e-27
-2.40694e-27
-2.40574e-27
-2.40452e-27
-2.40327e-27
-2.40199e-27
-2.40069e-27
-2.39936e-27
-2.398e-27
-2.39661e-27
-2.3952e-27
-2.39375e-27
-2.39228e-27
-2.39077e-27
-2.38923e-27
-2.38767e-27
-2.38607e-27
-2.38443e-27
-2.38277e-27
-2.38107e-27
-2.37934e-27
-2.37758e-27
-2.37579e-27
-2.37396e-27
-2.3721e-27
-2.37021e-27
-2.36829e-27
-2.36633e-27
-2.36434e-27
-2.36232e-27
-2.36027e-27
-2.35819e-27
-2.35608e-27
-2.35394e-27
-2.35177e-27
-2.34957e-27
-2.34735e-27
-2.3451e-27
-2.34282e-27
-2.34052e-27
-2.3382e-27
-2.33585e-27
-2.33348e-27
-2.33109e-27
-2.32869e-27
-2.32626e-27
-2.32382e-27
-2.32136e-27
-2.31888e-27
-2.3164e-27
-2.3139e-27
-2.31139e-27
-2.30887e-27
-2.30634e-27
-2.3038e-27
-2.30126e-27
-2.29871e-27
-2.29615e-27
-2.29359e-27
-2.29103e-27
-2.28846e-27
-2.28589e-27
-2.28327e-27
-2.28039e-27
-2.27595e-27
-2.26218e-27
-2.19259e-27
-1.78884e-27
6.12869e-28
1.49464e-26
1.00441e-25
6.09744e-25
3.63993e-24
2.16504e-23
1.28643e-22
7.64338e-22
4.54531e-21
2.70818e-20
1.61863e-19
9.71728e-19
5.86786e-18
3.56949e-17
2.19092e-16
1.26516e-15
8.09309e-15
5.30953e-14
3.53133e-13
2.37749e-12
1.61758e-11
1.10971e-10
7.65563e-10
5.29539e-09
3.6611e-08
2.52221e-07
1.72632e-06
1.17064e-05
7.84697e-05
0.000518842
0.0033789
0.0216533
0.136506
0.846853
5.17498
33.2969
233.032
1842.63
14327.7
115142
985835
8.8955e+06
8.11189e+07
6.51797e+08
3.37702e+09
8.90454e+09
1.25642e+10
1.32011e+10
1.31369e+10
1.30357e+10
1.22319e+10
1.0605e+10
8.739e+09
7.09926e+09
5.7658e+09
4.72917e+09
3.92688e+09
3.29785e+09
2.7949e+09
2.38462e+09
2.04388e+09
1.75681e+09
1.51238e+09
1.30273e+09
1.1221e+09
9.6609e+08
8.31239e+08
7.14707e+08
6.14092e+08
5.27322e+08
4.52583e+08
3.8828e+08
3.33007e+08
2.85534e+08
2.44796e+08
2.09905e+08
1.80737e+08
1.55896e+08
1.34238e+08
1.1545e+08
9.91101e+07
8.49097e+07
7.25721e+07
6.18617e+07
5.25704e+07
4.45216e+07
3.75591e+07
3.15481e+07
2.63694e+07
2.19193e+07
1.8106e+07
1.48481e+07
1.20752e+07
9.72337e+06
7.73868e+06
6.06979e+06
4.676e+06
3.52051e+06
2.56336e+06
1.77831e+06
1.14256e+06
626115
214724
-110623
-364369
-556804
-701352
-806826
-880536
-928652
-956686
-968840
-968704
-960814
-944272
-924281
-901064
-876367
-851306
-825773
-801152
-777903
-755548
-735223
-716135
-699183
-683936
-670044
-658267
-647796
-637796
-630027
-623219
-617206
-612204
-606671
-604910
-604761
-610875
-630719
-637370
-619682
-610528
-605198
-602224
-600703
-600104
-600077
-600382
-600895
-601547
-602313
-603099
-604006
-604825
-605652
-606488
-607334
-608190
-609055
-609930
-610813
-611704
-612601
-613504
-614410
-615315
-616227
-617146
-618069
-618992
-619921
-620536
-621482
-622428
-623374
-624321
-625270
-626222
-627173
-628122
-629075
-630030
-630979
-631891
-632842
-633810
-634787
-635769
-636752
-637720
-638706
-639706
-640743
-641753
-642755
-643754
-644752
-645749
-646743
-647737
-649053
-650038
-651008
-651982
-652960
-653936
-654911
-655882
-656849
-658003
-658961
-659616
-660563
-661500
-662430
-663352
-664265
-665171
-666068
-666956
-667833
-668690
-669529
-670301
-671109
-671921
-672718
-673500
-674275
-675046
-675834
-676658
-677780
-678641
-679386
-680070
-680717
-681335
-681926
-682485
-682996
-683844
-684019
-684258
-684658
-685091
-685524
-685938
-686329
-686703
-687058
-687396
-686812
-687123
-687415
-687692
-687954
-688206
-688456
-688719
-689020
-689394
-689824
)
;

boundaryField
{
    boundary
    {
        type            empty;
    }
    inlet
    {
        type            calculated;
        value           uniform 0;
    }
    outlet
    {
        type            calculated;
        value           uniform 0;
    }
}


// ************************************************************************* //
