/*--------------------------------*- C++ -*----------------------------------*\
  =========                 |
  \\      /  F ield         | OpenFOAM: The Open Source CFD Toolbox
   \\    /   O peration     | Website:  https://openfoam.org
    \\  /    A nd           | Version:  7
     \\/     M anipulation  |
\*---------------------------------------------------------------------------*/
FoamFile
{
    version     2.0;
    format      ascii;
    class       volScalarField;
    location    "6e-05";
    object      rho;
}
// * * * * * * * * * * * * * * * * * * * * * * * * * * * * * * * * * * * * * //

dimensions      [1 -3 0 0 0 0 0];

internalField   nonuniform List<scalar> 
500
(
0.862098
0.861349
0.860656
0.860076
0.859635
0.859329
0.859134
0.85902
0.858958
0.858926
0.85891
0.858903
0.858899
0.858897
0.858895
0.858894
0.858892
0.858891
0.858889
0.858887
0.858885
0.858884
0.858882
0.858879
0.858877
0.858875
0.858873
0.85887
0.858868
0.858865
0.858863
0.85886
0.858857
0.858854
0.858851
0.858848
0.858845
0.858842
0.858838
0.858835
0.858831
0.858828
0.858824
0.85882
0.858816
0.858812
0.858808
0.858804
0.8588
0.858796
0.858791
0.858787
0.858783
0.858778
0.858773
0.858769
0.858764
0.858759
0.858754
0.858749
0.858744
0.858739
0.858733
0.858728
0.858723
0.858717
0.858712
0.858706
0.8587
0.858695
0.858689
0.858683
0.858677
0.858671
0.858665
0.858659
0.858653
0.858646
0.85864
0.858634
0.858627
0.858621
0.858614
0.858608
0.858601
0.858594
0.858587
0.858581
0.858574
0.858567
0.85856
0.858553
0.858545
0.858538
0.858531
0.858524
0.858517
0.858509
0.858502
0.858494
0.858487
0.858479
0.858472
0.858464
0.858456
0.858449
0.858441
0.858433
0.858425
0.858417
0.85841
0.858402
0.858394
0.858386
0.858378
0.85837
0.858362
0.858353
0.858345
0.858337
0.858329
0.858321
0.858313
0.858305
0.858298
0.858292
0.858283
0.858273
0.858264
0.858255
0.858247
0.858238
0.85823
0.858221
0.858213
0.858205
0.858196
0.858188
0.85818
0.858172
0.858163
0.858155
0.858147
0.858139
0.858131
0.858122
0.858114
0.858106
0.858098
0.85809
0.858082
0.858074
0.858067
0.858059
0.858051
0.858043
0.858036
0.858028
0.858021
0.858014
0.858006
0.857999
0.857992
0.857985
0.857978
0.857972
0.857965
0.857958
0.857952
0.857946
0.85794
0.857934
0.857928
0.857922
0.857917
0.857911
0.857906
0.857901
0.857896
0.857892
0.857887
0.857883
0.857879
0.857875
0.857871
0.857868
0.857864
0.857861
0.857858
0.857856
0.857853
0.857851
0.857849
0.857847
0.857846
0.857845
0.857844
0.857843
0.857842
0.857842
0.857842
0.857842
0.857842
0.857842
0.857843
0.857844
0.857845
0.857846
0.857848
0.85785
0.857851
0.857854
0.857856
0.857858
0.857861
0.857863
0.857866
0.857869
0.857872
0.857876
0.857879
0.857882
0.857886
0.857889
0.857893
0.857897
0.857901
0.857905
0.857908
0.857912
0.857916
0.85792
0.857924
0.857928
0.857932
0.857936
0.85794
0.857945
0.857949
0.857953
0.857957
0.857961
0.857965
0.857969
0.857973
0.857977
0.857982
0.857986
0.857991
0.857996
0.858002
0.85801
0.858012
0.858016
0.858021
0.858026
0.858031
0.858037
0.858043
0.858049
0.858056
0.858063
0.85807
0.858078
0.858086
0.858095
0.858103
0.858112
0.858122
0.858132
0.858142
0.858153
0.858165
0.858166
0.8581
0.857679
0.855667
0.847209
0.816326
0.73162
0.591167
0.455815
0.362683
0.303671
0.264415
0.237203
0.217329
0.202921
0.192793
0.185545
0.17995
0.17547
0.171738
0.168506
0.165609
0.162933
0.160401
0.157962
0.155586
0.153258
0.150974
0.148739
0.14656
0.14445
0.142421
0.140487
0.138658
0.136944
0.135351
0.133883
0.132543
0.131332
0.130278
0.129353
0.128528
0.127799
0.127163
0.126612
0.126142
0.125745
0.125415
0.125146
0.124931
0.124763
0.124637
0.124547
0.124487
0.124453
0.12444
0.124443
0.12446
0.124487
0.124521
0.124561
0.124604
0.124648
0.124692
0.124736
0.124779
0.124819
0.124857
0.124892
0.124925
0.124954
0.124981
0.125005
0.125026
0.125045
0.125062
0.125077
0.12509
0.125101
0.12511
0.125118
0.125125
0.12513
0.125135
0.125139
0.125142
0.125145
0.125147
0.125148
0.125149
0.12515
0.125151
0.125151
0.125151
0.125151
0.125151
0.12515
0.12515
0.12515
0.125149
0.125148
0.125147
0.125146
0.125146
0.125145
0.125144
0.125143
0.125142
0.125142
0.125141
0.12514
0.125139
0.125138
0.125137
0.125136
0.125135
0.125134
0.125133
0.125132
0.125131
0.12513
0.125129
0.125129
0.125128
0.125127
0.125126
0.125125
0.125124
0.125123
0.125122
0.125121
0.12512
0.125119
0.125118
0.125118
0.125117
0.125116
0.125115
0.125114
0.125113
0.125112
0.125111
0.12511
0.125109
0.125108
0.125107
0.125106
0.125106
0.125105
0.125104
0.125103
0.125102
0.125101
0.1251
0.125099
0.125098
0.125097
0.125096
0.125095
0.125094
0.125094
0.125093
0.125092
0.125091
0.12509
0.125089
0.125088
0.125087
0.125086
0.125085
0.125084
0.125084
0.125083
0.125082
0.125081
0.12508
0.125079
0.125078
0.125077
0.125076
0.125076
0.125075
0.125074
0.125073
0.125072
0.125071
0.12507
0.12507
0.125069
0.125068
0.125067
0.125066
0.125065
0.125065
0.125064
0.125063
0.125062
0.125061
0.125061
0.12506
0.125059
0.125058
0.125057
0.125057
0.125056
0.125055
0.125054
0.125054
0.125053
0.125052
0.125051
0.12505
0.12505
0.125049
0.125048
0.125047
0.125047
0.125046
0.125045
0.125044
0.125044
0.125043
0.125042
0.125041
0.12504
0.125039
0.125039
)
;

boundaryField
{
    boundary
    {
        type            empty;
    }
    inlet
    {
        type            calculated;
        value           uniform 0.86261;
    }
    outlet
    {
        type            calculated;
        value           uniform 0.125038;
    }
}


// ************************************************************************* //
