/*--------------------------------*- C++ -*----------------------------------*\
  =========                 |
  \\      /  F ield         | OpenFOAM: The Open Source CFD Toolbox
   \\    /   O peration     | Website:  https://openfoam.org
    \\  /    A nd           | Version:  7
     \\/     M anipulation  |
\*---------------------------------------------------------------------------*/
FoamFile
{
    version     2.0;
    format      ascii;
    class       volScalarField;
    location    "6e-05";
    object      T;
}
// * * * * * * * * * * * * * * * * * * * * * * * * * * * * * * * * * * * * * //

dimensions      [0 0 0 1 0 0 0];

internalField   nonuniform List<scalar> 
500
(
300.178
300.439
300.681
300.884
301.038
301.145
301.213
301.253
301.274
301.285
301.29
301.292
301.293
301.293
301.293
301.293
301.293
301.293
301.293
301.292
301.292
301.292
301.292
301.291
301.291
301.291
301.291
301.29
301.29
301.29
301.289
301.289
301.289
301.288
301.288
301.288
301.287
301.287
301.287
301.286
301.286
301.285
301.285
301.284
301.284
301.284
301.283
301.283
301.282
301.282
301.281
301.281
301.28
301.28
301.279
301.278
301.278
301.277
301.277
301.276
301.276
301.275
301.274
301.274
301.273
301.273
301.272
301.271
301.271
301.27
301.269
301.269
301.268
301.267
301.267
301.266
301.265
301.265
301.264
301.263
301.263
301.262
301.261
301.26
301.26
301.259
301.258
301.258
301.257
301.256
301.255
301.255
301.254
301.253
301.252
301.252
301.251
301.25
301.249
301.248
301.248
301.247
301.246
301.245
301.245
301.244
301.243
301.242
301.241
301.241
301.24
301.239
301.238
301.237
301.237
301.236
301.235
301.234
301.233
301.232
301.232
301.231
301.23
301.229
301.228
301.226
301.226
301.225
301.224
301.224
301.223
301.222
301.221
301.221
301.22
301.219
301.218
301.217
301.216
301.215
301.214
301.213
301.212
301.211
301.21
301.209
301.208
301.207
301.206
301.205
301.204
301.203
301.202
301.201
301.2
301.199
301.197
301.196
301.195
301.194
301.192
301.191
301.19
301.189
301.187
301.186
301.184
301.183
301.181
301.18
301.178
301.177
301.175
301.174
301.172
301.17
301.168
301.167
301.165
301.163
301.161
301.159
301.157
301.155
301.153
301.151
301.149
301.146
301.144
301.142
301.139
301.137
301.135
301.132
301.129
301.127
301.124
301.121
301.119
301.116
301.113
301.11
301.107
301.104
301.101
301.098
301.095
301.092
301.088
301.085
301.082
301.078
301.075
301.071
301.068
301.064
301.061
301.057
301.054
301.05
301.046
301.042
301.039
301.035
301.031
301.027
301.024
301.02
301.016
301.012
301.008
301.004
301
300.996
300.992
300.989
300.985
300.981
300.977
300.973
300.969
300.965
300.961
300.957
300.953
300.949
300.945
300.941
300.936
300.932
300.927
300.922
300.919
300.915
300.911
300.906
300.902
300.897
300.893
300.888
300.883
300.878
300.873
300.868
300.863
300.858
300.852
300.847
300.841
300.835
300.83
300.824
300.821
300.827
300.875
301.092
301.988
305.47
318.113
357.28
446.599
586.196
745.838
901.142
1045.34
1174.39
1288.98
1384.71
1460.89
1520.64
1570.16
1612.2
1648.99
1682.21
1713.14
1742.73
1771.68
1800.5
1829.51
1858.91
1888.75
1919
1949.52
1980.14
2010.65
2040.79
2070.32
2099.01
2126.62
2152.97
2177.89
2201.23
2222.3
2241.41
2259.09
2275.3
2290.05
2303.38
2315.34
2325.99
2335.42
2343.72
2350.96
2357.24
2362.66
2367.31
2371.28
2374.65
2377.49
2379.89
2381.9
2383.57
2384.97
2386.14
2387.11
2387.91
2388.59
2389.15
2389.62
2390.01
2390.35
2390.63
2390.87
2391.08
2391.25
2391.41
2391.54
2391.66
2391.76
2391.85
2391.93
2392
2392.06
2392.11
2392.16
2392.21
2392.25
2392.28
2392.31
2392.34
2392.37
2392.39
2392.41
2392.43
2392.45
2392.46
2392.48
2392.49
2392.51
2392.52
2392.53
2392.54
2392.55
2392.56
2392.58
2392.59
2392.6
2392.61
2392.61
2392.62
2392.62
2392.63
2392.63
2392.64
2392.65
2392.65
2392.66
2392.66
2392.67
2392.68
2392.68
2392.69
2392.7
2392.7
2392.71
2392.72
2392.72
2392.73
2392.73
2392.74
2392.75
2392.75
2392.76
2392.76
2392.77
2392.78
2392.78
2392.79
2392.8
2392.8
2392.81
2392.81
2392.82
2392.83
2392.83
2392.84
2392.84
2392.85
2392.86
2392.86
2392.87
2392.87
2392.88
2392.88
2392.89
2392.9
2392.9
2392.91
2392.91
2392.92
2392.92
2392.93
2392.94
2392.94
2392.95
2392.95
2392.96
2392.96
2392.97
2392.97
2392.98
2392.98
2392.99
2392.99
2393
2393
2393.01
2393.01
2393.01
2393.02
2393.02
2393.03
2393.03
2393.04
2393.04
2393.04
2393.05
2393.05
2393.05
2393.06
2393.06
2393.06
2393.06
2393.07
2393.07
2393.07
2393.07
2393.08
2393.08
2393.08
2393.08
2393.08
2393.08
2393.09
2393.09
2393.09
2393.09
2393.09
2393.09
2393.09
2393.09
2393.09
2393.09
2393.09
2393.09
2393.09
2393.09
2393.09
2393.09
2393.08
2393.08
2393.08
2393.08
2393.08
2393.08
2393.07
2393.07
2393.07
2393.07
2393.07
)
;

boundaryField
{
    boundary
    {
        type            empty;
    }
    inlet
    {
        type            fixedValue;
        value           uniform 300;
    }
    outlet
    {
        type            zeroGradient;
    }
}


// ************************************************************************* //
