/*--------------------------------*- C++ -*----------------------------------*\
  =========                 |
  \\      /  F ield         | OpenFOAM: The Open Source CFD Toolbox
   \\    /   O peration     | Website:  https://openfoam.org
    \\  /    A nd           | Version:  7
     \\/     M anipulation  |
\*---------------------------------------------------------------------------*/
FoamFile
{
    version     2.0;
    format      ascii;
    class       volVectorField;
    location    "6e-05";
    object      U;
}
// * * * * * * * * * * * * * * * * * * * * * * * * * * * * * * * * * * * * * //

dimensions      [0 1 -1 0 0 0 0];

internalField   nonuniform List<vector> 
500
(
(2.34888 0 0)
(2.34719 0 0)
(2.34369 0 0)
(2.34052 0 0)
(2.33793 0 0)
(2.33541 0 0)
(2.33285 0 0)
(2.33034 0 0)
(2.32796 0 0)
(2.32559 0 0)
(2.3233 0 0)
(2.32102 0 0)
(2.31873 0 0)
(2.31647 0 0)
(2.31422 0 0)
(2.31198 0 0)
(2.30972 0 0)
(2.30749 0 0)
(2.30527 0 0)
(2.30304 0 0)
(2.30082 0 0)
(2.2986 0 0)
(2.2964 0 0)
(2.29421 0 0)
(2.29202 0 0)
(2.28985 0 0)
(2.28766 0 0)
(2.28553 0 0)
(2.2834 0 0)
(2.28121 0 0)
(2.27906 0 0)
(2.27696 0 0)
(2.27486 0 0)
(2.27275 0 0)
(2.27066 0 0)
(2.26858 0 0)
(2.26651 0 0)
(2.26445 0 0)
(2.2624 0 0)
(2.26037 0 0)
(2.25834 0 0)
(2.25633 0 0)
(2.25433 0 0)
(2.25234 0 0)
(2.25037 0 0)
(2.24841 0 0)
(2.24646 0 0)
(2.24452 0 0)
(2.24259 0 0)
(2.24068 0 0)
(2.23878 0 0)
(2.23689 0 0)
(2.23502 0 0)
(2.23316 0 0)
(2.23131 0 0)
(2.22947 0 0)
(2.22765 0 0)
(2.22584 0 0)
(2.22404 0 0)
(2.22226 0 0)
(2.22049 0 0)
(2.21873 0 0)
(2.21699 0 0)
(2.21526 0 0)
(2.21354 0 0)
(2.21183 0 0)
(2.21014 0 0)
(2.20846 0 0)
(2.20679 0 0)
(2.20513 0 0)
(2.20349 0 0)
(2.20186 0 0)
(2.20024 0 0)
(2.19863 0 0)
(2.19703 0 0)
(2.19545 0 0)
(2.19387 0 0)
(2.19231 0 0)
(2.19076 0 0)
(2.18922 0 0)
(2.18768 0 0)
(2.18616 0 0)
(2.18465 0 0)
(2.18315 0 0)
(2.18166 0 0)
(2.18017 0 0)
(2.1787 0 0)
(2.17723 0 0)
(2.17577 0 0)
(2.17433 0 0)
(2.17288 0 0)
(2.17145 0 0)
(2.17002 0 0)
(2.1686 0 0)
(2.16718 0 0)
(2.16577 0 0)
(2.16438 0 0)
(2.16298 0 0)
(2.16158 0 0)
(2.16019 0 0)
(2.15881 0 0)
(2.15743 0 0)
(2.15605 0 0)
(2.15468 0 0)
(2.15331 0 0)
(2.15194 0 0)
(2.15058 0 0)
(2.1492 0 0)
(2.14785 0 0)
(2.14649 0 0)
(2.14511 0 0)
(2.14375 0 0)
(2.14239 0 0)
(2.14103 0 0)
(2.13966 0 0)
(2.13829 0 0)
(2.13692 0 0)
(2.13554 0 0)
(2.13416 0 0)
(2.13279 0 0)
(2.1314 0 0)
(2.13 0 0)
(2.12862 0 0)
(2.12721 0 0)
(2.12572 0 0)
(2.12429 0 0)
(2.12302 0 0)
(2.12161 0 0)
(2.12009 0 0)
(2.11864 0 0)
(2.1172 0 0)
(2.11573 0 0)
(2.11426 0 0)
(2.11277 0 0)
(2.11127 0 0)
(2.10976 0 0)
(2.10824 0 0)
(2.1067 0 0)
(2.10514 0 0)
(2.10357 0 0)
(2.10199 0 0)
(2.10038 0 0)
(2.09876 0 0)
(2.09712 0 0)
(2.09547 0 0)
(2.09379 0 0)
(2.09209 0 0)
(2.09037 0 0)
(2.08863 0 0)
(2.08686 0 0)
(2.08508 0 0)
(2.08326 0 0)
(2.08142 0 0)
(2.07956 0 0)
(2.07768 0 0)
(2.07576 0 0)
(2.07379 0 0)
(2.07181 0 0)
(2.0698 0 0)
(2.06776 0 0)
(2.06569 0 0)
(2.06358 0 0)
(2.06143 0 0)
(2.05925 0 0)
(2.05703 0 0)
(2.05477 0 0)
(2.05248 0 0)
(2.05015 0 0)
(2.04776 0 0)
(2.04535 0 0)
(2.0429 0 0)
(2.0404 0 0)
(2.03784 0 0)
(2.03524 0 0)
(2.03261 0 0)
(2.02992 0 0)
(2.02719 0 0)
(2.0244 0 0)
(2.02156 0 0)
(2.01868 0 0)
(2.01574 0 0)
(2.01276 0 0)
(2.00971 0 0)
(2.00663 0 0)
(2.00348 0 0)
(2.00027 0 0)
(1.99703 0 0)
(1.99373 0 0)
(1.99035 0 0)
(1.98692 0 0)
(1.98346 0 0)
(1.97994 0 0)
(1.97635 0 0)
(1.97272 0 0)
(1.96903 0 0)
(1.96528 0 0)
(1.96149 0 0)
(1.95764 0 0)
(1.95373 0 0)
(1.94979 0 0)
(1.94578 0 0)
(1.94174 0 0)
(1.93764 0 0)
(1.93349 0 0)
(1.9293 0 0)
(1.92506 0 0)
(1.92079 0 0)
(1.91647 0 0)
(1.91211 0 0)
(1.90772 0 0)
(1.90329 0 0)
(1.89883 0 0)
(1.89433 0 0)
(1.88981 0 0)
(1.88525 0 0)
(1.88068 0 0)
(1.87608 0 0)
(1.87145 0 0)
(1.86681 0 0)
(1.86215 0 0)
(1.85748 0 0)
(1.8528 0 0)
(1.8481 0 0)
(1.8434 0 0)
(1.83869 0 0)
(1.83398 0 0)
(1.82927 0 0)
(1.82456 0 0)
(1.81985 0 0)
(1.81516 0 0)
(1.81046 0 0)
(1.80576 0 0)
(1.80108 0 0)
(1.79642 0 0)
(1.79177 0 0)
(1.78712 0 0)
(1.7825 0 0)
(1.77789 0 0)
(1.7733 0 0)
(1.76873 0 0)
(1.76418 0 0)
(1.75964 0 0)
(1.75514 0 0)
(1.75064 0 0)
(1.74616 0 0)
(1.74169 0 0)
(1.73727 0 0)
(1.73288 0 0)
(1.72848 0 0)
(1.7241 0 0)
(1.71969 0 0)
(1.71537 0 0)
(1.7112 0 0)
(1.70692 0 0)
(1.70261 0 0)
(1.69835 0 0)
(1.69417 0 0)
(1.68997 0 0)
(1.68577 0 0)
(1.68163 0 0)
(1.67752 0 0)
(1.67341 0 0)
(1.66931 0 0)
(1.66524 0 0)
(1.6612 0 0)
(1.65717 0 0)
(1.6532 0 0)
(1.64923 0 0)
(1.64527 0 0)
(1.64132 0 0)
(1.63743 0 0)
(1.63356 0 0)
(1.62972 0 0)
(1.62596 0 0)
(1.62239 0 0)
(1.62018 0 0)
(1.62425 0 0)
(1.65017 0 0)
(1.73884 0 0)
(1.97239 0 0)
(2.48701 0 0)
(3.41802 0 0)
(4.58796 0 0)
(5.76639 0 0)
(6.82634 0 0)
(7.74401 0 0)
(8.53084 0 0)
(9.19036 0 0)
(9.71908 0 0)
(10.1315 0 0)
(10.46 0 0)
(10.7319 0 0)
(10.963 0 0)
(11.1625 0 0)
(11.3366 0 0)
(11.4897 0 0)
(11.6248 0 0)
(11.7438 0 0)
(11.8482 0 0)
(11.9389 0 0)
(12.0167 0 0)
(12.0821 0 0)
(12.1359 0 0)
(12.1787 0 0)
(12.2113 0 0)
(12.2344 0 0)
(12.2491 0 0)
(12.2562 0 0)
(12.2567 0 0)
(12.2521 0 0)
(12.2426 0 0)
(12.2294 0 0)
(12.2143 0 0)
(12.1985 0 0)
(12.182 0 0)
(12.165 0 0)
(12.1481 0 0)
(12.1317 0 0)
(12.1161 0 0)
(12.1015 0 0)
(12.0882 0 0)
(12.0762 0 0)
(12.0657 0 0)
(12.0566 0 0)
(12.0489 0 0)
(12.0426 0 0)
(12.0375 0 0)
(12.0335 0 0)
(12.0304 0 0)
(12.0283 0 0)
(12.0268 0 0)
(12.0259 0 0)
(12.0255 0 0)
(12.0254 0 0)
(12.0255 0 0)
(12.0258 0 0)
(12.026 0 0)
(12.0263 0 0)
(12.0266 0 0)
(12.0266 0 0)
(12.0266 0 0)
(12.0263 0 0)
(12.0258 0 0)
(12.0253 0 0)
(12.0243 0 0)
(12.0232 0 0)
(12.0219 0 0)
(12.0204 0 0)
(12.0187 0 0)
(12.0169 0 0)
(12.0148 0 0)
(12.0126 0 0)
(12.0102 0 0)
(12.0077 0 0)
(12.0051 0 0)
(12.0023 0 0)
(11.9995 0 0)
(11.9966 0 0)
(11.9936 0 0)
(11.9905 0 0)
(11.9873 0 0)
(11.9841 0 0)
(11.9808 0 0)
(11.9775 0 0)
(11.9742 0 0)
(11.9708 0 0)
(11.9674 0 0)
(11.964 0 0)
(11.9605 0 0)
(11.9571 0 0)
(11.9536 0 0)
(11.9501 0 0)
(11.9466 0 0)
(11.9439 0 0)
(11.9406 0 0)
(11.9373 0 0)
(11.9334 0 0)
(11.9268 0 0)
(11.9225 0 0)
(11.9209 0 0)
(11.9175 0 0)
(11.9138 0 0)
(11.9099 0 0)
(11.9061 0 0)
(11.9023 0 0)
(11.8985 0 0)
(11.8947 0 0)
(11.8908 0 0)
(11.887 0 0)
(11.8831 0 0)
(11.8793 0 0)
(11.8754 0 0)
(11.8715 0 0)
(11.8676 0 0)
(11.8637 0 0)
(11.8598 0 0)
(11.8559 0 0)
(11.8519 0 0)
(11.848 0 0)
(11.844 0 0)
(11.8401 0 0)
(11.8361 0 0)
(11.8321 0 0)
(11.8281 0 0)
(11.824 0 0)
(11.82 0 0)
(11.816 0 0)
(11.8119 0 0)
(11.8078 0 0)
(11.8038 0 0)
(11.7997 0 0)
(11.7956 0 0)
(11.7914 0 0)
(11.7873 0 0)
(11.7832 0 0)
(11.779 0 0)
(11.7749 0 0)
(11.7707 0 0)
(11.7665 0 0)
(11.7623 0 0)
(11.7581 0 0)
(11.7539 0 0)
(11.7496 0 0)
(11.7454 0 0)
(11.7412 0 0)
(11.7369 0 0)
(11.7326 0 0)
(11.7283 0 0)
(11.7241 0 0)
(11.7198 0 0)
(11.7155 0 0)
(11.7111 0 0)
(11.7068 0 0)
(11.7025 0 0)
(11.6981 0 0)
(11.6938 0 0)
(11.6894 0 0)
(11.685 0 0)
(11.6807 0 0)
(11.6763 0 0)
(11.6719 0 0)
(11.6674 0 0)
(11.663 0 0)
(11.6586 0 0)
(11.6542 0 0)
(11.6497 0 0)
(11.6453 0 0)
(11.6408 0 0)
(11.6363 0 0)
(11.6318 0 0)
(11.6273 0 0)
(11.6228 0 0)
(11.6183 0 0)
(11.6137 0 0)
(11.6092 0 0)
(11.6046 0 0)
(11.6 0 0)
(11.5954 0 0)
(11.5908 0 0)
(11.5862 0 0)
(11.5816 0 0)
(11.5769 0 0)
(11.5723 0 0)
(11.5676 0 0)
(11.5629 0 0)
(11.5581 0 0)
(11.5534 0 0)
(11.5486 0 0)
(11.5438 0 0)
(11.539 0 0)
(11.5342 0 0)
(11.5293 0 0)
(11.5244 0 0)
(11.5195 0 0)
(11.5146 0 0)
(11.5096 0 0)
(11.5046 0 0)
(11.4995 0 0)
(11.4945 0 0)
(11.4894 0 0)
(11.4842 0 0)
(11.4791 0 0)
(11.4738 0 0)
(11.4686 0 0)
(11.4633 0 0)
(11.458 0 0)
(11.4526 0 0)
(11.4472 0 0)
(11.4417 0 0)
(11.4362 0 0)
(11.4306 0 0)
(11.425 0 0)
(11.4193 0 0)
(11.4136 0 0)
(11.4078 0 0)
(11.4019 0 0)
(11.3961 0 0)
(11.3901 0 0)
(11.3834 0 0)
(11.3752 0 0)
)
;

boundaryField
{
    boundary
    {
        type            empty;
    }
    inlet
    {
        type            fixedValue;
        value           uniform (2.34893 0 0);
    }
    outlet
    {
        type            zeroGradient;
    }
}


// ************************************************************************* //
