/*--------------------------------*- C++ -*----------------------------------*\
  =========                 |
  \\      /  F ield         | OpenFOAM: The Open Source CFD Toolbox
   \\    /   O peration     | Website:  https://openfoam.org
    \\  /    A nd           | Version:  7
     \\/     M anipulation  |
\*---------------------------------------------------------------------------*/
FoamFile
{
    version     2.0;
    format      ascii;
    class       volScalarField;
    location    "0.00084";
    object      HO2;
}
// * * * * * * * * * * * * * * * * * * * * * * * * * * * * * * * * * * * * * //

dimensions      [0 0 0 0 0 0 0];

internalField   nonuniform List<scalar> 
125
(
8.96115e-19
3.75089e-18
1.56761e-17
6.55023e-17
2.73716e-16
1.14391e-15
4.78137e-15
1.99895e-14
8.35921e-14
3.49673e-13
1.46319e-12
6.12469e-12
2.56445e-11
1.07399e-10
4.49833e-10
1.88401e-09
7.88859e-09
3.30108e-08
1.37916e-07
5.73864e-07
2.36119e-06
9.50271e-06
3.6366e-05
0.000124145
0.000326274
0.000507939
0.000496883
0.000396994
0.00028758
0.000202328
0.00014169
9.89868e-05
6.9544e-05
5.02162e-05
3.53603e-05
2.72366e-05
2.19876e-05
1.84989e-05
1.60928e-05
1.43615e-05
1.30614e-05
1.20458e-05
1.12249e-05
1.05422e-05
9.96157e-06
9.4587e-06
9.01694e-06
8.62444e-06
8.27251e-06
7.95455e-06
7.66548e-06
7.40127e-06
7.15866e-06
6.935e-06
6.72806e-06
6.53599e-06
6.35721e-06
6.19039e-06
6.03439e-06
5.88827e-06
5.75126e-06
5.62656e-06
5.51044e-06
5.40002e-06
5.2949e-06
5.19471e-06
5.09909e-06
5.00774e-06
4.92039e-06
4.83678e-06
4.75668e-06
4.67986e-06
4.60615e-06
4.53535e-06
4.46731e-06
4.40186e-06
4.33888e-06
4.27821e-06
4.21975e-06
4.16337e-06
4.10898e-06
4.05648e-06
4.00577e-06
3.95676e-06
3.90938e-06
3.86355e-06
3.8192e-06
3.77627e-06
3.73469e-06
3.6944e-06
3.65535e-06
3.61749e-06
3.58076e-06
3.54512e-06
3.51053e-06
3.47694e-06
3.44431e-06
3.41261e-06
3.3818e-06
3.35184e-06
3.32271e-06
3.29437e-06
3.26679e-06
3.23995e-06
3.21381e-06
3.18835e-06
3.16354e-06
3.13937e-06
3.1158e-06
3.09282e-06
3.0704e-06
3.04853e-06
3.02718e-06
3.00634e-06
2.98599e-06
2.96611e-06
2.94668e-06
2.9277e-06
2.90914e-06
2.89099e-06
2.87324e-06
2.85589e-06
2.83892e-06
2.82233e-06
2.80613e-06
)
;

boundaryField
{
    boundary
    {
        type            empty;
    }
    inlet
    {
        type            fixedValue;
        value           nonuniform 0();
    }
    outlet
    {
        type            zeroGradient;
    }
    procBoundary1to0
    {
        type            processor;
        value           uniform 2.79026e-06;
    }
    procBoundary1to3
    {
        type            processor;
        value           uniform 2.1358e-19;
    }
}


// ************************************************************************* //
