/*--------------------------------*- C++ -*----------------------------------*\
  =========                 |
  \\      /  F ield         | OpenFOAM: The Open Source CFD Toolbox
   \\    /   O peration     | Website:  https://openfoam.org
    \\  /    A nd           | Version:  7
     \\/     M anipulation  |
\*---------------------------------------------------------------------------*/
FoamFile
{
    version     2.0;
    format      ascii;
    class       volScalarField;
    location    "7e-05";
    object      H;
}
// * * * * * * * * * * * * * * * * * * * * * * * * * * * * * * * * * * * * * //

dimensions      [0 0 0 0 0 0 0];

internalField   nonuniform List<scalar> 
124
(
7.50692e-05
7.50338e-05
7.50066e-05
7.49856e-05
7.49693e-05
7.49566e-05
7.49466e-05
7.49388e-05
7.49328e-05
7.4928e-05
7.49244e-05
7.49215e-05
7.49193e-05
7.49175e-05
7.49162e-05
7.49152e-05
7.49144e-05
7.49138e-05
7.49134e-05
7.49131e-05
7.49129e-05
7.49127e-05
7.49126e-05
7.49125e-05
7.49124e-05
7.49124e-05
7.49124e-05
7.49124e-05
7.49124e-05
7.49124e-05
7.49124e-05
7.49124e-05
7.49124e-05
7.49124e-05
7.49124e-05
7.49124e-05
7.49124e-05
7.49123e-05
7.49123e-05
7.49123e-05
7.49123e-05
7.49123e-05
7.49123e-05
7.49122e-05
7.49122e-05
7.49122e-05
7.49121e-05
7.49121e-05
7.49121e-05
7.4912e-05
7.4912e-05
7.4912e-05
7.49119e-05
7.49119e-05
7.49118e-05
7.49118e-05
7.49118e-05
7.49117e-05
7.49117e-05
7.49116e-05
7.49116e-05
7.49115e-05
7.49115e-05
7.49114e-05
7.49114e-05
7.49113e-05
7.49113e-05
7.49112e-05
7.49112e-05
7.49111e-05
7.49111e-05
7.49111e-05
7.4911e-05
7.49109e-05
7.49109e-05
7.49108e-05
7.49108e-05
7.49107e-05
7.49107e-05
7.49106e-05
7.49106e-05
7.49105e-05
7.49105e-05
7.49104e-05
7.49104e-05
7.49103e-05
7.49103e-05
7.49102e-05
7.49102e-05
7.49101e-05
7.49101e-05
7.491e-05
7.491e-05
7.49099e-05
7.49099e-05
7.49098e-05
7.49098e-05
7.49097e-05
7.49097e-05
7.49096e-05
7.49096e-05
7.49095e-05
7.49095e-05
7.49094e-05
7.49094e-05
7.49093e-05
7.49093e-05
7.49092e-05
7.49092e-05
7.49092e-05
7.49091e-05
7.49091e-05
7.4909e-05
7.4909e-05
7.49089e-05
7.49089e-05
7.49088e-05
7.49088e-05
7.49088e-05
7.49087e-05
7.49087e-05
7.49087e-05
7.49086e-05
7.49086e-05
)
;

boundaryField
{
    boundary
    {
        type            empty;
    }
    inlet
    {
        type            fixedValue;
        value           nonuniform 0();
    }
    outlet
    {
        type            zeroGradient;
    }
    procBoundary0to1
    {
        type            processor;
        value           uniform 7.51163e-05;
    }
}


// ************************************************************************* //
