/*--------------------------------*- C++ -*----------------------------------*\
  =========                 |
  \\      /  F ield         | OpenFOAM: The Open Source CFD Toolbox
   \\    /   O peration     | Website:  https://openfoam.org
    \\  /    A nd           | Version:  7
     \\/     M anipulation  |
\*---------------------------------------------------------------------------*/
FoamFile
{
    version     2.0;
    format      ascii;
    class       volScalarField;
    location    "7e-05";
    object      H2O2;
}
// * * * * * * * * * * * * * * * * * * * * * * * * * * * * * * * * * * * * * //

dimensions      [0 0 0 0 0 0 0];

internalField   nonuniform List<scalar> 
124
(
1.89522e-07
1.89489e-07
1.89458e-07
1.89432e-07
1.8941e-07
1.89393e-07
1.89378e-07
1.89367e-07
1.89357e-07
1.89349e-07
1.89342e-07
1.89336e-07
1.8933e-07
1.89325e-07
1.8932e-07
1.89316e-07
1.89312e-07
1.89308e-07
1.89304e-07
1.89301e-07
1.89297e-07
1.89293e-07
1.8929e-07
1.89286e-07
1.89283e-07
1.89279e-07
1.89276e-07
1.89273e-07
1.89269e-07
1.89266e-07
1.89262e-07
1.89259e-07
1.89256e-07
1.89252e-07
1.89249e-07
1.89245e-07
1.89242e-07
1.89239e-07
1.89235e-07
1.89232e-07
1.89228e-07
1.89225e-07
1.89222e-07
1.89218e-07
1.89215e-07
1.89212e-07
1.89208e-07
1.89205e-07
1.89202e-07
1.89198e-07
1.89195e-07
1.89192e-07
1.89188e-07
1.89185e-07
1.89182e-07
1.89178e-07
1.89175e-07
1.89172e-07
1.89169e-07
1.89165e-07
1.89162e-07
1.89159e-07
1.89156e-07
1.89153e-07
1.89149e-07
1.89146e-07
1.89143e-07
1.8914e-07
1.89137e-07
1.89134e-07
1.89131e-07
1.89128e-07
1.89125e-07
1.89122e-07
1.89119e-07
1.89116e-07
1.89114e-07
1.89111e-07
1.89108e-07
1.89105e-07
1.89103e-07
1.891e-07
1.89098e-07
1.89095e-07
1.89092e-07
1.8909e-07
1.89088e-07
1.89085e-07
1.89083e-07
1.89081e-07
1.89078e-07
1.89076e-07
1.89074e-07
1.89072e-07
1.8907e-07
1.89068e-07
1.89066e-07
1.89064e-07
1.89062e-07
1.8906e-07
1.89058e-07
1.89057e-07
1.89055e-07
1.89053e-07
1.89052e-07
1.8905e-07
1.89049e-07
1.89047e-07
1.89046e-07
1.89045e-07
1.89043e-07
1.89042e-07
1.89041e-07
1.8904e-07
1.89039e-07
1.89038e-07
1.89037e-07
1.89036e-07
1.89035e-07
1.89034e-07
1.89033e-07
1.89032e-07
1.8903e-07
1.89029e-07
)
;

boundaryField
{
    boundary
    {
        type            empty;
    }
    inlet
    {
        type            fixedValue;
        value           nonuniform 0();
    }
    outlet
    {
        type            zeroGradient;
    }
    procBoundary0to1
    {
        type            processor;
        value           uniform 1.89589e-07;
    }
}


// ************************************************************************* //
