/*--------------------------------*- C++ -*----------------------------------*\
  =========                 |
  \\      /  F ield         | OpenFOAM: The Open Source CFD Toolbox
   \\    /   O peration     | Website:  https://openfoam.org
    \\  /    A nd           | Version:  7
     \\/     M anipulation  |
\*---------------------------------------------------------------------------*/
FoamFile
{
    version     2.0;
    format      ascii;
    class       volScalarField;
    location    "7e-05";
    object      HO2;
}
// * * * * * * * * * * * * * * * * * * * * * * * * * * * * * * * * * * * * * //

dimensions      [0 0 0 0 0 0 0];

internalField   nonuniform List<scalar> 
124
(
1.73266e-06
1.73285e-06
1.73294e-06
1.73299e-06
1.73302e-06
1.73305e-06
1.73308e-06
1.73311e-06
1.73314e-06
1.73316e-06
1.73319e-06
1.73322e-06
1.73324e-06
1.73327e-06
1.73329e-06
1.73332e-06
1.73335e-06
1.73337e-06
1.7334e-06
1.73342e-06
1.73344e-06
1.73347e-06
1.73349e-06
1.73352e-06
1.73354e-06
1.73356e-06
1.73359e-06
1.73361e-06
1.73363e-06
1.73365e-06
1.73368e-06
1.7337e-06
1.73372e-06
1.73374e-06
1.73377e-06
1.73379e-06
1.73381e-06
1.73383e-06
1.73385e-06
1.73388e-06
1.7339e-06
1.73392e-06
1.73394e-06
1.73396e-06
1.73398e-06
1.734e-06
1.73402e-06
1.73405e-06
1.73407e-06
1.73409e-06
1.73411e-06
1.73413e-06
1.73415e-06
1.73417e-06
1.73418e-06
1.7342e-06
1.73422e-06
1.73424e-06
1.73426e-06
1.73428e-06
1.7343e-06
1.73431e-06
1.73433e-06
1.73435e-06
1.73436e-06
1.73438e-06
1.7344e-06
1.73441e-06
1.73443e-06
1.73444e-06
1.73446e-06
1.73447e-06
1.73449e-06
1.7345e-06
1.73451e-06
1.73453e-06
1.73454e-06
1.73455e-06
1.73456e-06
1.73457e-06
1.73458e-06
1.73459e-06
1.7346e-06
1.73461e-06
1.73462e-06
1.73463e-06
1.73464e-06
1.73464e-06
1.73465e-06
1.73465e-06
1.73466e-06
1.73466e-06
1.73467e-06
1.73467e-06
1.73468e-06
1.73468e-06
1.73468e-06
1.73468e-06
1.73468e-06
1.73468e-06
1.73468e-06
1.73468e-06
1.73468e-06
1.73468e-06
1.73467e-06
1.73467e-06
1.73467e-06
1.73466e-06
1.73466e-06
1.73465e-06
1.73465e-06
1.73464e-06
1.73463e-06
1.73462e-06
1.73462e-06
1.73461e-06
1.7346e-06
1.73459e-06
1.73458e-06
1.73457e-06
1.73456e-06
1.73455e-06
1.73454e-06
1.73454e-06
)
;

boundaryField
{
    boundary
    {
        type            empty;
    }
    inlet
    {
        type            fixedValue;
        value           nonuniform 0();
    }
    outlet
    {
        type            zeroGradient;
    }
    procBoundary0to1
    {
        type            processor;
        value           uniform 1.7326e-06;
    }
}


// ************************************************************************* //
