/*--------------------------------*- C++ -*----------------------------------*\
  =========                 |
  \\      /  F ield         | OpenFOAM: The Open Source CFD Toolbox
   \\    /   O peration     | Website:  https://openfoam.org
    \\  /    A nd           | Version:  7
     \\/     M anipulation  |
\*---------------------------------------------------------------------------*/
FoamFile
{
    version     2.0;
    format      ascii;
    class       volScalarField;
    location    "7e-05";
    object      O;
}
// * * * * * * * * * * * * * * * * * * * * * * * * * * * * * * * * * * * * * //

dimensions      [0 0 0 0 0 0 0];

internalField   nonuniform List<scalar> 
124
(
0.000392531
0.000392467
0.000392405
0.000392353
0.00039231
0.000392277
0.000392252
0.000392233
0.000392218
0.000392208
0.0003922
0.000392195
0.000392191
0.000392188
0.000392186
0.000392185
0.000392185
0.000392185
0.000392185
0.000392186
0.000392186
0.000392187
0.000392188
0.000392189
0.00039219
0.000392191
0.000392192
0.000392193
0.000392194
0.000392195
0.000392196
0.000392197
0.000392198
0.000392199
0.0003922
0.000392201
0.000392202
0.000392203
0.000392203
0.000392204
0.000392205
0.000392206
0.000392207
0.000392208
0.000392209
0.00039221
0.00039221
0.000392211
0.000392212
0.000392213
0.000392214
0.000392214
0.000392215
0.000392216
0.000392217
0.000392217
0.000392218
0.000392219
0.00039222
0.00039222
0.000392221
0.000392221
0.000392222
0.000392223
0.000392223
0.000392224
0.000392225
0.000392225
0.000392226
0.000392226
0.000392227
0.000392227
0.000392228
0.000392228
0.000392229
0.000392229
0.000392229
0.00039223
0.00039223
0.00039223
0.000392231
0.000392231
0.000392231
0.000392232
0.000392232
0.000392232
0.000392232
0.000392232
0.000392232
0.000392233
0.000392233
0.000392233
0.000392233
0.000392233
0.000392233
0.000392233
0.000392233
0.000392233
0.000392232
0.000392232
0.000392232
0.000392232
0.000392232
0.000392232
0.000392231
0.000392231
0.000392231
0.00039223
0.00039223
0.00039223
0.000392229
0.000392229
0.000392228
0.000392228
0.000392227
0.000392227
0.000392226
0.000392226
0.000392225
0.000392225
0.000392224
0.000392224
0.000392223
0.000392223
)
;

boundaryField
{
    boundary
    {
        type            empty;
    }
    inlet
    {
        type            fixedValue;
        value           nonuniform 0();
    }
    outlet
    {
        type            zeroGradient;
    }
    procBoundary0to1
    {
        type            processor;
        value           uniform 0.000392673;
    }
}


// ************************************************************************* //
