/*--------------------------------*- C++ -*----------------------------------*\
  =========                 |
  \\      /  F ield         | OpenFOAM: The Open Source CFD Toolbox
   \\    /   O peration     | Website:  https://openfoam.org
    \\  /    A nd           | Version:  7
     \\/     M anipulation  |
\*---------------------------------------------------------------------------*/
FoamFile
{
    version     2.0;
    format      ascii;
    class       volScalarField;
    location    "7e-05";
    object      p;
}
// * * * * * * * * * * * * * * * * * * * * * * * * * * * * * * * * * * * * * //

dimensions      [1 -1 -2 0 0 0 0];

internalField   nonuniform List<scalar> 
124
(
102705
102705
102704
102704
102703
102703
102702
102702
102701
102701
102700
102700
102699
102699
102698
102698
102697
102697
102696
102695
102695
102694
102694
102693
102693
102692
102692
102691
102691
102690
102689
102689
102688
102688
102687
102687
102686
102685
102685
102684
102684
102683
102682
102682
102681
102681
102680
102679
102679
102678
102678
102677
102676
102676
102675
102674
102674
102673
102672
102672
102671
102670
102670
102669
102668
102668
102667
102666
102666
102665
102664
102664
102663
102662
102662
102661
102660
102659
102659
102658
102657
102657
102656
102655
102654
102654
102653
102652
102651
102651
102650
102649
102648
102648
102647
102646
102645
102645
102644
102643
102642
102641
102641
102640
102639
102638
102638
102637
102636
102635
102634
102634
102633
102632
102631
102630
102630
102629
102628
102627
102626
102626
102625
102624
)
;

boundaryField
{
    boundary
    {
        type            empty;
    }
    inlet
    {
        type            zeroGradient;
    }
    outlet
    {
        type            waveTransmissive;
        gamma           1.4;
        value           uniform 102624;
    }
    procBoundary0to1
    {
        type            processor;
        value           uniform 102706;
    }
}


// ************************************************************************* //
