/*--------------------------------*- C++ -*----------------------------------*\
  =========                 |
  \\      /  F ield         | OpenFOAM: The Open Source CFD Toolbox
   \\    /   O peration     | Website:  https://openfoam.org
    \\  /    A nd           | Version:  7
     \\/     M anipulation  |
\*---------------------------------------------------------------------------*/
FoamFile
{
    version     2.0;
    format      ascii;
    class       surfaceScalarField;
    location    "7e-05";
    object      phi;
}
// * * * * * * * * * * * * * * * * * * * * * * * * * * * * * * * * * * * * * //

dimensions      [1 0 -1 0 0 0 0];

internalField   nonuniform List<scalar> 
123
(
5.55655e-06
5.55485e-06
5.55313e-06
5.55139e-06
5.54964e-06
5.54788e-06
5.5461e-06
5.54431e-06
5.54251e-06
5.5407e-06
5.53888e-06
5.53704e-06
5.5352e-06
5.53335e-06
5.53148e-06
5.52961e-06
5.52773e-06
5.52584e-06
5.52394e-06
5.52203e-06
5.52011e-06
5.51817e-06
5.51623e-06
5.51428e-06
5.51232e-06
5.51035e-06
5.50837e-06
5.50638e-06
5.50438e-06
5.50237e-06
5.50035e-06
5.49832e-06
5.49627e-06
5.49422e-06
5.49215e-06
5.49008e-06
5.48799e-06
5.48589e-06
5.48378e-06
5.48166e-06
5.47953e-06
5.47738e-06
5.47523e-06
5.47306e-06
5.47088e-06
5.46869e-06
5.46649e-06
5.46427e-06
5.46204e-06
5.45981e-06
5.45755e-06
5.45529e-06
5.45302e-06
5.45073e-06
5.44843e-06
5.44612e-06
5.4438e-06
5.44146e-06
5.43911e-06
5.43675e-06
5.43438e-06
5.432e-06
5.4296e-06
5.42719e-06
5.42477e-06
5.42234e-06
5.41989e-06
5.41744e-06
5.41497e-06
5.41249e-06
5.41e-06
5.4075e-06
5.40498e-06
5.40246e-06
5.39992e-06
5.39737e-06
5.39481e-06
5.39224e-06
5.38966e-06
5.38706e-06
5.38446e-06
5.38184e-06
5.37922e-06
5.37658e-06
5.37394e-06
5.37128e-06
5.36862e-06
5.36594e-06
5.36325e-06
5.36056e-06
5.35785e-06
5.35514e-06
5.35241e-06
5.34968e-06
5.34694e-06
5.34419e-06
5.34143e-06
5.33866e-06
5.33588e-06
5.3331e-06
5.3303e-06
5.3275e-06
5.32469e-06
5.32187e-06
5.31905e-06
5.31622e-06
5.31338e-06
5.31053e-06
5.30768e-06
5.30481e-06
5.30195e-06
5.29907e-06
5.29619e-06
5.2933e-06
5.29041e-06
5.28751e-06
5.2846e-06
5.28169e-06
5.27877e-06
5.27584e-06
5.27291e-06
5.26998e-06
5.26703e-06
)
;

boundaryField
{
    boundary
    {
        type            empty;
        value           nonuniform 0();
    }
    inlet
    {
        type            calculated;
        value           nonuniform 0();
    }
    outlet
    {
        type            calculated;
        value           uniform 5.26409e-06;
    }
    procBoundary0to1
    {
        type            processor;
        value           uniform -5.55825e-06;
    }
}


// ************************************************************************* //
