/*--------------------------------*- C++ -*----------------------------------*\
  =========                 |
  \\      /  F ield         | OpenFOAM: The Open Source CFD Toolbox
   \\    /   O peration     | Website:  https://openfoam.org
    \\  /    A nd           | Version:  7
     \\/     M anipulation  |
\*---------------------------------------------------------------------------*/
FoamFile
{
    version     2.0;
    format      ascii;
    class       volScalarField;
    location    "7e-05";
    object      Qdot;
}
// * * * * * * * * * * * * * * * * * * * * * * * * * * * * * * * * * * * * * //

dimensions      [1 -1 -3 0 0 0 0];

internalField   nonuniform List<scalar> 
124
(
-778337
-738150
-713086
-697331
-687431
-679432
-676151
-673196
-671307
-669719
-669041
-668763
-668823
-669058
-669436
-669929
-670511
-671163
-671868
-672612
-673387
-674184
-674998
-675824
-676659
-677499
-678343
-679189
-680036
-680882
-681728
-682572
-683414
-684253
-685089
-685920
-686747
-687569
-688385
-689196
-690002
-690801
-691594
-692382
-693163
-693938
-694706
-695469
-696225
-696975
-697720
-698457
-699188
-699912
-700629
-701337
-702038
-702731
-703414
-704089
-704754
-705410
-706057
-706694
-707321
-707938
-708544
-709137
-709720
-710291
-710851
-711400
-711937
-712462
-712975
-713475
-713961
-714434
-714893
-715338
-715769
-716187
-716592
-716982
-717357
-717716
-718059
-718386
-718699
-718996
-719278
-719544
-719795
-720030
-720250
-720454
-720643
-720816
-720969
-721104
-721224
-721327
-721416
-721491
-721549
-721590
-721615
-721623
-721615
-721593
-721557
-721506
-721441
-721361
-721266
-721159
-721044
-720920
-720791
-720662
-720543
-720443
-720368
-720323
)
;

boundaryField
{
    boundary
    {
        type            empty;
    }
    inlet
    {
        type            calculated;
        value           nonuniform 0();
    }
    outlet
    {
        type            calculated;
        value           uniform 0;
    }
    procBoundary0to1
    {
        type            processor;
        value           uniform 0;
    }
}


// ************************************************************************* //
