/*--------------------------------*- C++ -*----------------------------------*\
  =========                 |
  \\      /  F ield         | OpenFOAM: The Open Source CFD Toolbox
   \\    /   O peration     | Website:  https://openfoam.org
    \\  /    A nd           | Version:  7
     \\/     M anipulation  |
\*---------------------------------------------------------------------------*/
FoamFile
{
    version     2.0;
    format      ascii;
    class       volScalarField;
    location    "7e-05";
    object      T;
}
// * * * * * * * * * * * * * * * * * * * * * * * * * * * * * * * * * * * * * //

dimensions      [0 0 0 1 0 0 0];

internalField   nonuniform List<scalar> 
124
(
2393.19
2393.19
2393.19
2393.2
2393.2
2393.21
2393.21
2393.22
2393.22
2393.23
2393.23
2393.24
2393.25
2393.25
2393.26
2393.26
2393.27
2393.28
2393.28
2393.29
2393.29
2393.3
2393.31
2393.31
2393.32
2393.32
2393.33
2393.34
2393.34
2393.35
2393.35
2393.36
2393.36
2393.37
2393.38
2393.38
2393.39
2393.39
2393.4
2393.4
2393.41
2393.41
2393.42
2393.42
2393.43
2393.44
2393.44
2393.45
2393.45
2393.46
2393.46
2393.47
2393.47
2393.48
2393.48
2393.49
2393.49
2393.5
2393.5
2393.51
2393.51
2393.51
2393.52
2393.52
2393.53
2393.53
2393.54
2393.54
2393.54
2393.55
2393.55
2393.56
2393.56
2393.56
2393.57
2393.57
2393.57
2393.58
2393.58
2393.58
2393.59
2393.59
2393.59
2393.6
2393.6
2393.6
2393.6
2393.6
2393.61
2393.61
2393.61
2393.61
2393.61
2393.62
2393.62
2393.62
2393.62
2393.62
2393.62
2393.62
2393.62
2393.62
2393.62
2393.62
2393.62
2393.62
2393.62
2393.62
2393.62
2393.62
2393.62
2393.62
2393.62
2393.62
2393.62
2393.62
2393.61
2393.61
2393.61
2393.61
2393.61
2393.61
2393.61
2393.61
)
;

boundaryField
{
    boundary
    {
        type            empty;
    }
    inlet
    {
        type            fixedValue;
        value           nonuniform 0();
    }
    outlet
    {
        type            zeroGradient;
    }
    procBoundary0to1
    {
        type            processor;
        value           uniform 2393.17;
    }
}


// ************************************************************************* //
