/*--------------------------------*- C++ -*----------------------------------*\
  =========                 |
  \\      /  F ield         | OpenFOAM: The Open Source CFD Toolbox
   \\    /   O peration     | Website:  https://openfoam.org
    \\  /    A nd           | Version:  7
     \\/     M anipulation  |
\*---------------------------------------------------------------------------*/
FoamFile
{
    version     2.0;
    format      ascii;
    class       volVectorField;
    location    "7e-05";
    object      U;
}
// * * * * * * * * * * * * * * * * * * * * * * * * * * * * * * * * * * * * * //

dimensions      [0 1 -1 0 0 0 0];

internalField   nonuniform List<vector> 
124
(
(13.0005 0 0)
(12.9969 0 0)
(12.9927 0 0)
(12.9889 0 0)
(12.9848 0 0)
(12.9807 0 0)
(12.9767 0 0)
(12.9726 0 0)
(12.9685 0 0)
(12.9643 0 0)
(12.9602 0 0)
(12.956 0 0)
(12.9518 0 0)
(12.9475 0 0)
(12.9433 0 0)
(12.939 0 0)
(12.9347 0 0)
(12.9304 0 0)
(12.9261 0 0)
(12.9217 0 0)
(12.9173 0 0)
(12.9129 0 0)
(12.9085 0 0)
(12.904 0 0)
(12.8996 0 0)
(12.8951 0 0)
(12.8905 0 0)
(12.886 0 0)
(12.8814 0 0)
(12.8768 0 0)
(12.8722 0 0)
(12.8676 0 0)
(12.8629 0 0)
(12.8582 0 0)
(12.8535 0 0)
(12.8487 0 0)
(12.844 0 0)
(12.8392 0 0)
(12.8344 0 0)
(12.8295 0 0)
(12.8246 0 0)
(12.8197 0 0)
(12.8148 0 0)
(12.8099 0 0)
(12.8049 0 0)
(12.7999 0 0)
(12.7948 0 0)
(12.7898 0 0)
(12.7847 0 0)
(12.7796 0 0)
(12.7744 0 0)
(12.7692 0 0)
(12.764 0 0)
(12.7588 0 0)
(12.7535 0 0)
(12.7482 0 0)
(12.7429 0 0)
(12.7376 0 0)
(12.7322 0 0)
(12.7268 0 0)
(12.7214 0 0)
(12.7159 0 0)
(12.7104 0 0)
(12.7049 0 0)
(12.6994 0 0)
(12.6938 0 0)
(12.6882 0 0)
(12.6826 0 0)
(12.6769 0 0)
(12.6712 0 0)
(12.6655 0 0)
(12.6598 0 0)
(12.654 0 0)
(12.6482 0 0)
(12.6424 0 0)
(12.6365 0 0)
(12.6307 0 0)
(12.6248 0 0)
(12.6188 0 0)
(12.6129 0 0)
(12.6069 0 0)
(12.6009 0 0)
(12.5949 0 0)
(12.5888 0 0)
(12.5828 0 0)
(12.5767 0 0)
(12.5705 0 0)
(12.5644 0 0)
(12.5582 0 0)
(12.552 0 0)
(12.5458 0 0)
(12.5395 0 0)
(12.5333 0 0)
(12.527 0 0)
(12.5207 0 0)
(12.5144 0 0)
(12.508 0 0)
(12.5016 0 0)
(12.4952 0 0)
(12.4888 0 0)
(12.4824 0 0)
(12.4759 0 0)
(12.4695 0 0)
(12.463 0 0)
(12.4565 0 0)
(12.4499 0 0)
(12.4434 0 0)
(12.4368 0 0)
(12.4303 0 0)
(12.4237 0 0)
(12.417 0 0)
(12.4104 0 0)
(12.4038 0 0)
(12.3971 0 0)
(12.3904 0 0)
(12.3837 0 0)
(12.377 0 0)
(12.3703 0 0)
(12.3636 0 0)
(12.3568 0 0)
(12.3501 0 0)
(12.3432 0 0)
(12.3359 0 0)
(12.3273 0 0)
)
;

boundaryField
{
    boundary
    {
        type            empty;
    }
    inlet
    {
        type            fixedValue;
        value           nonuniform 0();
    }
    outlet
    {
        type            zeroGradient;
    }
    procBoundary0to1
    {
        type            processor;
        value           uniform (13.0047 0 0);
    }
}


// ************************************************************************* //
