/*--------------------------------*- C++ -*----------------------------------*\
  =========                 |
  \\      /  F ield         | OpenFOAM: The Open Source CFD Toolbox
   \\    /   O peration     | Website:  https://openfoam.org
    \\  /    A nd           | Version:  7
     \\/     M anipulation  |
\*---------------------------------------------------------------------------*/
FoamFile
{
    version     2.0;
    format      ascii;
    class       volScalarField;
    location    "2e-05";
    object      H;
}
// * * * * * * * * * * * * * * * * * * * * * * * * * * * * * * * * * * * * * //

dimensions      [0 0 0 0 0 0 0];

internalField   nonuniform List<scalar> 
125
(
9.78079e-30
5.86459e-29
3.51361e-28
2.10977e-27
1.26863e-26
7.63296e-26
4.59202e-25
2.76064e-24
1.65768e-23
9.93841e-23
5.94768e-22
3.5524e-21
2.11743e-20
1.25953e-19
7.47752e-19
4.43111e-18
2.62153e-17
1.54874e-16
9.13886e-16
5.38778e-15
3.1743e-14
1.86948e-13
1.16294e-12
7.98056e-12
6.25589e-11
4.74464e-10
3.43085e-09
2.48249e-08
1.79052e-07
1.27422e-06
8.49351e-06
4.60095e-05
0.000168162
0.000388409
0.000689491
0.000989441
0.00122915
0.00134903
0.00135336
0.00128172
0.00117171
0.00104803
0.000924636
0.000808631
0.000703221
0.000609456
0.000527238
0.00045589
0.000394464
0.00034192
0.000297221
0.000259381
0.000227489
0.000200721
0.00017834
0.000159697
0.000144221
0.000131417
0.000120857
0.000112175
0.000105058
9.94116e-05
9.48809e-05
9.11419e-05
8.80662e-05
8.55443e-05
8.34833e-05
8.18044e-05
8.04413e-05
7.93384e-05
7.84489e-05
7.7734e-05
7.71612e-05
7.6704e-05
7.63402e-05
7.60517e-05
7.58237e-05
7.5644e-05
7.5503e-05
7.53926e-05
7.53065e-05
7.52395e-05
7.51875e-05
7.51473e-05
7.51163e-05
7.50925e-05
7.50742e-05
7.50602e-05
7.50495e-05
7.50413e-05
7.5035e-05
7.50302e-05
7.50265e-05
7.50237e-05
7.50215e-05
7.50198e-05
7.50184e-05
7.50174e-05
7.50165e-05
7.50158e-05
7.50152e-05
7.50147e-05
7.50143e-05
7.50139e-05
7.50135e-05
7.50132e-05
7.50129e-05
7.50126e-05
7.50123e-05
7.5012e-05
7.50117e-05
7.50115e-05
7.50112e-05
7.5011e-05
7.50107e-05
7.50105e-05
7.50103e-05
7.50101e-05
7.50099e-05
7.50097e-05
7.50096e-05
7.50095e-05
7.50094e-05
7.50096e-05
7.50103e-05
)
;

boundaryField
{
    boundary
    {
        type            empty;
    }
    inlet
    {
        type            fixedValue;
        value           nonuniform 0();
    }
    outlet
    {
        type            zeroGradient;
    }
    procBoundary1to0
    {
        type            processor;
        value           uniform 7.50091e-05;
    }
    procBoundary1to3
    {
        type            processor;
        value           uniform 1.79286e-30;
    }
}


// ************************************************************************* //
