/*--------------------------------*- C++ -*----------------------------------*\
  =========                 |
  \\      /  F ield         | OpenFOAM: The Open Source CFD Toolbox
   \\    /   O peration     | Website:  https://openfoam.org
    \\  /    A nd           | Version:  7
     \\/     M anipulation  |
\*---------------------------------------------------------------------------*/
FoamFile
{
    version     2.0;
    format      ascii;
    class       volScalarField;
    location    "2e-05";
    object      H2O2;
}
// * * * * * * * * * * * * * * * * * * * * * * * * * * * * * * * * * * * * * //

dimensions      [0 0 0 0 0 0 0];

internalField   nonuniform List<scalar> 
125
(
9.28924e-41
7.06221e-40
8.08235e-39
1.33535e-37
2.58357e-36
5.20559e-35
1.05181e-33
2.10988e-32
4.19191e-31
8.24681e-30
1.60706e-28
3.1037e-27
5.94395e-26
1.12931e-24
2.12905e-23
3.98224e-22
7.38496e-21
1.35609e-19
2.46091e-18
4.40161e-17
7.73353e-16
1.3294e-14
2.22555e-13
3.60919e-12
5.63482e-11
8.40494e-10
1.18501e-08
1.54845e-07
1.78654e-06
1.5769e-05
7.04209e-05
0.000102693
8.65916e-05
4.34276e-05
1.556e-05
7.00732e-06
4.45817e-06
4.00056e-06
3.97738e-06
3.75819e-06
3.28018e-06
2.69464e-06
2.13908e-06
1.6769e-06
1.31812e-06
1.04897e-06
8.49669e-07
7.02061e-07
5.91822e-07
5.08409e-07
4.44337e-07
3.94375e-07
3.54885e-07
3.23322e-07
2.97882e-07
2.7726e-07
2.60488e-07
2.46831e-07
2.35712e-07
2.26673e-07
2.19341e-07
2.13587e-07
2.08996e-07
2.05247e-07
2.02195e-07
1.99719e-07
1.97716e-07
1.96102e-07
1.94805e-07
1.93766e-07
1.92936e-07
1.92275e-07
1.9175e-07
1.91334e-07
1.91005e-07
1.90746e-07
1.90542e-07
1.90382e-07
1.90256e-07
1.90157e-07
1.90079e-07
1.90017e-07
1.89969e-07
1.8993e-07
1.899e-07
1.89875e-07
1.89854e-07
1.89838e-07
1.89823e-07
1.89811e-07
1.89801e-07
1.89792e-07
1.89784e-07
1.89776e-07
1.89769e-07
1.89763e-07
1.89756e-07
1.8975e-07
1.89745e-07
1.89739e-07
1.89734e-07
1.89728e-07
1.89723e-07
1.89718e-07
1.89713e-07
1.89708e-07
1.89703e-07
1.89699e-07
1.89694e-07
1.89689e-07
1.89685e-07
1.8968e-07
1.89676e-07
1.89671e-07
1.89667e-07
1.89663e-07
1.89659e-07
1.89655e-07
1.8965e-07
1.89646e-07
1.89643e-07
1.89639e-07
1.89636e-07
1.89636e-07
1.89646e-07
)
;

boundaryField
{
    boundary
    {
        type            empty;
    }
    inlet
    {
        type            fixedValue;
        value           nonuniform 0();
    }
    outlet
    {
        type            zeroGradient;
    }
    procBoundary1to0
    {
        type            processor;
        value           uniform 1.89645e-07;
    }
    procBoundary1to3
    {
        type            processor;
        value           uniform 1.31705e-41;
    }
}


// ************************************************************************* //
