/*--------------------------------*- C++ -*----------------------------------*\
  =========                 |
  \\      /  F ield         | OpenFOAM: The Open Source CFD Toolbox
   \\    /   O peration     | Website:  https://openfoam.org
    \\  /    A nd           | Version:  7
     \\/     M anipulation  |
\*---------------------------------------------------------------------------*/
FoamFile
{
    version     2.0;
    format      ascii;
    class       volScalarField;
    location    "2e-05";
    object      HO2;
}
// * * * * * * * * * * * * * * * * * * * * * * * * * * * * * * * * * * * * * //

dimensions      [0 0 0 0 0 0 0];

internalField   nonuniform List<scalar> 
125
(
2.74487e-26
1.48077e-25
7.87504e-25
4.18476e-24
2.22539e-23
1.18477e-22
6.31582e-22
3.37071e-21
1.79997e-20
9.613e-20
5.13539e-19
2.74492e-18
1.46832e-17
7.86157e-17
4.21561e-16
2.26874e-15
1.23075e-14
6.78131e-14
3.83785e-13
2.26048e-12
1.40182e-11
9.22392e-11
6.35008e-10
4.45225e-09
3.05042e-08
2.04971e-07
1.35488e-06
8.44815e-06
4.64927e-05
0.000196358
0.000476677
0.000515293
0.000439481
0.000318384
0.000197877
0.000124583
7.43803e-05
4.29397e-05
2.4722e-05
1.45848e-05
8.98417e-06
5.85229e-06
4.06654e-06
3.02889e-06
2.41766e-06
2.05565e-06
1.84232e-06
1.71903e-06
1.65078e-06
1.61628e-06
1.60239e-06
1.60089e-06
1.60655e-06
1.61604e-06
1.62723e-06
1.63876e-06
1.64983e-06
1.65996e-06
1.66894e-06
1.67671e-06
1.68329e-06
1.68862e-06
1.69295e-06
1.69654e-06
1.69949e-06
1.7019e-06
1.70384e-06
1.70542e-06
1.70668e-06
1.70769e-06
1.7085e-06
1.70915e-06
1.70966e-06
1.71008e-06
1.71041e-06
1.71068e-06
1.71089e-06
1.71107e-06
1.71122e-06
1.71134e-06
1.71144e-06
1.71153e-06
1.71161e-06
1.71168e-06
1.71174e-06
1.71179e-06
1.71184e-06
1.71189e-06
1.71193e-06
1.71197e-06
1.71201e-06
1.71205e-06
1.71209e-06
1.71212e-06
1.71216e-06
1.71219e-06
1.71223e-06
1.71226e-06
1.71229e-06
1.71233e-06
1.71236e-06
1.71239e-06
1.71242e-06
1.71245e-06
1.71247e-06
1.7125e-06
1.71253e-06
1.71256e-06
1.71258e-06
1.71261e-06
1.71263e-06
1.71266e-06
1.71268e-06
1.71271e-06
1.71273e-06
1.71275e-06
1.71278e-06
1.7128e-06
1.71282e-06
1.71285e-06
1.71287e-06
1.71289e-06
1.71289e-06
1.71283e-06
1.71256e-06
)
;

boundaryField
{
    boundary
    {
        type            empty;
    }
    inlet
    {
        type            fixedValue;
        value           nonuniform 0();
    }
    outlet
    {
        type            zeroGradient;
    }
    procBoundary1to0
    {
        type            processor;
        value           uniform 1.71249e-06;
    }
    procBoundary1to3
    {
        type            processor;
        value           uniform 4.65156e-27;
    }
}


// ************************************************************************* //
