/*--------------------------------*- C++ -*----------------------------------*\
  =========                 |
  \\      /  F ield         | OpenFOAM: The Open Source CFD Toolbox
   \\    /   O peration     | Website:  https://openfoam.org
    \\  /    A nd           | Version:  7
     \\/     M anipulation  |
\*---------------------------------------------------------------------------*/
FoamFile
{
    version     2.0;
    format      ascii;
    class       volScalarField;
    location    "2e-05";
    object      p;
}
// * * * * * * * * * * * * * * * * * * * * * * * * * * * * * * * * * * * * * //

dimensions      [1 -1 -2 0 0 0 0];

internalField   nonuniform List<scalar> 
125
(
101889
101891
101892
101893
101895
101896
101897
101899
101900
101901
101903
101904
101905
101906
101908
101909
101910
101911
101912
101913
101914
101915
101916
101917
101918
101919
101920
101921
101921
101922
101922
101922
101920
101919
101920
101918
101918
101917
101916
101916
101915
101915
101915
101914
101914
101913
101913
101913
101912
101912
101911
101911
101911
101910
101910
101910
101909
101909
101909
101908
101908
101907
101907
101907
101906
101906
101905
101905
101905
101904
101904
101903
101903
101902
101902
101901
101901
101900
101900
101899
101899
101898
101898
101897
101897
101896
101896
101895
101895
101894
101894
101893
101892
101892
101891
101891
101890
101890
101889
101888
101888
101887
101887
101886
101885
101885
101884
101883
101883
101882
101882
101881
101880
101880
101879
101878
101878
101877
101877
101876
101875
101875
101874
101874
101873
)
;

boundaryField
{
    boundary
    {
        type            empty;
    }
    inlet
    {
        type            zeroGradient;
    }
    outlet
    {
        type            waveTransmissive;
        gamma           1.4;
        value           nonuniform 0();
    }
    procBoundary1to0
    {
        type            processor;
        value           uniform 101872;
    }
    procBoundary1to3
    {
        type            processor;
        value           uniform 101888;
    }
}


// ************************************************************************* //
