/*--------------------------------*- C++ -*----------------------------------*\
  =========                 |
  \\      /  F ield         | OpenFOAM: The Open Source CFD Toolbox
   \\    /   O peration     | Website:  https://openfoam.org
    \\  /    A nd           | Version:  7
     \\/     M anipulation  |
\*---------------------------------------------------------------------------*/
FoamFile
{
    version     2.0;
    format      ascii;
    class       surfaceScalarField;
    location    "2e-05";
    object      phi;
}
// * * * * * * * * * * * * * * * * * * * * * * * * * * * * * * * * * * * * * //

dimensions      [1 0 -1 0 0 0 0];

internalField   nonuniform List<scalar> 
124
(
2.09604e-06
2.0847e-06
2.07346e-06
2.06233e-06
2.05131e-06
2.04041e-06
2.02965e-06
2.01902e-06
2.00854e-06
1.99821e-06
1.98805e-06
1.97807e-06
1.96827e-06
1.95866e-06
1.94925e-06
1.94005e-06
1.93108e-06
1.92233e-06
1.91383e-06
1.90558e-06
1.89759e-06
1.88988e-06
1.88246e-06
1.87534e-06
1.86856e-06
1.86238e-06
1.85827e-06
1.86495e-06
1.93271e-06
2.30502e-06
3.37806e-06
4.45467e-06
4.9562e-06
4.8339e-06
5.02761e-06
4.94447e-06
4.74924e-06
4.50752e-06
4.25545e-06
4.01301e-06
3.79087e-06
3.59437e-06
3.42555e-06
3.28437e-06
3.16938e-06
3.07828e-06
3.00827e-06
2.95634e-06
2.91942e-06
2.89461e-06
2.87926e-06
2.87101e-06
2.8679e-06
2.8683e-06
2.87095e-06
2.87488e-06
2.87938e-06
2.88397e-06
2.88831e-06
2.89221e-06
2.89556e-06
2.89818e-06
2.90029e-06
2.90191e-06
2.90307e-06
2.90382e-06
2.9042e-06
2.90426e-06
2.90403e-06
2.90356e-06
2.90289e-06
2.90205e-06
2.90106e-06
2.89995e-06
2.89874e-06
2.89745e-06
2.89609e-06
2.89466e-06
2.89319e-06
2.89167e-06
2.89012e-06
2.88854e-06
2.88693e-06
2.8853e-06
2.88365e-06
2.88197e-06
2.88028e-06
2.87857e-06
2.87684e-06
2.8751e-06
2.87334e-06
2.87157e-06
2.86978e-06
2.86798e-06
2.86617e-06
2.86434e-06
2.8625e-06
2.86064e-06
2.85877e-06
2.85689e-06
2.85499e-06
2.85308e-06
2.85116e-06
2.84923e-06
2.84728e-06
2.84531e-06
2.84334e-06
2.84135e-06
2.83935e-06
2.83733e-06
2.8353e-06
2.83326e-06
2.83121e-06
2.82914e-06
2.82706e-06
2.82497e-06
2.82286e-06
2.82074e-06
2.81861e-06
2.81647e-06
2.81431e-06
2.81214e-06
2.80996e-06
2.80777e-06
)
;

boundaryField
{
    boundary
    {
        type            empty;
        value           nonuniform 0();
    }
    inlet
    {
        type            calculated;
        value           nonuniform 0();
    }
    outlet
    {
        type            calculated;
        value           nonuniform 0();
    }
    procBoundary1to0
    {
        type            processor;
        value           uniform 2.80556e-06;
    }
    procBoundary1to3
    {
        type            processor;
        value           uniform -2.1075e-06;
    }
}


// ************************************************************************* //
