/*--------------------------------*- C++ -*----------------------------------*\
  =========                 |
  \\      /  F ield         | OpenFOAM: The Open Source CFD Toolbox
   \\    /   O peration     | Website:  https://openfoam.org
    \\  /    A nd           | Version:  7
     \\/     M anipulation  |
\*---------------------------------------------------------------------------*/
FoamFile
{
    version     2.0;
    format      ascii;
    class       volScalarField;
    location    "2e-05";
    object      Qdot;
}
// * * * * * * * * * * * * * * * * * * * * * * * * * * * * * * * * * * * * * //

dimensions      [1 -1 -3 0 0 0 0];

internalField   nonuniform List<scalar> 
125
(
6.90426e-16
4.06589e-15
2.40899e-14
1.43647e-13
8.61015e-13
5.18102e-12
3.12583e-11
1.88868e-10
1.14168e-09
6.89826e-09
4.1632e-08
2.50819e-07
1.50783e-06
9.04242e-06
5.40867e-05
0.000322681
0.00192032
0.0114025
0.0675785
0.399966
2.36548
15.4366
112.902
957.73
7127.93
51715.1
375508
2.74741e+06
2.08544e+07
1.7082e+08
1.2786e+09
5.55897e+09
1.17256e+10
1.29343e+10
1.13385e+10
9.61883e+09
7.64193e+09
5.40466e+09
3.4735e+09
2.124e+09
1.27412e+09
7.57574e+08
4.44986e+08
2.54568e+08
1.37591e+08
6.53474e+07
2.07846e+07
-6.37176e+06
-2.24081e+07
-3.12303e+07
-3.53297e+07
-3.63369e+07
-3.5339e+07
-3.3103e+07
-3.01711e+07
-2.69086e+07
-2.35904e+07
-2.03968e+07
-1.74299e+07
-1.47531e+07
-1.23869e+07
-1.03949e+07
-8.73095e+06
-7.29737e+06
-6.07683e+06
-5.03998e+06
-4.17393e+06
-3.44884e+06
-2.84724e+06
-2.34691e+06
-1.93537e+06
-1.59896e+06
-1.3239e+06
-1.10029e+06
-918215
-772525
-655415
-561316
-486869
-427463
-380495
-344504
-316014
-294159
-277415
-264649
-254823
-247749
-242516
-238835
-236394
-234869
-234022
-233689
-233742
-234083
-234628
-235357
-236216
-237168
-238183
-239244
-240333
-241439
-242552
-243663
-244764
-245844
-246883
-247834
-248941
-250088
-251215
-252334
-253454
-254581
-255726
-256906
-258159
-259572
-261355
-264080
-268906
-278619
-298567
)
;

boundaryField
{
    boundary
    {
        type            empty;
    }
    inlet
    {
        type            calculated;
        value           nonuniform 0();
    }
    outlet
    {
        type            calculated;
        value           nonuniform 0();
    }
    procBoundary1to0
    {
        type            processor;
        value           uniform 0;
    }
    procBoundary1to3
    {
        type            processor;
        value           uniform 0;
    }
}


// ************************************************************************* //
