/*--------------------------------*- C++ -*----------------------------------*\
  =========                 |
  \\      /  F ield         | OpenFOAM: The Open Source CFD Toolbox
   \\    /   O peration     | Website:  https://openfoam.org
    \\  /    A nd           | Version:  7
     \\/     M anipulation  |
\*---------------------------------------------------------------------------*/
FoamFile
{
    version     2.0;
    format      ascii;
    class       volScalarField;
    location    "2e-05";
    object      T;
}
// * * * * * * * * * * * * * * * * * * * * * * * * * * * * * * * * * * * * * //

dimensions      [0 0 0 1 0 0 0];

internalField   nonuniform List<scalar> 
125
(
300.283
300.281
300.279
300.276
300.274
300.271
300.269
300.266
300.263
300.26
300.257
300.254
300.251
300.247
300.244
300.24
300.237
300.233
300.229
300.225
300.221
300.217
300.213
300.209
300.206
300.211
300.264
300.574
302.271
311.621
355.042
472.902
647.198
824.139
1023.9
1187.75
1345.61
1492.57
1626.83
1748.02
1856.18
1951.48
2034.13
2104.61
2163.67
2212.32
2251.73
2283.17
2307.89
2327.09
2341.83
2353.07
2361.57
2367.98
2372.81
2376.45
2379.21
2381.32
2382.93
2384.18
2385.16
2385.91
2386.49
2386.97
2387.36
2387.68
2387.94
2388.16
2388.34
2388.49
2388.61
2388.71
2388.8
2388.87
2388.93
2388.98
2389.02
2389.06
2389.09
2389.12
2389.14
2389.16
2389.18
2389.2
2389.21
2389.22
2389.24
2389.25
2389.26
2389.27
2389.28
2389.29
2389.3
2389.31
2389.32
2389.33
2389.34
2389.34
2389.35
2389.36
2389.37
2389.38
2389.38
2389.39
2389.4
2389.41
2389.41
2389.42
2389.43
2389.43
2389.44
2389.45
2389.45
2389.46
2389.46
2389.47
2389.48
2389.48
2389.49
2389.49
2389.5
2389.51
2389.51
2389.52
2389.52
)
;

boundaryField
{
    boundary
    {
        type            empty;
    }
    inlet
    {
        type            fixedValue;
        value           nonuniform 0();
    }
    outlet
    {
        type            zeroGradient;
    }
    procBoundary1to0
    {
        type            processor;
        value           uniform 2389.53;
    }
    procBoundary1to3
    {
        type            processor;
        value           uniform 300.285;
    }
}


// ************************************************************************* //
