/*--------------------------------*- C++ -*----------------------------------*\
  =========                 |
  \\      /  F ield         | OpenFOAM: The Open Source CFD Toolbox
   \\    /   O peration     | Website:  https://openfoam.org
    \\  /    A nd           | Version:  7
     \\/     M anipulation  |
\*---------------------------------------------------------------------------*/
FoamFile
{
    version     2.0;
    format      ascii;
    class       volVectorField;
    location    "2e-05";
    object      U;
}
// * * * * * * * * * * * * * * * * * * * * * * * * * * * * * * * * * * * * * //

dimensions      [0 1 -1 0 0 0 0];

internalField   nonuniform List<vector> 
125
(
(0.721559 0 0)
(0.71777 0 0)
(0.713855 0 0)
(0.709979 0 0)
(0.705967 0 0)
(0.702568 0 0)
(0.698538 0 0)
(0.694798 0 0)
(0.691276 0 0)
(0.68768 0 0)
(0.684131 0 0)
(0.680647 0 0)
(0.67718 0 0)
(0.673823 0 0)
(0.67067 0 0)
(0.667258 0 0)
(0.664489 0 0)
(0.661188 0 0)
(0.658174 0 0)
(0.655383 0 0)
(0.652584 0 0)
(0.649796 0 0)
(0.647418 0 0)
(0.644722 0 0)
(0.64264 0 0)
(0.640108 0 0)
(0.638367 0 0)
(0.637104 0 0)
(0.650638 0 0)
(0.741548 0 0)
(1.06229 0 0)
(1.78439 0 0)
(2.9674 0 0)
(4.16339 0 0)
(5.2827 0 0)
(6.29214 0 0)
(6.9362 0 0)
(7.31633 0 0)
(7.52355 0 0)
(7.59744 0 0)
(7.58494 0 0)
(7.51226 0 0)
(7.40983 0 0)
(7.29585 0 0)
(7.1829 0 0)
(7.08004 0 0)
(6.99221 0 0)
(6.92144 0 0)
(6.86763 0 0)
(6.82931 0 0)
(6.80415 0 0)
(6.78971 0 0)
(6.78373 0 0)
(6.78347 0 0)
(6.78676 0 0)
(6.79271 0 0)
(6.79996 0 0)
(6.80738 0 0)
(6.81452 0 0)
(6.82087 0 0)
(6.8264 0 0)
(6.83096 0 0)
(6.83428 0 0)
(6.83692 0 0)
(6.83853 0 0)
(6.83926 0 0)
(6.83949 0 0)
(6.83917 0 0)
(6.83822 0 0)
(6.83682 0 0)
(6.83503 0 0)
(6.8329 0 0)
(6.83048 0 0)
(6.82781 0 0)
(6.82494 0 0)
(6.8219 0 0)
(6.81872 0 0)
(6.81541 0 0)
(6.81199 0 0)
(6.80849 0 0)
(6.8049 0 0)
(6.80125 0 0)
(6.79754 0 0)
(6.79378 0 0)
(6.78997 0 0)
(6.78611 0 0)
(6.78221 0 0)
(6.77827 0 0)
(6.77429 0 0)
(6.77028 0 0)
(6.76623 0 0)
(6.76215 0 0)
(6.75803 0 0)
(6.75389 0 0)
(6.74971 0 0)
(6.74549 0 0)
(6.74125 0 0)
(6.73697 0 0)
(6.73267 0 0)
(6.72833 0 0)
(6.72396 0 0)
(6.71956 0 0)
(6.71512 0 0)
(6.71067 0 0)
(6.70618 0 0)
(6.70166 0 0)
(6.69711 0 0)
(6.69252 0 0)
(6.68791 0 0)
(6.68328 0 0)
(6.67861 0 0)
(6.67391 0 0)
(6.66918 0 0)
(6.66443 0 0)
(6.65964 0 0)
(6.65483 0 0)
(6.64999 0 0)
(6.64512 0 0)
(6.64023 0 0)
(6.63528 0 0)
(6.63033 0 0)
(6.62548 0 0)
(6.62255 0 0)
(6.61753 0 0)
(6.61142 0 0)
)
;

boundaryField
{
    boundary
    {
        type            empty;
    }
    inlet
    {
        type            fixedValue;
        value           nonuniform 0();
    }
    outlet
    {
        type            zeroGradient;
    }
    procBoundary1to0
    {
        type            processor;
        value           uniform (6.60584 0 0);
    }
    procBoundary1to3
    {
        type            processor;
        value           uniform (0.725493 0 0);
    }
}


// ************************************************************************* //
