/*--------------------------------*- C++ -*----------------------------------*\
  =========                 |
  \\      /  F ield         | OpenFOAM: The Open Source CFD Toolbox
   \\    /   O peration     | Website:  https://openfoam.org
    \\  /    A nd           | Version:  7
     \\/     M anipulation  |
\*---------------------------------------------------------------------------*/
FoamFile
{
    version     2.0;
    format      ascii;
    class       volScalarField;
    location    "0.00015";
    object      H;
}
// * * * * * * * * * * * * * * * * * * * * * * * * * * * * * * * * * * * * * //

dimensions      [0 0 0 0 0 0 0];

internalField   nonuniform List<scalar> 
500
(
1.50355e-41
2.06331e-41
2.21574e-41
2.28716e-41
2.34961e-41
2.41983e-41
2.50162e-41
2.59452e-41
2.6957e-41
2.80078e-41
2.90466e-41
3.00237e-41
3.08991e-41
3.16473e-41
3.22583e-41
3.27362e-41
3.30949e-41
3.3354e-41
3.35344e-41
3.36557e-41
3.37346e-41
3.37843e-41
3.38147e-41
3.38327e-41
3.38431e-41
3.38488e-41
3.38519e-41
3.38535e-41
3.38542e-41
3.38545e-41
3.38545e-41
3.38544e-41
3.38542e-41
3.38541e-41
3.38538e-41
3.38536e-41
3.38534e-41
3.38532e-41
3.38529e-41
3.38527e-41
3.38524e-41
3.38522e-41
3.3852e-41
3.38517e-41
3.38515e-41
3.38513e-41
3.3851e-41
3.38508e-41
3.38506e-41
3.38503e-41
3.38501e-41
3.38499e-41
3.38497e-41
3.38495e-41
3.38493e-41
3.38491e-41
3.38489e-41
3.38487e-41
3.38485e-41
3.38484e-41
3.38482e-41
3.38481e-41
3.3848e-41
3.38478e-41
3.38477e-41
3.38477e-41
3.38476e-41
3.38475e-41
3.38475e-41
3.38475e-41
3.38475e-41
3.38475e-41
3.38475e-41
3.38476e-41
3.38476e-41
3.38477e-41
3.38479e-41
3.3848e-41
3.38482e-41
3.38484e-41
3.38486e-41
3.38488e-41
3.38491e-41
3.38494e-41
3.38497e-41
3.38501e-41
3.38505e-41
3.38509e-41
3.38514e-41
3.38518e-41
3.38524e-41
3.38529e-41
3.38535e-41
3.38541e-41
3.38548e-41
3.38554e-41
3.38562e-41
3.38569e-41
3.38577e-41
3.38585e-41
3.38594e-41
3.38603e-41
3.38612e-41
3.38622e-41
3.38632e-41
3.38642e-41
3.38653e-41
3.38664e-41
3.38676e-41
3.38688e-41
3.387e-41
3.38712e-41
3.38725e-41
3.38739e-41
3.38752e-41
3.38766e-41
3.3878e-41
3.38794e-41
3.38809e-41
3.38824e-41
3.38839e-41
3.38853e-41
3.38867e-41
3.38879e-41
3.38884e-41
3.38887e-41
3.38902e-41
3.38913e-41
3.38923e-41
3.38934e-41
3.38946e-41
3.3896e-41
3.38977e-41
3.38997e-41
3.3902e-41
3.39044e-41
3.39068e-41
3.39092e-41
3.39115e-41
3.39136e-41
3.39156e-41
3.39174e-41
3.39191e-41
3.39207e-41
3.39222e-41
3.39236e-41
3.39249e-41
3.39261e-41
3.39272e-41
3.39283e-41
3.39292e-41
3.39301e-41
3.39308e-41
3.39315e-41
3.3932e-41
3.39324e-41
3.39326e-41
3.39327e-41
3.39327e-41
3.39325e-41
3.39321e-41
3.39316e-41
3.39308e-41
3.39299e-41
3.39287e-41
3.39273e-41
3.39257e-41
3.39239e-41
3.39218e-41
3.39194e-41
3.39168e-41
3.39139e-41
3.39106e-41
3.39071e-41
3.39032e-41
3.3899e-41
3.38945e-41
3.38896e-41
3.38843e-41
3.38786e-41
3.38726e-41
3.38661e-41
3.38592e-41
3.38519e-41
3.38441e-41
3.38358e-41
3.38271e-41
3.38179e-41
3.38082e-41
3.37981e-41
3.37873e-41
3.37761e-41
3.37643e-41
3.3752e-41
3.37391e-41
3.37257e-41
3.37117e-41
3.36971e-41
3.36819e-41
3.36662e-41
3.36498e-41
3.36328e-41
3.36153e-41
3.35971e-41
3.35783e-41
3.35589e-41
3.35389e-41
3.35183e-41
3.34971e-41
3.34752e-41
3.34528e-41
3.34298e-41
3.34062e-41
3.3382e-41
3.33572e-41
3.33319e-41
3.3306e-41
3.32796e-41
3.32527e-41
3.32252e-41
3.31973e-41
3.31689e-41
3.314e-41
3.31106e-41
3.30809e-41
3.30507e-41
3.30202e-41
3.29895e-41
3.29595e-41
3.29366e-41
3.29655e-41
3.33559e-41
3.62403e-41
5.61766e-41
1.91713e-40
1.10396e-39
7.18655e-39
4.73528e-38
3.09938e-37
2.00874e-36
1.28806e-35
8.16803e-35
5.12032e-34
3.17185e-33
1.94092e-32
1.1728e-31
6.99551e-31
4.11761e-30
2.39089e-29
1.36907e-28
7.72847e-28
4.35331e-27
2.39338e-26
1.29721e-25
6.93166e-25
3.65192e-24
1.89724e-23
9.72181e-23
4.9154e-22
2.45357e-21
1.21005e-20
5.90278e-20
2.85244e-19
1.36836e-18
6.53525e-18
3.11944e-17
1.49562e-16
7.24735e-16
3.57427e-15
1.80643e-14
9.40242e-14
5.08438e-13
3.13241e-12
2.61654e-11
2.82127e-10
2.64485e-09
2.48537e-08
2.2825e-07
1.94115e-06
1.37255e-05
6.88506e-05
0.000214822
0.000456485
0.000775219
0.00113653
0.00147583
0.00172846
0.00187194
0.00192386
0.00191033
0.00186055
0.00179271
0.00171802
0.00164277
0.00157029
0.00150211
0.00143876
0.00138026
0.00132637
0.00127673
0.00123096
0.00118867
0.0011495
0.00111314
0.0010793
0.00104772
0.00101817
0.000990469
0.000964429
0.000939898
0.000916738
0.000894825
0.000874658
0.000855901
0.000837916
0.000820641
0.00080402
0.000787999
0.000772526
0.000757553
0.000743036
0.000728933
0.000715203
0.000701808
0.000688714
0.000675886
0.000663294
0.000650907
0.000638699
0.000626644
0.000614718
0.000602901
0.000591172
0.000579514
0.000567912
0.000556352
0.000544823
0.000533316
0.000521824
0.000510342
0.000498866
0.000487396
0.000475932
0.000464476
0.000453034
0.00044161
0.000430211
0.000418847
0.000407527
0.000396261
0.000385062
0.000373941
0.000362911
0.000351986
0.000341179
0.000330503
0.000319972
0.0003096
0.000299399
0.000289382
0.000279561
0.000269948
0.000260554
0.000251388
0.000242459
0.000233776
0.000225346
0.000217175
0.000209268
0.000201631
0.000194265
0.000187173
0.000180356
0.000173814
0.000167547
0.000161555
0.000155836
0.000150389
0.000145208
0.00014029
0.000135627
0.000131214
0.000127044
0.000123111
0.000119407
0.000115925
0.000112656
0.000109594
0.00010673
0.000104056
0.000101564
9.92451e-05
9.70919e-05
9.50959e-05
9.32491e-05
9.15435e-05
8.99713e-05
8.85249e-05
8.71967e-05
8.59795e-05
8.48661e-05
8.38499e-05
8.29242e-05
8.20826e-05
8.13192e-05
8.06282e-05
8.00039e-05
7.94412e-05
7.89352e-05
7.84811e-05
7.80745e-05
7.77113e-05
7.73877e-05
7.70999e-05
7.68446e-05
7.66186e-05
7.64192e-05
7.62435e-05
7.60893e-05
7.5954e-05
7.58358e-05
7.57328e-05
7.56431e-05
7.55654e-05
7.54981e-05
7.54401e-05
7.53902e-05
7.53473e-05
7.53106e-05
7.52793e-05
7.52527e-05
7.523e-05
7.52109e-05
7.51948e-05
7.51812e-05
7.51698e-05
7.51604e-05
7.51525e-05
7.51459e-05
7.51405e-05
7.51361e-05
7.51325e-05
7.51295e-05
7.51271e-05
7.51252e-05
7.51237e-05
7.51225e-05
7.51216e-05
7.51209e-05
7.51204e-05
7.512e-05
7.51197e-05
7.51195e-05
7.51194e-05
7.51194e-05
7.51194e-05
7.51195e-05
7.51196e-05
7.51197e-05
7.51198e-05
7.51199e-05
7.51201e-05
7.51203e-05
7.51204e-05
7.51206e-05
7.51207e-05
7.51209e-05
7.51211e-05
7.51212e-05
7.51214e-05
7.51215e-05
7.51217e-05
7.51218e-05
7.51219e-05
7.51221e-05
7.51222e-05
7.51223e-05
7.51224e-05
7.51225e-05
7.51226e-05
7.51227e-05
7.51228e-05
7.51229e-05
7.5123e-05
7.51231e-05
7.51232e-05
7.51232e-05
7.51233e-05
7.51233e-05
7.51234e-05
7.51234e-05
7.51234e-05
7.51235e-05
7.51235e-05
7.51235e-05
7.51235e-05
7.51235e-05
7.51235e-05
7.51235e-05
7.51235e-05
)
;

boundaryField
{
    boundary
    {
        type            empty;
    }
    inlet
    {
        type            fixedValue;
        value           uniform 0;
    }
    outlet
    {
        type            zeroGradient;
    }
}


// ************************************************************************* //
