/*--------------------------------*- C++ -*----------------------------------*\
  =========                 |
  \\      /  F ield         | OpenFOAM: The Open Source CFD Toolbox
   \\    /   O peration     | Website:  https://openfoam.org
    \\  /    A nd           | Version:  7
     \\/     M anipulation  |
\*---------------------------------------------------------------------------*/
FoamFile
{
    version     2.0;
    format      ascii;
    class       volScalarField;
    location    "0.00015";
    object      H2;
}
// * * * * * * * * * * * * * * * * * * * * * * * * * * * * * * * * * * * * * //

dimensions      [0 0 0 0 0 0 0];

internalField   nonuniform List<scalar> 
500
(
0.0285116
0.0285116
0.0285116
0.0285116
0.0285116
0.0285116
0.0285116
0.0285116
0.0285116
0.0285116
0.0285116
0.0285116
0.0285116
0.0285116
0.0285116
0.0285116
0.0285116
0.0285116
0.0285116
0.0285116
0.0285116
0.0285116
0.0285116
0.0285116
0.0285116
0.0285116
0.0285116
0.0285116
0.0285116
0.0285116
0.0285116
0.0285116
0.0285116
0.0285116
0.0285116
0.0285116
0.0285116
0.0285116
0.0285116
0.0285116
0.0285116
0.0285116
0.0285116
0.0285116
0.0285116
0.0285116
0.0285116
0.0285116
0.0285116
0.0285116
0.0285116
0.0285116
0.0285116
0.0285116
0.0285116
0.0285116
0.0285116
0.0285116
0.0285116
0.0285116
0.0285116
0.0285116
0.0285116
0.0285116
0.0285116
0.0285116
0.0285116
0.0285116
0.0285116
0.0285116
0.0285116
0.0285116
0.0285116
0.0285116
0.0285116
0.0285116
0.0285116
0.0285116
0.0285116
0.0285116
0.0285116
0.0285116
0.0285116
0.0285116
0.0285116
0.0285116
0.0285116
0.0285116
0.0285116
0.0285116
0.0285116
0.0285116
0.0285116
0.0285116
0.0285116
0.0285116
0.0285116
0.0285116
0.0285116
0.0285116
0.0285116
0.0285116
0.0285116
0.0285116
0.0285116
0.0285116
0.0285116
0.0285116
0.0285116
0.0285116
0.0285116
0.0285116
0.0285116
0.0285116
0.0285116
0.0285116
0.0285116
0.0285116
0.0285116
0.0285116
0.0285116
0.0285116
0.0285116
0.0285116
0.0285116
0.0285116
0.0285116
0.0285116
0.0285116
0.0285116
0.0285116
0.0285116
0.0285116
0.0285116
0.0285116
0.0285116
0.0285116
0.0285116
0.0285116
0.0285116
0.0285116
0.0285116
0.0285116
0.0285116
0.0285116
0.0285116
0.0285116
0.0285116
0.0285116
0.0285116
0.0285116
0.0285116
0.0285116
0.0285116
0.0285116
0.0285116
0.0285116
0.0285116
0.0285116
0.0285116
0.0285116
0.0285116
0.0285116
0.0285116
0.0285116
0.0285116
0.0285116
0.0285116
0.0285116
0.0285116
0.0285116
0.0285116
0.0285116
0.0285116
0.0285116
0.0285116
0.0285116
0.0285116
0.0285116
0.0285116
0.0285116
0.0285116
0.0285116
0.0285116
0.0285116
0.0285116
0.0285116
0.0285116
0.0285116
0.0285116
0.0285116
0.0285116
0.0285116
0.0285116
0.0285116
0.0285116
0.0285116
0.0285116
0.0285116
0.0285116
0.0285116
0.0285116
0.0285116
0.0285116
0.0285116
0.0285116
0.0285116
0.0285116
0.0285116
0.0285116
0.0285116
0.0285116
0.0285116
0.0285116
0.0285116
0.0285116
0.0285116
0.0285116
0.0285116
0.0285116
0.0285116
0.0285116
0.0285116
0.0285116
0.0285116
0.0285116
0.0285116
0.0285116
0.0285116
0.0285116
0.0285116
0.0285116
0.0285116
0.0285116
0.0285116
0.0285116
0.0285116
0.0285116
0.0285116
0.0285116
0.0285116
0.0285116
0.0285116
0.0285116
0.0285116
0.0285116
0.0285116
0.0285116
0.0285116
0.0285116
0.0285116
0.0285116
0.0285116
0.0285116
0.0285116
0.0285116
0.0285116
0.0285116
0.0285116
0.0285116
0.0285116
0.0285116
0.0285116
0.0285116
0.0285116
0.0285116
0.0285115
0.0285114
0.0285111
0.0285105
0.028509
0.0285057
0.0284983
0.0284821
0.0284472
0.0283728
0.0282164
0.0278955
0.0272694
0.0261593
0.0244362
0.0221604
0.0195079
0.0165678
0.0134955
0.0106285
0.00830415
0.0066394
0.00545381
0.00476172
0.00433485
0.0040729
0.00391056
0.00380733
0.0037388
0.0036905
0.00365398
0.00362435
0.0035988
0.00357576
0.00355436
0.00353413
0.00351485
0.00349641
0.00347879
0.00346197
0.00344598
0.00343084
0.00341657
0.00340319
0.0033907
0.00337913
0.00336879
0.00335952
0.00335105
0.00334336
0.00333643
0.00333024
0.00332474
0.00331991
0.00331571
0.00331207
0.00330894
0.00330626
0.00330394
0.00330192
0.0033001
0.00329839
0.00329669
0.00329489
0.0032929
0.00329058
0.00328784
0.00328456
0.00328061
0.00327588
0.00327026
0.00326364
0.00325591
0.00324696
0.00323671
0.00322506
0.00321193
0.00319724
0.00318095
0.00316299
0.00314333
0.00312193
0.00309877
0.00307386
0.00304718
0.00301877
0.00298864
0.00295684
0.00292341
0.00288842
0.00285194
0.00281403
0.0027748
0.00273434
0.00269275
0.00265015
0.00260664
0.00256236
0.00251742
0.00247196
0.0024261
0.00237999
0.00233375
0.00228752
0.00224143
0.00219561
0.0021502
0.00210531
0.00206107
0.00201757
0.0019749
0.00193312
0.00189235
0.00185269
0.0018142
0.00177697
0.00174104
0.00170646
0.00167328
0.00164153
0.00161121
0.00158235
0.00155494
0.00152898
0.00150445
0.00148135
0.00145963
0.00143928
0.00142025
0.0014025
0.00138599
0.00137068
0.0013565
0.00134342
0.00133138
0.00132031
0.00131018
0.00130092
0.00129248
0.00128481
0.00127785
0.00127156
0.00126589
0.00126078
0.0012562
0.00125209
0.00124843
0.00124516
0.00124227
0.0012397
0.00123743
0.00123542
0.00123367
0.00123212
0.00123077
0.0012296
0.00122857
0.00122769
0.00122692
0.00122625
0.00122568
0.0012252
0.00122478
0.00122442
0.00122412
0.00122386
0.00122364
0.00122346
0.00122331
0.00122318
0.00122307
0.00122298
0.00122291
0.00122285
0.0012228
0.00122276
0.00122273
0.0012227
0.00122268
0.00122267
0.00122266
0.00122265
0.00122264
0.00122264
0.00122264
0.00122263
0.00122263
0.00122263
0.00122264
0.00122264
0.00122264
0.00122264
0.00122265
0.00122265
0.00122265
0.00122266
0.00122266
0.00122266
0.00122267
0.00122267
0.00122267
0.00122268
0.00122268
0.00122268
0.00122269
0.00122269
0.00122269
0.0012227
0.0012227
0.0012227
0.00122271
0.00122271
0.00122271
0.00122272
0.00122272
0.00122272
0.00122272
0.00122273
0.00122273
0.00122273
0.00122273
0.00122273
0.00122274
0.00122274
0.00122274
0.00122274
0.00122274
0.00122274
0.00122275
0.00122275
0.00122275
0.00122275
0.00122275
0.00122275
)
;

boundaryField
{
    boundary
    {
        type            empty;
    }
    inlet
    {
        type            fixedValue;
        value           uniform 0.0285116;
    }
    outlet
    {
        type            zeroGradient;
    }
}


// ************************************************************************* //
