/*--------------------------------*- C++ -*----------------------------------*\
  =========                 |
  \\      /  F ield         | OpenFOAM: The Open Source CFD Toolbox
   \\    /   O peration     | Website:  https://openfoam.org
    \\  /    A nd           | Version:  7
     \\/     M anipulation  |
\*---------------------------------------------------------------------------*/
FoamFile
{
    version     2.0;
    format      ascii;
    class       volScalarField;
    location    "0.00015";
    object      H2O;
}
// * * * * * * * * * * * * * * * * * * * * * * * * * * * * * * * * * * * * * //

dimensions      [0 0 0 0 0 0 0];

internalField   nonuniform List<scalar> 
500
(
8.15896e-48
2.38982e-47
4.36261e-47
6.64347e-47
9.16771e-47
1.18774e-46
1.47067e-46
1.7576e-46
2.03934e-46
2.30646e-46
2.55044e-46
2.76484e-46
2.94601e-46
3.09319e-46
3.20823e-46
3.29478e-46
3.35753e-46
3.40143e-46
3.43108e-46
3.45046e-46
3.46271e-46
3.47022e-46
3.47469e-46
3.47727e-46
3.47871e-46
3.4795e-46
3.47991e-46
3.48012e-46
3.48022e-46
3.48026e-46
3.48027e-46
3.48027e-46
3.48027e-46
3.48025e-46
3.48024e-46
3.48023e-46
3.48021e-46
3.4802e-46
3.48018e-46
3.48017e-46
3.48016e-46
3.48014e-46
3.48013e-46
3.48012e-46
3.48011e-46
3.4801e-46
3.48009e-46
3.48008e-46
3.48007e-46
3.48006e-46
3.48005e-46
3.48005e-46
3.48004e-46
3.48004e-46
3.48004e-46
3.48004e-46
3.48004e-46
3.48004e-46
3.48005e-46
3.48005e-46
3.48006e-46
3.48007e-46
3.48009e-46
3.4801e-46
3.48012e-46
3.48014e-46
3.48016e-46
3.48018e-46
3.48021e-46
3.48024e-46
3.48027e-46
3.4803e-46
3.48034e-46
3.48038e-46
3.48043e-46
3.48047e-46
3.48052e-46
3.48058e-46
3.48064e-46
3.4807e-46
3.48076e-46
3.48083e-46
3.4809e-46
3.48098e-46
3.48105e-46
3.48114e-46
3.48122e-46
3.48132e-46
3.48141e-46
3.48151e-46
3.48161e-46
3.48172e-46
3.48183e-46
3.48195e-46
3.48207e-46
3.4822e-46
3.48233e-46
3.48246e-46
3.4826e-46
3.48274e-46
3.48289e-46
3.48304e-46
3.4832e-46
3.48336e-46
3.48353e-46
3.4837e-46
3.48387e-46
3.48405e-46
3.48423e-46
3.48442e-46
3.48462e-46
3.48481e-46
3.48501e-46
3.48522e-46
3.48543e-46
3.48564e-46
3.48585e-46
3.48607e-46
3.48629e-46
3.48649e-46
3.48663e-46
3.4866e-46
3.48612e-46
3.48474e-46
3.48259e-46
3.48062e-46
3.47064e-46
3.46105e-46
3.45401e-46
3.4505e-46
3.45033e-46
3.45275e-46
3.45685e-46
3.46187e-46
3.46717e-46
3.47229e-46
3.47692e-46
3.48086e-46
3.48407e-46
3.48658e-46
3.48847e-46
3.48985e-46
3.49086e-46
3.49158e-46
3.49211e-46
3.49251e-46
3.49282e-46
3.49308e-46
3.4933e-46
3.4935e-46
3.49367e-46
3.49383e-46
3.49398e-46
3.49411e-46
3.49422e-46
3.49432e-46
3.4944e-46
3.49447e-46
3.49452e-46
3.49454e-46
3.49455e-46
3.49454e-46
3.4945e-46
3.49444e-46
3.49435e-46
3.49423e-46
3.49409e-46
3.49392e-46
3.49371e-46
3.49348e-46
3.49321e-46
3.4929e-46
3.49256e-46
3.49218e-46
3.49176e-46
3.4913e-46
3.49079e-46
3.49024e-46
3.48965e-46
3.48901e-46
3.48831e-46
3.48757e-46
3.48677e-46
3.48592e-46
3.48502e-46
3.48405e-46
3.48303e-46
3.48195e-46
3.4808e-46
3.4796e-46
3.47832e-46
3.47699e-46
3.47558e-46
3.47411e-46
3.47256e-46
3.47095e-46
3.46926e-46
3.4675e-46
3.46567e-46
3.46376e-46
3.46178e-46
3.45972e-46
3.45758e-46
3.45537e-46
3.45308e-46
3.45071e-46
3.44826e-46
3.44574e-46
3.44314e-46
3.44046e-46
3.4377e-46
3.43487e-46
3.43197e-46
3.42898e-46
3.42593e-46
3.4228e-46
3.4196e-46
3.41634e-46
3.413e-46
3.4096e-46
3.40618e-46
3.40309e-46
3.40334e-46
3.43321e-46
3.71875e-46
6.18649e-46
2.70871e-45
2.0209e-44
1.65211e-43
1.35425e-42
1.10047e-41
8.85376e-41
7.05317e-40
5.5654e-39
4.35198e-38
3.37489e-37
2.59782e-36
1.98716e-35
1.51263e-34
1.14763e-33
8.69273e-33
6.58373e-32
4.99154e-31
3.7898e-30
2.87997e-29
2.18741e-28
1.65716e-27
1.24954e-26
9.35973e-26
6.95479e-25
5.12066e-24
3.66449e-23
2.63741e-22
1.8755e-21
1.31446e-20
9.06503e-20
6.14252e-19
4.08399e-18
2.6609e-17
1.69689e-16
1.05793e-15
6.44109e-15
3.8255e-14
2.21404e-13
1.2474e-12
6.83462e-12
3.63839e-11
1.88031e-10
9.42731e-10
4.58372e-09
2.16139e-08
9.89007e-08
4.39756e-07
1.90448e-06
8.05803e-06
3.34077e-05
0.000135712
0.000534604
0.00196895
0.00625477
0.0156114
0.0299883
0.0479075
0.0695487
0.0947365
0.120636
0.143186
0.160032
0.174428
0.182779
0.188406
0.192271
0.195023
0.197078
0.198693
0.200029
0.201182
0.202211
0.203155
0.204037
0.204872
0.205671
0.206441
0.207187
0.207912
0.208621
0.209315
0.209997
0.210667
0.211327
0.211977
0.212618
0.213231
0.213828
0.21442
0.215008
0.215592
0.216172
0.216747
0.217317
0.217881
0.218439
0.218989
0.219532
0.220067
0.220593
0.221109
0.221614
0.222109
0.222593
0.223066
0.223527
0.223977
0.224415
0.224842
0.225258
0.225664
0.22606
0.226447
0.226826
0.227197
0.227561
0.227919
0.228272
0.228621
0.228966
0.229309
0.229649
0.229988
0.230325
0.230662
0.230997
0.231333
0.231667
0.232001
0.232333
0.232664
0.232993
0.23332
0.233644
0.233965
0.234281
0.234592
0.234898
0.235197
0.23549
0.235775
0.236051
0.236319
0.236578
0.236827
0.237067
0.237298
0.237519
0.237733
0.237942
0.238123
0.238295
0.238457
0.238608
0.238749
0.238881
0.239002
0.239115
0.239218
0.239313
0.2394
0.23948
0.239552
0.239617
0.239676
0.239729
0.239777
0.23982
0.239858
0.239892
0.239922
0.239949
0.239973
0.239994
0.240012
0.240029
0.240043
0.240056
0.240068
0.240078
0.240087
0.240095
0.240102
0.240108
0.240113
0.240118
0.240122
0.240126
0.24013
0.240132
0.240135
0.240137
0.240139
0.240141
0.240142
0.240144
0.240145
0.240146
0.240147
0.240147
0.240148
0.240148
0.240149
0.240149
0.240149
0.24015
0.24015
0.24015
0.24015
0.24015
0.24015
0.24015
0.24015
0.24015
0.24015
0.24015
0.24015
0.24015
0.24015
0.24015
0.24015
0.24015
0.24015
0.24015
0.24015
0.24015
0.24015
0.24015
0.24015
0.24015
0.240149
0.240149
0.240149
0.240149
0.240149
0.240149
0.240149
0.240149
0.240149
0.240149
0.240149
0.240149
0.240149
0.240149
0.240149
0.240149
0.240149
0.240148
0.240148
0.240148
0.240148
0.240148
0.240148
0.240148
0.240148
0.240148
0.240148
0.240148
0.240148
0.240148
0.240148
0.240148
0.240148
0.240148
0.240148
0.240148
0.240148
0.240148
0.240148
0.240148
0.240148
0.240148
0.240148
0.240148
)
;

boundaryField
{
    boundary
    {
        type            empty;
    }
    inlet
    {
        type            fixedValue;
        value           uniform 0;
    }
    outlet
    {
        type            zeroGradient;
    }
}


// ************************************************************************* //
