/*--------------------------------*- C++ -*----------------------------------*\
  =========                 |
  \\      /  F ield         | OpenFOAM: The Open Source CFD Toolbox
   \\    /   O peration     | Website:  https://openfoam.org
    \\  /    A nd           | Version:  7
     \\/     M anipulation  |
\*---------------------------------------------------------------------------*/
FoamFile
{
    version     2.0;
    format      ascii;
    class       volVectorField;
    location    "0.00015";
    object      U;
}
// * * * * * * * * * * * * * * * * * * * * * * * * * * * * * * * * * * * * * //

dimensions      [0 1 -1 0 0 0 0];

internalField   nonuniform List<vector> 
500
(
(2.34889 0 0)
(2.34857 0 0)
(2.34812 0 0)
(2.34775 0 0)
(2.34744 0 0)
(2.34714 0 0)
(2.34681 0 0)
(2.34646 0 0)
(2.34606 0 0)
(2.3456 0 0)
(2.34509 0 0)
(2.34454 0 0)
(2.34398 0 0)
(2.34341 0 0)
(2.34284 0 0)
(2.34229 0 0)
(2.34177 0 0)
(2.34126 0 0)
(2.34077 0 0)
(2.3403 0 0)
(2.33984 0 0)
(2.33939 0 0)
(2.33894 0 0)
(2.3385 0 0)
(2.33807 0 0)
(2.33764 0 0)
(2.3372 0 0)
(2.33677 0 0)
(2.33635 0 0)
(2.33592 0 0)
(2.33549 0 0)
(2.33506 0 0)
(2.33463 0 0)
(2.3342 0 0)
(2.33378 0 0)
(2.33335 0 0)
(2.33293 0 0)
(2.3325 0 0)
(2.33208 0 0)
(2.33165 0 0)
(2.33123 0 0)
(2.3308 0 0)
(2.33038 0 0)
(2.32996 0 0)
(2.32954 0 0)
(2.32912 0 0)
(2.3287 0 0)
(2.32828 0 0)
(2.32786 0 0)
(2.32744 0 0)
(2.32702 0 0)
(2.3266 0 0)
(2.32618 0 0)
(2.32577 0 0)
(2.32535 0 0)
(2.32493 0 0)
(2.32452 0 0)
(2.32411 0 0)
(2.32369 0 0)
(2.32328 0 0)
(2.32287 0 0)
(2.32246 0 0)
(2.32204 0 0)
(2.32163 0 0)
(2.32123 0 0)
(2.32082 0 0)
(2.32041 0 0)
(2.32 0 0)
(2.3196 0 0)
(2.31919 0 0)
(2.31878 0 0)
(2.31838 0 0)
(2.31798 0 0)
(2.31757 0 0)
(2.31717 0 0)
(2.31677 0 0)
(2.31637 0 0)
(2.31597 0 0)
(2.31557 0 0)
(2.31518 0 0)
(2.31478 0 0)
(2.31438 0 0)
(2.31399 0 0)
(2.3136 0 0)
(2.3132 0 0)
(2.31281 0 0)
(2.31242 0 0)
(2.31203 0 0)
(2.31164 0 0)
(2.31125 0 0)
(2.31086 0 0)
(2.31047 0 0)
(2.31009 0 0)
(2.3097 0 0)
(2.30932 0 0)
(2.30894 0 0)
(2.30855 0 0)
(2.30817 0 0)
(2.30779 0 0)
(2.30741 0 0)
(2.30704 0 0)
(2.30666 0 0)
(2.30628 0 0)
(2.30591 0 0)
(2.30553 0 0)
(2.30516 0 0)
(2.30479 0 0)
(2.30442 0 0)
(2.30405 0 0)
(2.30368 0 0)
(2.30331 0 0)
(2.30294 0 0)
(2.30258 0 0)
(2.30221 0 0)
(2.30185 0 0)
(2.30149 0 0)
(2.30112 0 0)
(2.30076 0 0)
(2.3004 0 0)
(2.30004 0 0)
(2.29969 0 0)
(2.29933 0 0)
(2.29898 0 0)
(2.29862 0 0)
(2.29825 0 0)
(2.29789 0 0)
(2.29757 0 0)
(2.29723 0 0)
(2.29688 0 0)
(2.29652 0 0)
(2.29618 0 0)
(2.29583 0 0)
(2.29549 0 0)
(2.29515 0 0)
(2.29481 0 0)
(2.29447 0 0)
(2.29413 0 0)
(2.2938 0 0)
(2.29346 0 0)
(2.29313 0 0)
(2.29279 0 0)
(2.29246 0 0)
(2.29213 0 0)
(2.2918 0 0)
(2.29146 0 0)
(2.29114 0 0)
(2.29081 0 0)
(2.29048 0 0)
(2.29016 0 0)
(2.28983 0 0)
(2.28951 0 0)
(2.28918 0 0)
(2.28886 0 0)
(2.28854 0 0)
(2.28822 0 0)
(2.2879 0 0)
(2.28759 0 0)
(2.28727 0 0)
(2.28695 0 0)
(2.28664 0 0)
(2.28632 0 0)
(2.28601 0 0)
(2.2857 0 0)
(2.28539 0 0)
(2.28508 0 0)
(2.28477 0 0)
(2.28446 0 0)
(2.28415 0 0)
(2.28385 0 0)
(2.28354 0 0)
(2.28323 0 0)
(2.28293 0 0)
(2.28263 0 0)
(2.28232 0 0)
(2.28202 0 0)
(2.28172 0 0)
(2.28142 0 0)
(2.28112 0 0)
(2.28082 0 0)
(2.28052 0 0)
(2.28022 0 0)
(2.27993 0 0)
(2.27963 0 0)
(2.27933 0 0)
(2.27904 0 0)
(2.27874 0 0)
(2.27845 0 0)
(2.27815 0 0)
(2.27786 0 0)
(2.27756 0 0)
(2.27727 0 0)
(2.27698 0 0)
(2.27668 0 0)
(2.27639 0 0)
(2.2761 0 0)
(2.27581 0 0)
(2.27552 0 0)
(2.27523 0 0)
(2.27493 0 0)
(2.27464 0 0)
(2.27435 0 0)
(2.27406 0 0)
(2.27377 0 0)
(2.27348 0 0)
(2.27319 0 0)
(2.2729 0 0)
(2.27261 0 0)
(2.27232 0 0)
(2.27203 0 0)
(2.27173 0 0)
(2.27144 0 0)
(2.27115 0 0)
(2.27086 0 0)
(2.27057 0 0)
(2.27027 0 0)
(2.26998 0 0)
(2.26969 0 0)
(2.26939 0 0)
(2.2691 0 0)
(2.2688 0 0)
(2.26851 0 0)
(2.26821 0 0)
(2.26792 0 0)
(2.26762 0 0)
(2.26732 0 0)
(2.26702 0 0)
(2.26672 0 0)
(2.26642 0 0)
(2.26612 0 0)
(2.26582 0 0)
(2.26552 0 0)
(2.26522 0 0)
(2.26491 0 0)
(2.26461 0 0)
(2.2643 0 0)
(2.26399 0 0)
(2.26368 0 0)
(2.26337 0 0)
(2.26306 0 0)
(2.26275 0 0)
(2.26244 0 0)
(2.26212 0 0)
(2.26181 0 0)
(2.26149 0 0)
(2.26117 0 0)
(2.26085 0 0)
(2.26053 0 0)
(2.26021 0 0)
(2.25988 0 0)
(2.25956 0 0)
(2.25922 0 0)
(2.25888 0 0)
(2.25857 0 0)
(2.25826 0 0)
(2.25792 0 0)
(2.25758 0 0)
(2.25724 0 0)
(2.2569 0 0)
(2.25656 0 0)
(2.25622 0 0)
(2.25588 0 0)
(2.25553 0 0)
(2.25519 0 0)
(2.25484 0 0)
(2.25449 0 0)
(2.25413 0 0)
(2.25378 0 0)
(2.25342 0 0)
(2.25306 0 0)
(2.25269 0 0)
(2.25235 0 0)
(2.25202 0 0)
(2.252 0 0)
(2.25276 0 0)
(2.25624 0 0)
(2.26782 0 0)
(2.30073 0 0)
(2.38374 0 0)
(2.57916 0 0)
(3.00031 0 0)
(3.82491 0 0)
(4.97426 0 0)
(6.21549 0 0)
(7.37595 0 0)
(8.40101 0 0)
(9.27902 0 0)
(10.0079 0 0)
(10.609 0 0)
(11.1079 0 0)
(11.5118 0 0)
(11.8331 0 0)
(12.0972 0 0)
(12.3241 0 0)
(12.5232 0 0)
(12.6995 0 0)
(12.857 0 0)
(12.9989 0 0)
(13.1277 0 0)
(13.2455 0 0)
(13.3538 0 0)
(13.4538 0 0)
(13.5465 0 0)
(13.6328 0 0)
(13.7134 0 0)
(13.7889 0 0)
(13.8599 0 0)
(13.9266 0 0)
(13.9897 0 0)
(14.0492 0 0)
(14.1057 0 0)
(14.1592 0 0)
(14.2101 0 0)
(14.2572 0 0)
(14.3012 0 0)
(14.3437 0 0)
(14.3847 0 0)
(14.4243 0 0)
(14.4625 0 0)
(14.4995 0 0)
(14.5354 0 0)
(14.5702 0 0)
(14.604 0 0)
(14.6368 0 0)
(14.6687 0 0)
(14.6998 0 0)
(14.7301 0 0)
(14.7595 0 0)
(14.7882 0 0)
(14.8161 0 0)
(14.8433 0 0)
(14.8696 0 0)
(14.8952 0 0)
(14.9199 0 0)
(14.9439 0 0)
(14.9669 0 0)
(14.989 0 0)
(15.0102 0 0)
(15.0304 0 0)
(15.0496 0 0)
(15.0677 0 0)
(15.0848 0 0)
(15.1007 0 0)
(15.1155 0 0)
(15.1291 0 0)
(15.1416 0 0)
(15.1529 0 0)
(15.163 0 0)
(15.1719 0 0)
(15.1797 0 0)
(15.1864 0 0)
(15.192 0 0)
(15.1965 0 0)
(15.2001 0 0)
(15.2028 0 0)
(15.2046 0 0)
(15.2057 0 0)
(15.206 0 0)
(15.2057 0 0)
(15.2049 0 0)
(15.2036 0 0)
(15.2019 0 0)
(15.1998 0 0)
(15.1976 0 0)
(15.1951 0 0)
(15.1926 0 0)
(15.19 0 0)
(15.1875 0 0)
(15.1849 0 0)
(15.1825 0 0)
(15.1803 0 0)
(15.1782 0 0)
(15.1764 0 0)
(15.1748 0 0)
(15.1736 0 0)
(15.1728 0 0)
(15.1722 0 0)
(15.1716 0 0)
(15.1709 0 0)
(15.1706 0 0)
(15.1704 0 0)
(15.1704 0 0)
(15.1706 0 0)
(15.1709 0 0)
(15.1713 0 0)
(15.1719 0 0)
(15.1725 0 0)
(15.1732 0 0)
(15.1739 0 0)
(15.1747 0 0)
(15.1755 0 0)
(15.1763 0 0)
(15.1771 0 0)
(15.1779 0 0)
(15.1786 0 0)
(15.1793 0 0)
(15.18 0 0)
(15.1806 0 0)
(15.1812 0 0)
(15.1816 0 0)
(15.1821 0 0)
(15.1825 0 0)
(15.1828 0 0)
(15.183 0 0)
(15.1832 0 0)
(15.1833 0 0)
(15.1833 0 0)
(15.1833 0 0)
(15.1832 0 0)
(15.1831 0 0)
(15.1829 0 0)
(15.1827 0 0)
(15.1824 0 0)
(15.182 0 0)
(15.1816 0 0)
(15.1812 0 0)
(15.1807 0 0)
(15.1802 0 0)
(15.1797 0 0)
(15.1791 0 0)
(15.1785 0 0)
(15.1779 0 0)
(15.1772 0 0)
(15.1765 0 0)
(15.1758 0 0)
(15.1751 0 0)
(15.1744 0 0)
(15.1736 0 0)
(15.1728 0 0)
(15.172 0 0)
(15.1712 0 0)
(15.1704 0 0)
(15.1696 0 0)
(15.1688 0 0)
(15.1679 0 0)
(15.1671 0 0)
(15.1662 0 0)
(15.1654 0 0)
(15.1645 0 0)
(15.1636 0 0)
(15.1627 0 0)
(15.1618 0 0)
(15.1609 0 0)
(15.16 0 0)
(15.1591 0 0)
(15.1582 0 0)
(15.1572 0 0)
(15.1563 0 0)
(15.1553 0 0)
(15.1544 0 0)
(15.1535 0 0)
(15.1525 0 0)
(15.1515 0 0)
(15.1506 0 0)
(15.1496 0 0)
(15.1486 0 0)
(15.1476 0 0)
(15.1466 0 0)
(15.1456 0 0)
(15.1446 0 0)
(15.1436 0 0)
(15.1426 0 0)
(15.1416 0 0)
(15.1405 0 0)
(15.1395 0 0)
(15.1385 0 0)
(15.1374 0 0)
(15.1364 0 0)
(15.1353 0 0)
(15.1342 0 0)
(15.1332 0 0)
(15.1321 0 0)
(15.131 0 0)
(15.1299 0 0)
(15.1288 0 0)
(15.1277 0 0)
(15.1266 0 0)
(15.1255 0 0)
(15.1244 0 0)
(15.1233 0 0)
(15.1221 0 0)
(15.121 0 0)
(15.1198 0 0)
(15.1187 0 0)
(15.1175 0 0)
(15.1163 0 0)
(15.1152 0 0)
(15.114 0 0)
(15.1128 0 0)
(15.1116 0 0)
(15.1104 0 0)
(15.1092 0 0)
(15.108 0 0)
(15.1068 0 0)
(15.1055 0 0)
(15.1043 0 0)
(15.103 0 0)
(15.1018 0 0)
(15.1005 0 0)
(15.0992 0 0)
(15.0975 0 0)
)
;

boundaryField
{
    boundary
    {
        type            empty;
    }
    inlet
    {
        type            fixedValue;
        value           uniform (2.34893 0 0);
    }
    outlet
    {
        type            zeroGradient;
    }
}


// ************************************************************************* //
