/*--------------------------------*- C++ -*----------------------------------*\
  =========                 |
  \\      /  F ield         | OpenFOAM: The Open Source CFD Toolbox
   \\    /   O peration     | Website:  https://openfoam.org
    \\  /    A nd           | Version:  7
     \\/     M anipulation  |
\*---------------------------------------------------------------------------*/
FoamFile
{
    version     2.0;
    format      ascii;
    class       volScalarField;
    location    "0.00058";
    object      p;
}
// * * * * * * * * * * * * * * * * * * * * * * * * * * * * * * * * * * * * * //

dimensions      [1 -1 -2 0 0 0 0];

internalField   nonuniform List<scalar> 
125
(
103185
103185
103185
103185
103185
103185
103185
103185
103185
103185
103185
103185
103185
103185
103185
103185
103185
103185
103185
103185
103185
103185
103185
103185
103185
103184
103184
103183
103181
103178
103176
103174
103171
103170
103168
103167
103166
103165
103164
103164
103163
103163
103162
103162
103162
103162
103161
103161
103161
103161
103160
103160
103160
103160
103160
103160
103159
103159
103159
103159
103159
103159
103159
103159
103159
103159
103158
103158
103158
103158
103158
103158
103158
103158
103158
103158
103158
103158
103158
103158
103158
103157
103157
103157
103157
103157
103157
103157
103157
103157
103157
103157
103157
103157
103157
103157
103157
103157
103157
103157
103157
103157
103157
103157
103157
103156
103156
103156
103156
103156
103156
103156
103156
103156
103156
103156
103156
103156
103156
103156
103156
103156
103156
103156
103156
)
;

boundaryField
{
    boundary
    {
        type            empty;
    }
    inlet
    {
        type            zeroGradient;
    }
    outlet
    {
        type            waveTransmissive;
        gamma           1.4;
        value           nonuniform 0();
    }
    procBoundary1to0
    {
        type            processor;
        value           uniform 103156;
    }
    procBoundary1to3
    {
        type            processor;
        value           uniform 103185;
    }
}


// ************************************************************************* //
