/*--------------------------------*- C++ -*----------------------------------*\
  =========                 |
  \\      /  F ield         | OpenFOAM: The Open Source CFD Toolbox
   \\    /   O peration     | Website:  https://openfoam.org
    \\  /    A nd           | Version:  7
     \\/     M anipulation  |
\*---------------------------------------------------------------------------*/
FoamFile
{
    version     2.0;
    format      ascii;
    class       volScalarField;
    location    "0.00027";
    object      H2O2;
}
// * * * * * * * * * * * * * * * * * * * * * * * * * * * * * * * * * * * * * //

dimensions      [0 0 0 0 0 0 0];

internalField   nonuniform List<scalar> 
125
(
2.01019e-52
6.48169e-52
1.29428e-51
2.14426e-51
3.20469e-51
4.48403e-51
5.99235e-51
7.74051e-51
9.73878e-51
1.19947e-50
1.45104e-50
1.72802e-50
2.02875e-50
2.3503e-50
2.68839e-50
3.03742e-50
3.39074e-50
3.74102e-50
4.08079e-50
4.40298e-50
4.70148e-50
4.97158e-50
5.21022e-50
5.41607e-50
5.58946e-50
5.73209e-50
5.84672e-50
5.93674e-50
6.00586e-50
6.05777e-50
6.09592e-50
6.12338e-50
6.14274e-50
6.15611e-50
6.16517e-50
6.17119e-50
6.17512e-50
6.17764e-50
6.17922e-50
6.1802e-50
6.18079e-50
6.18114e-50
6.18135e-50
6.18147e-50
6.18154e-50
6.18157e-50
6.18159e-50
6.18161e-50
6.18161e-50
6.18162e-50
6.18163e-50
6.18163e-50
6.18164e-50
6.18165e-50
6.18166e-50
6.18168e-50
6.18169e-50
6.18171e-50
6.18173e-50
6.18175e-50
6.18178e-50
6.18181e-50
6.18184e-50
6.18187e-50
6.18191e-50
6.18195e-50
6.182e-50
6.18205e-50
6.1821e-50
6.18216e-50
6.18222e-50
6.18229e-50
6.18236e-50
6.18244e-50
6.18252e-50
6.1826e-50
6.18269e-50
6.18279e-50
6.1829e-50
6.183e-50
6.18312e-50
6.18324e-50
6.18337e-50
6.1835e-50
6.18364e-50
6.18379e-50
6.18395e-50
6.18411e-50
6.18428e-50
6.18446e-50
6.18464e-50
6.18483e-50
6.18504e-50
6.18524e-50
6.18546e-50
6.18569e-50
6.18592e-50
6.18616e-50
6.18642e-50
6.18668e-50
6.18695e-50
6.18722e-50
6.18751e-50
6.18781e-50
6.18812e-50
6.18843e-50
6.18876e-50
6.18909e-50
6.18943e-50
6.18979e-50
6.19015e-50
6.19052e-50
6.1909e-50
6.19129e-50
6.19169e-50
6.1921e-50
6.19252e-50
6.19295e-50
6.19338e-50
6.19382e-50
6.19425e-50
6.19466e-50
6.19501e-50
6.1955e-50
6.19749e-50
)
;

boundaryField
{
    boundary
    {
        type            empty;
    }
    inlet
    {
        type            fixedValue;
        value           uniform 0;
    }
    outlet
    {
        type            zeroGradient;
    }
    procBoundary2to3
    {
        type            processor;
        value           uniform 6.20353e-50;
    }
}


// ************************************************************************* //
