/*--------------------------------*- C++ -*----------------------------------*\
  =========                 |
  \\      /  F ield         | OpenFOAM: The Open Source CFD Toolbox
   \\    /   O peration     | Website:  https://openfoam.org
    \\  /    A nd           | Version:  7
     \\/     M anipulation  |
\*---------------------------------------------------------------------------*/
FoamFile
{
    version     2.0;
    format      ascii;
    class       surfaceScalarField;
    location    "0.00027";
    object      phi;
}
// * * * * * * * * * * * * * * * * * * * * * * * * * * * * * * * * * * * * * //

dimensions      [1 0 -1 0 0 0 0];

internalField   nonuniform List<scalar> 
124
(
6.92974e-06
6.92934e-06
6.92889e-06
6.92838e-06
6.92782e-06
6.92717e-06
6.92643e-06
6.92557e-06
6.92457e-06
6.92339e-06
6.92204e-06
6.92048e-06
6.91873e-06
6.9168e-06
6.91469e-06
6.91246e-06
6.91013e-06
6.90775e-06
6.90538e-06
6.90306e-06
6.90084e-06
6.89875e-06
6.89683e-06
6.8951e-06
6.89356e-06
6.89221e-06
6.89105e-06
6.89005e-06
6.8892e-06
6.88848e-06
6.88786e-06
6.88733e-06
6.88688e-06
6.88647e-06
6.88611e-06
6.88577e-06
6.88546e-06
6.88516e-06
6.88487e-06
6.88459e-06
6.88432e-06
6.88405e-06
6.88378e-06
6.88351e-06
6.88324e-06
6.88297e-06
6.88271e-06
6.88244e-06
6.88218e-06
6.88191e-06
6.88165e-06
6.88138e-06
6.88112e-06
6.88086e-06
6.88059e-06
6.88033e-06
6.88006e-06
6.8798e-06
6.87954e-06
6.87927e-06
6.87901e-06
6.87875e-06
6.87848e-06
6.87822e-06
6.87796e-06
6.8777e-06
6.87744e-06
6.87717e-06
6.87691e-06
6.87665e-06
6.87639e-06
6.87613e-06
6.87587e-06
6.87561e-06
6.87534e-06
6.87508e-06
6.87482e-06
6.87456e-06
6.8743e-06
6.87404e-06
6.87378e-06
6.87352e-06
6.87326e-06
6.87301e-06
6.87275e-06
6.87249e-06
6.87223e-06
6.87197e-06
6.87171e-06
6.87145e-06
6.87119e-06
6.87094e-06
6.87068e-06
6.87042e-06
6.87016e-06
6.8699e-06
6.86965e-06
6.86939e-06
6.86913e-06
6.86887e-06
6.86862e-06
6.86836e-06
6.8681e-06
6.86784e-06
6.86759e-06
6.86733e-06
6.86707e-06
6.86682e-06
6.86656e-06
6.86631e-06
6.86605e-06
6.86579e-06
6.86554e-06
6.86528e-06
6.86502e-06
6.86477e-06
6.86451e-06
6.86426e-06
6.864e-06
6.86375e-06
6.86349e-06
6.86323e-06
6.86298e-06
6.86272e-06
)
;

boundaryField
{
    boundary
    {
        type            empty;
        value           nonuniform 0();
    }
    inlet
    {
        type            calculated;
        value           uniform -6.93012e-06;
    }
    outlet
    {
        type            calculated;
        value           nonuniform 0();
    }
    procBoundary2to3
    {
        type            processor;
        value           uniform 6.86247e-06;
    }
}


// ************************************************************************* //
