/*--------------------------------*- C++ -*----------------------------------*\
  =========                 |
  \\      /  F ield         | OpenFOAM: The Open Source CFD Toolbox
   \\    /   O peration     | Website:  https://openfoam.org
    \\  /    A nd           | Version:  7
     \\/     M anipulation  |
\*---------------------------------------------------------------------------*/
FoamFile
{
    version     2.0;
    format      ascii;
    class       volScalarField;
    location    "0.00044";
    object      OH;
}
// * * * * * * * * * * * * * * * * * * * * * * * * * * * * * * * * * * * * * //

dimensions      [0 0 0 0 0 0 0];

internalField   nonuniform List<scalar> 
126
(
6.76775e-47
6.76863e-47
6.76941e-47
6.7701e-47
6.7707e-47
6.77124e-47
6.77173e-47
6.7722e-47
6.77267e-47
6.77315e-47
6.77363e-47
6.77411e-47
6.7746e-47
6.7751e-47
6.7756e-47
6.77609e-47
6.7766e-47
6.7771e-47
6.7776e-47
6.77811e-47
6.77862e-47
6.77914e-47
6.77967e-47
6.78021e-47
6.78076e-47
6.78133e-47
6.78191e-47
6.7825e-47
6.78311e-47
6.78373e-47
6.78436e-47
6.78499e-47
6.78563e-47
6.78628e-47
6.78692e-47
6.78756e-47
6.78818e-47
6.7888e-47
6.7894e-47
6.78999e-47
6.79056e-47
6.7911e-47
6.79163e-47
6.79213e-47
6.79261e-47
6.79305e-47
6.79348e-47
6.79387e-47
6.79423e-47
6.79457e-47
6.79487e-47
6.79514e-47
6.79537e-47
6.79556e-47
6.79572e-47
6.79583e-47
6.7959e-47
6.79593e-47
6.7959e-47
6.79583e-47
6.79571e-47
6.79553e-47
6.79529e-47
6.795e-47
6.79464e-47
6.79421e-47
6.79372e-47
6.79316e-47
6.79252e-47
6.79181e-47
6.79102e-47
6.79014e-47
6.78919e-47
6.78814e-47
6.78701e-47
6.78578e-47
6.78447e-47
6.78314e-47
6.78206e-47
6.78265e-47
6.79163e-47
6.84124e-47
7.08414e-47
8.23692e-47
1.36327e-46
3.86337e-46
1.53393e-45
6.75305e-45
3.0269e-44
1.35237e-43
5.99376e-43
2.63222e-42
1.14507e-41
4.93371e-41
2.1053e-40
8.89659e-40
3.72285e-39
1.54257e-38
6.32863e-38
2.57068e-37
1.03382e-36
4.11604e-36
1.62236e-35
6.33056e-35
2.44546e-34
9.35206e-34
3.54076e-33
1.32724e-32
4.92602e-32
1.81043e-31
6.58974e-31
2.37593e-30
8.48749e-30
3.00496e-29
1.05481e-28
3.67278e-28
1.26929e-27
4.35712e-27
1.48709e-26
5.05291e-26
1.71232e-25
5.80152e-25
1.97187e-24
6.75332e-24
2.3431e-23
8.28398e-23
)
;

boundaryField
{
    boundary
    {
        type            empty;
    }
    inlet
    {
        type            fixedValue;
        value           nonuniform 0();
    }
    outlet
    {
        type            zeroGradient;
    }
    procBoundary3to1
    {
        type            processor;
        value           uniform 3.02383e-22;
    }
    procBoundary3to2
    {
        type            processor;
        value           uniform 6.76799e-47;
    }
}


// ************************************************************************* //
