/*--------------------------------*- C++ -*----------------------------------*\
  =========                 |
  \\      /  F ield         | OpenFOAM: The Open Source CFD Toolbox
   \\    /   O peration     | Website:  https://openfoam.org
    \\  /    A nd           | Version:  7
     \\/     M anipulation  |
\*---------------------------------------------------------------------------*/
FoamFile
{
    version     2.0;
    format      ascii;
    class       volScalarField;
    location    "0.00044";
    object      T;
}
// * * * * * * * * * * * * * * * * * * * * * * * * * * * * * * * * * * * * * //

dimensions      [0 0 0 1 0 0 0];

internalField   nonuniform List<scalar> 
126
(
301.569
301.569
301.57
301.57
301.57
301.57
301.57
301.57
301.571
301.571
301.571
301.571
301.571
301.572
301.572
301.572
301.572
301.572
301.573
301.573
301.573
301.573
301.573
301.574
301.574
301.574
301.574
301.575
301.575
301.575
301.575
301.576
301.576
301.576
301.576
301.577
301.577
301.577
301.577
301.578
301.578
301.578
301.578
301.578
301.579
301.579
301.579
301.579
301.579
301.579
301.58
301.58
301.58
301.58
301.58
301.58
301.58
301.58
301.58
301.58
301.58
301.58
301.58
301.58
301.579
301.579
301.579
301.579
301.579
301.578
301.578
301.578
301.577
301.577
301.576
301.576
301.575
301.575
301.574
301.574
301.573
301.572
301.571
301.571
301.57
301.569
301.568
301.567
301.566
301.565
301.563
301.562
301.561
301.56
301.558
301.557
301.555
301.554
301.552
301.55
301.549
301.547
301.545
301.543
301.541
301.539
301.537
301.535
301.533
301.531
301.528
301.526
301.523
301.521
301.518
301.516
301.513
301.511
301.508
301.505
301.502
301.5
301.497
301.494
301.491
301.488
)
;

boundaryField
{
    boundary
    {
        type            empty;
    }
    inlet
    {
        type            fixedValue;
        value           nonuniform 0();
    }
    outlet
    {
        type            zeroGradient;
    }
    procBoundary3to1
    {
        type            processor;
        value           uniform 301.485;
    }
    procBoundary3to2
    {
        type            processor;
        value           uniform 301.569;
    }
}


// ************************************************************************* //
