/*--------------------------------*- C++ -*----------------------------------*\
  =========                 |
  \\      /  F ield         | OpenFOAM: The Open Source CFD Toolbox
   \\    /   O peration     | Website:  https://openfoam.org
    \\  /    A nd           | Version:  7
     \\/     M anipulation  |
\*---------------------------------------------------------------------------*/
FoamFile
{
    version     2.0;
    format      ascii;
    class       volScalarField;
    location    "0.00082";
    object      O;
}
// * * * * * * * * * * * * * * * * * * * * * * * * * * * * * * * * * * * * * //

dimensions      [0 0 0 0 0 0 0];

internalField   nonuniform List<scalar> 
126
(
2.23376e-45
2.23383e-45
2.2339e-45
2.23398e-45
2.23406e-45
2.23415e-45
2.23424e-45
2.23434e-45
2.23444e-45
2.23455e-45
2.23466e-45
2.23478e-45
2.23491e-45
2.23504e-45
2.23518e-45
2.23534e-45
2.23551e-45
2.23569e-45
2.2359e-45
2.23613e-45
2.23638e-45
2.23666e-45
2.23696e-45
2.23729e-45
2.23765e-45
2.23802e-45
2.23841e-45
2.23881e-45
2.23922e-45
2.23964e-45
2.24005e-45
2.24045e-45
2.24084e-45
2.24122e-45
2.24158e-45
2.24191e-45
2.24223e-45
2.24252e-45
2.2428e-45
2.24305e-45
2.24328e-45
2.2435e-45
2.2437e-45
2.24389e-45
2.24407e-45
2.24424e-45
2.24441e-45
2.24458e-45
2.24475e-45
2.24492e-45
2.24509e-45
2.24526e-45
2.24544e-45
2.24563e-45
2.24582e-45
2.24602e-45
2.24622e-45
2.24643e-45
2.24664e-45
2.24686e-45
2.24707e-45
2.24729e-45
2.24752e-45
2.24774e-45
2.24797e-45
2.24822e-45
2.24856e-45
2.24924e-45
2.25114e-45
2.2575e-45
2.27978e-45
2.35878e-45
2.63856e-45
3.62504e-45
7.08492e-45
1.91538e-44
6.10227e-44
2.05483e-43
7.01229e-43
2.39342e-42
8.13912e-42
2.75469e-41
9.2767e-41
3.10837e-40
1.03638e-39
3.43867e-39
1.13551e-38
3.7323e-38
1.22122e-37
3.97837e-37
1.29053e-36
4.16917e-36
1.34157e-35
4.30063e-35
1.37366e-34
4.37246e-34
1.38724e-33
4.38766e-33
1.38373e-32
4.35194e-32
1.36524e-31
4.27277e-31
1.33432e-30
4.15852e-30
1.29366e-29
4.01767e-29
1.24587e-28
3.85815e-28
1.19332e-27
3.6869e-27
1.13802e-26
3.50965e-26
1.08156e-25
3.33074e-25
1.02511e-24
3.15324e-24
9.69441e-24
2.97901e-23
9.14987e-23
2.80898e-22
8.61924e-22
2.64343e-21
8.10282e-21
2.48235e-20
7.60049e-20
2.32575e-19
)
;

boundaryField
{
    boundary
    {
        type            empty;
    }
    inlet
    {
        type            fixedValue;
        value           nonuniform 0();
    }
    outlet
    {
        type            zeroGradient;
    }
    procBoundary3to1
    {
        type            processor;
        value           uniform 7.14483e-19;
    }
    procBoundary3to2
    {
        type            processor;
        value           uniform 2.2364e-45;
    }
}


// ************************************************************************* //
