/*--------------------------------*- C++ -*----------------------------------*\
  =========                 |
  \\      /  F ield         | OpenFOAM: The Open Source CFD Toolbox
   \\    /   O peration     | Website:  https://openfoam.org
    \\  /    A nd           | Version:  7
     \\/     M anipulation  |
\*---------------------------------------------------------------------------*/
FoamFile
{
    version     2.0;
    format      ascii;
    class       volScalarField;
    location    "0.00082";
    object      OH;
}
// * * * * * * * * * * * * * * * * * * * * * * * * * * * * * * * * * * * * * //

dimensions      [0 0 0 0 0 0 0];

internalField   nonuniform List<scalar> 
126
(
6.84284e-47
6.8431e-47
6.84339e-47
6.84373e-47
6.8441e-47
6.84452e-47
6.84496e-47
6.84541e-47
6.84587e-47
6.84633e-47
6.84678e-47
6.8472e-47
6.8476e-47
6.84796e-47
6.84829e-47
6.84859e-47
6.84887e-47
6.84912e-47
6.84935e-47
6.84958e-47
6.84981e-47
6.85004e-47
6.85029e-47
6.85057e-47
6.85087e-47
6.8512e-47
6.85156e-47
6.85195e-47
6.85236e-47
6.8528e-47
6.85326e-47
6.85374e-47
6.85424e-47
6.85474e-47
6.85525e-47
6.85577e-47
6.85629e-47
6.85682e-47
6.85734e-47
6.85787e-47
6.8584e-47
6.85892e-47
6.85945e-47
6.85999e-47
6.86052e-47
6.86106e-47
6.8616e-47
6.86214e-47
6.86269e-47
6.86325e-47
6.86381e-47
6.86437e-47
6.86494e-47
6.86552e-47
6.8661e-47
6.86668e-47
6.86727e-47
6.86786e-47
6.86845e-47
6.86904e-47
6.86963e-47
6.87021e-47
6.87079e-47
6.87136e-47
6.87192e-47
6.87248e-47
6.87304e-47
6.87365e-47
6.87445e-47
6.87602e-47
6.88036e-47
6.89461e-47
6.94405e-47
7.1174e-47
7.72462e-47
9.84247e-47
1.71909e-46
4.25517e-46
1.29606e-45
4.26838e-45
1.43633e-44
4.84708e-44
1.63118e-43
5.46546e-43
1.82255e-42
6.04841e-42
1.99774e-41
6.56772e-41
2.14943e-40
7.00358e-40
2.2723e-39
7.34218e-39
2.36301e-38
7.57625e-38
2.42029e-37
7.70509e-37
2.44491e-36
7.73392e-36
2.43932e-35
7.67274e-35
2.40726e-34
7.53474e-34
2.35323e-33
7.3348e-33
2.28202e-32
7.08812e-32
2.19837e-31
6.80924e-31
2.10669e-30
6.51151e-30
2.01103e-29
6.20724e-29
1.91521e-28
5.90868e-28
1.82334e-27
5.6305e-27
1.741e-26
5.39512e-26
1.67762e-25
5.24363e-25
1.65147e-24
5.25824e-24
1.6998e-23
5.60826e-23
1.89973e-22
6.64529e-22
)
;

boundaryField
{
    boundary
    {
        type            empty;
    }
    inlet
    {
        type            fixedValue;
        value           nonuniform 0();
    }
    outlet
    {
        type            zeroGradient;
    }
    procBoundary3to1
    {
        type            processor;
        value           uniform 2.42427e-21;
    }
    procBoundary3to2
    {
        type            processor;
        value           uniform 6.84326e-47;
    }
}


// ************************************************************************* //
