/*--------------------------------*- C++ -*----------------------------------*\
  =========                 |
  \\      /  F ield         | OpenFOAM: The Open Source CFD Toolbox
   \\    /   O peration     | Website:  https://openfoam.org
    \\  /    A nd           | Version:  7
     \\/     M anipulation  |
\*---------------------------------------------------------------------------*/
FoamFile
{
    version     2.0;
    format      ascii;
    class       volVectorField;
    location    "0.00082";
    object      U;
}
// * * * * * * * * * * * * * * * * * * * * * * * * * * * * * * * * * * * * * //

dimensions      [0 1 -1 0 0 0 0];

internalField   nonuniform List<vector> 
126
(
(2.34676 0 0)
(2.34675 0 0)
(2.34673 0 0)
(2.34671 0 0)
(2.34669 0 0)
(2.34668 0 0)
(2.34666 0 0)
(2.34664 0 0)
(2.34662 0 0)
(2.34661 0 0)
(2.34659 0 0)
(2.34657 0 0)
(2.34655 0 0)
(2.34653 0 0)
(2.34652 0 0)
(2.3465 0 0)
(2.34648 0 0)
(2.34646 0 0)
(2.34645 0 0)
(2.34643 0 0)
(2.34641 0 0)
(2.34639 0 0)
(2.34637 0 0)
(2.34636 0 0)
(2.34634 0 0)
(2.34632 0 0)
(2.3463 0 0)
(2.34629 0 0)
(2.34627 0 0)
(2.34625 0 0)
(2.34623 0 0)
(2.34621 0 0)
(2.3462 0 0)
(2.34618 0 0)
(2.34616 0 0)
(2.34614 0 0)
(2.34613 0 0)
(2.34611 0 0)
(2.34609 0 0)
(2.34607 0 0)
(2.34605 0 0)
(2.34604 0 0)
(2.34602 0 0)
(2.346 0 0)
(2.34598 0 0)
(2.34597 0 0)
(2.34595 0 0)
(2.34593 0 0)
(2.34591 0 0)
(2.3459 0 0)
(2.34588 0 0)
(2.34586 0 0)
(2.34584 0 0)
(2.34583 0 0)
(2.34581 0 0)
(2.34579 0 0)
(2.34577 0 0)
(2.34576 0 0)
(2.34574 0 0)
(2.34572 0 0)
(2.3457 0 0)
(2.34569 0 0)
(2.34567 0 0)
(2.34565 0 0)
(2.34564 0 0)
(2.34562 0 0)
(2.3456 0 0)
(2.34559 0 0)
(2.34557 0 0)
(2.34555 0 0)
(2.34554 0 0)
(2.34552 0 0)
(2.3455 0 0)
(2.34548 0 0)
(2.34547 0 0)
(2.34545 0 0)
(2.34544 0 0)
(2.34542 0 0)
(2.3454 0 0)
(2.34539 0 0)
(2.34537 0 0)
(2.34535 0 0)
(2.34534 0 0)
(2.34532 0 0)
(2.3453 0 0)
(2.34529 0 0)
(2.34527 0 0)
(2.34526 0 0)
(2.34524 0 0)
(2.34522 0 0)
(2.34521 0 0)
(2.34519 0 0)
(2.34518 0 0)
(2.34516 0 0)
(2.34515 0 0)
(2.34513 0 0)
(2.34511 0 0)
(2.3451 0 0)
(2.34508 0 0)
(2.34507 0 0)
(2.34505 0 0)
(2.34504 0 0)
(2.34502 0 0)
(2.34501 0 0)
(2.34499 0 0)
(2.34498 0 0)
(2.34496 0 0)
(2.34495 0 0)
(2.34493 0 0)
(2.34491 0 0)
(2.3449 0 0)
(2.34488 0 0)
(2.34487 0 0)
(2.34485 0 0)
(2.34484 0 0)
(2.34482 0 0)
(2.34481 0 0)
(2.34479 0 0)
(2.34478 0 0)
(2.34476 0 0)
(2.34475 0 0)
(2.34473 0 0)
(2.34472 0 0)
(2.3447 0 0)
(2.34469 0 0)
(2.34467 0 0)
)
;

boundaryField
{
    boundary
    {
        type            empty;
    }
    inlet
    {
        type            fixedValue;
        value           nonuniform 0();
    }
    outlet
    {
        type            zeroGradient;
    }
    procBoundary3to1
    {
        type            processor;
        value           uniform (2.34465 0 0);
    }
    procBoundary3to2
    {
        type            processor;
        value           uniform (2.34678 0 0);
    }
}


// ************************************************************************* //
