/*--------------------------------*- C++ -*----------------------------------*\
  =========                 |
  \\      /  F ield         | OpenFOAM: The Open Source CFD Toolbox
   \\    /   O peration     | Website:  https://openfoam.org
    \\  /    A nd           | Version:  7
     \\/     M anipulation  |
\*---------------------------------------------------------------------------*/
FoamFile
{
    version     2.0;
    format      ascii;
    class       volScalarField;
    location    "0.00086";
    object      T;
}
// * * * * * * * * * * * * * * * * * * * * * * * * * * * * * * * * * * * * * //

dimensions      [0 0 0 1 0 0 0];

internalField   nonuniform List<scalar> 
124
(
2214.27
2215.96
2217.63
2219.28
2220.91
2222.52
2224.1
2225.67
2227.21
2228.74
2230.25
2231.73
2233.2
2234.65
2236.09
2237.5
2238.9
2240.28
2241.65
2243
2244.33
2245.65
2246.96
2248.24
2249.52
2250.78
2252.03
2253.26
2254.48
2255.69
2256.88
2258.06
2259.23
2260.39
2261.53
2262.66
2263.78
2264.89
2265.99
2267.08
2268.16
2269.22
2270.28
2271.32
2272.36
2273.38
2274.4
2275.4
2276.4
2277.38
2278.36
2279.33
2280.28
2281.23
2282.17
2283.11
2284.03
2284.95
2285.85
2286.75
2287.64
2288.53
2289.4
2290.27
2291.13
2291.98
2292.83
2293.66
2294.5
2295.32
2296.14
2296.95
2297.75
2298.55
2299.34
2300.12
2300.9
2301.67
2302.44
2303.2
2303.95
2304.7
2305.44
2306.18
2306.91
2307.63
2308.35
2309.06
2309.77
2310.47
2311.17
2311.86
2312.54
2313.22
2313.9
2314.57
2315.23
2315.89
2316.55
2317.2
2317.84
2318.48
2319.11
2319.74
2320.36
2320.98
2321.59
2322.2
2322.8
2323.4
2323.99
2324.58
2325.16
2325.73
2326.3
2326.87
2327.42
2327.97
2328.52
2329.05
2329.56
2330.04
2330.45
2330.73
)
;

boundaryField
{
    boundary
    {
        type            empty;
    }
    inlet
    {
        type            fixedValue;
        value           nonuniform 0();
    }
    outlet
    {
        type            zeroGradient;
    }
    procBoundary0to1
    {
        type            processor;
        value           uniform 2212.55;
    }
}


// ************************************************************************* //
