/*--------------------------------*- C++ -*----------------------------------*\
  =========                 |
  \\      /  F ield         | OpenFOAM: The Open Source CFD Toolbox
   \\    /   O peration     | Website:  https://openfoam.org
    \\  /    A nd           | Version:  7
     \\/     M anipulation  |
\*---------------------------------------------------------------------------*/
FoamFile
{
    version     2.0;
    format      ascii;
    class       volVectorField;
    location    "0.00086";
    object      U;
}
// * * * * * * * * * * * * * * * * * * * * * * * * * * * * * * * * * * * * * //

dimensions      [0 1 -1 0 0 0 0];

internalField   nonuniform List<vector> 
124
(
(15.795 0 0)
(15.8051 0 0)
(15.815 0 0)
(15.8249 0 0)
(15.8346 0 0)
(15.8442 0 0)
(15.8536 0 0)
(15.863 0 0)
(15.8722 0 0)
(15.8813 0 0)
(15.8903 0 0)
(15.8991 0 0)
(15.9079 0 0)
(15.9165 0 0)
(15.9251 0 0)
(15.9335 0 0)
(15.9418 0 0)
(15.9501 0 0)
(15.9582 0 0)
(15.9662 0 0)
(15.9742 0 0)
(15.982 0 0)
(15.9898 0 0)
(15.9974 0 0)
(16.005 0 0)
(16.0125 0 0)
(16.0199 0 0)
(16.0272 0 0)
(16.0345 0 0)
(16.0416 0 0)
(16.0487 0 0)
(16.0557 0 0)
(16.0627 0 0)
(16.0695 0 0)
(16.0763 0 0)
(16.083 0 0)
(16.0896 0 0)
(16.0962 0 0)
(16.1027 0 0)
(16.1091 0 0)
(16.1155 0 0)
(16.1218 0 0)
(16.128 0 0)
(16.1341 0 0)
(16.1402 0 0)
(16.1463 0 0)
(16.1523 0 0)
(16.1582 0 0)
(16.164 0 0)
(16.1698 0 0)
(16.1756 0 0)
(16.1813 0 0)
(16.1869 0 0)
(16.1925 0 0)
(16.198 0 0)
(16.2035 0 0)
(16.2089 0 0)
(16.2142 0 0)
(16.2195 0 0)
(16.2248 0 0)
(16.23 0 0)
(16.2352 0 0)
(16.2403 0 0)
(16.2454 0 0)
(16.2504 0 0)
(16.2554 0 0)
(16.2603 0 0)
(16.2652 0 0)
(16.27 0 0)
(16.2748 0 0)
(16.2796 0 0)
(16.2843 0 0)
(16.289 0 0)
(16.2936 0 0)
(16.2982 0 0)
(16.3027 0 0)
(16.3072 0 0)
(16.3117 0 0)
(16.3161 0 0)
(16.3205 0 0)
(16.3249 0 0)
(16.3292 0 0)
(16.3335 0 0)
(16.3377 0 0)
(16.3419 0 0)
(16.3461 0 0)
(16.3502 0 0)
(16.3543 0 0)
(16.3584 0 0)
(16.3624 0 0)
(16.3664 0 0)
(16.3703 0 0)
(16.3743 0 0)
(16.3782 0 0)
(16.382 0 0)
(16.3859 0 0)
(16.3897 0 0)
(16.3934 0 0)
(16.3972 0 0)
(16.4009 0 0)
(16.4046 0 0)
(16.4082 0 0)
(16.4119 0 0)
(16.4154 0 0)
(16.419 0 0)
(16.4226 0 0)
(16.4261 0 0)
(16.4296 0 0)
(16.433 0 0)
(16.4364 0 0)
(16.4399 0 0)
(16.4432 0 0)
(16.4466 0 0)
(16.45 0 0)
(16.4533 0 0)
(16.4566 0 0)
(16.4599 0 0)
(16.4632 0 0)
(16.4665 0 0)
(16.4697 0 0)
(16.4729 0 0)
(16.4759 0 0)
(16.4785 0 0)
(16.4803 0 0)
)
;

boundaryField
{
    boundary
    {
        type            empty;
    }
    inlet
    {
        type            fixedValue;
        value           nonuniform 0();
    }
    outlet
    {
        type            zeroGradient;
    }
    procBoundary0to1
    {
        type            processor;
        value           uniform (15.7848 0 0);
    }
}


// ************************************************************************* //
