/*--------------------------------*- C++ -*----------------------------------*\
  =========                 |
  \\      /  F ield         | OpenFOAM: The Open Source CFD Toolbox
   \\    /   O peration     | Website:  https://openfoam.org
    \\  /    A nd           | Version:  7
     \\/     M anipulation  |
\*---------------------------------------------------------------------------*/
FoamFile
{
    version     2.0;
    format      ascii;
    class       volScalarField;
    location    "8e-05";
    object      H;
}
// * * * * * * * * * * * * * * * * * * * * * * * * * * * * * * * * * * * * * //

dimensions      [0 0 0 0 0 0 0];

internalField   nonuniform List<scalar> 
125
(
1.49172e-41
2.12606e-41
2.37749e-41
2.55579e-41
2.71525e-41
2.85631e-41
2.9726e-41
3.06129e-41
3.1241e-41
3.16561e-41
3.19136e-41
3.20644e-41
3.21483e-41
3.21929e-41
3.22159e-41
3.22275e-41
3.22336e-41
3.22371e-41
3.22393e-41
3.22412e-41
3.22428e-41
3.22444e-41
3.22461e-41
3.22478e-41
3.22496e-41
3.22514e-41
3.22533e-41
3.22553e-41
3.22573e-41
3.22594e-41
3.22615e-41
3.22637e-41
3.2266e-41
3.22683e-41
3.22707e-41
3.22732e-41
3.22757e-41
3.22782e-41
3.22809e-41
3.22835e-41
3.22862e-41
3.2289e-41
3.22918e-41
3.22947e-41
3.22976e-41
3.23006e-41
3.23036e-41
3.23067e-41
3.23098e-41
3.23129e-41
3.23161e-41
3.23193e-41
3.23226e-41
3.23259e-41
3.23293e-41
3.23327e-41
3.23361e-41
3.23395e-41
3.2343e-41
3.23466e-41
3.23501e-41
3.23537e-41
3.23574e-41
3.23611e-41
3.23647e-41
3.23685e-41
3.23722e-41
3.2376e-41
3.23798e-41
3.23837e-41
3.23875e-41
3.23914e-41
3.23954e-41
3.23993e-41
3.24033e-41
3.24073e-41
3.24113e-41
3.24153e-41
3.24194e-41
3.24234e-41
3.24275e-41
3.24317e-41
3.24358e-41
3.244e-41
3.24441e-41
3.24483e-41
3.24525e-41
3.24567e-41
3.2461e-41
3.24652e-41
3.24695e-41
3.24737e-41
3.2478e-41
3.24823e-41
3.24866e-41
3.24909e-41
3.24952e-41
3.24995e-41
3.25039e-41
3.25082e-41
3.25125e-41
3.25168e-41
3.25212e-41
3.25255e-41
3.25298e-41
3.25342e-41
3.25385e-41
3.25428e-41
3.25471e-41
3.25514e-41
3.25557e-41
3.256e-41
3.25642e-41
3.25685e-41
3.25727e-41
3.25769e-41
3.25811e-41
3.25852e-41
3.25893e-41
3.25934e-41
3.25974e-41
3.26012e-41
3.26046e-41
3.26073e-41
3.26086e-41
)
;

boundaryField
{
    boundary
    {
        type            empty;
    }
    inlet
    {
        type            fixedValue;
        value           uniform 0;
    }
    outlet
    {
        type            zeroGradient;
    }
    procBoundary2to3
    {
        type            processor;
        value           uniform 3.26094e-41;
    }
}


// ************************************************************************* //
