/*--------------------------------*- C++ -*----------------------------------*\
  =========                 |
  \\      /  F ield         | OpenFOAM: The Open Source CFD Toolbox
   \\    /   O peration     | Website:  https://openfoam.org
    \\  /    A nd           | Version:  7
     \\/     M anipulation  |
\*---------------------------------------------------------------------------*/
FoamFile
{
    version     2.0;
    format      ascii;
    class       volScalarField;
    location    "8e-05";
    object      H2O;
}
// * * * * * * * * * * * * * * * * * * * * * * * * * * * * * * * * * * * * * //

dimensions      [0 0 0 0 0 0 0];

internalField   nonuniform List<scalar> 
125
(
8.36037e-48
2.42362e-47
4.32086e-47
6.31312e-47
8.20774e-47
9.86116e-47
1.11953e-46
1.21962e-46
1.28978e-46
1.33595e-46
1.36457e-46
1.38138e-46
1.39076e-46
1.39574e-46
1.39828e-46
1.39951e-46
1.40009e-46
1.40034e-46
1.40045e-46
1.40049e-46
1.40051e-46
1.40051e-46
1.4005e-46
1.4005e-46
1.40049e-46
1.40048e-46
1.40047e-46
1.40046e-46
1.40046e-46
1.40045e-46
1.40044e-46
1.40043e-46
1.40042e-46
1.40041e-46
1.4004e-46
1.40039e-46
1.40039e-46
1.40038e-46
1.40037e-46
1.40036e-46
1.40036e-46
1.40035e-46
1.40034e-46
1.40034e-46
1.40033e-46
1.40032e-46
1.40032e-46
1.40032e-46
1.40031e-46
1.40031e-46
1.40031e-46
1.4003e-46
1.4003e-46
1.4003e-46
1.4003e-46
1.40031e-46
1.40031e-46
1.40031e-46
1.40032e-46
1.40032e-46
1.40033e-46
1.40033e-46
1.40034e-46
1.40035e-46
1.40036e-46
1.40037e-46
1.40039e-46
1.4004e-46
1.40042e-46
1.40043e-46
1.40045e-46
1.40047e-46
1.40049e-46
1.40051e-46
1.40054e-46
1.40056e-46
1.40059e-46
1.40061e-46
1.40064e-46
1.40067e-46
1.40071e-46
1.40074e-46
1.40078e-46
1.40081e-46
1.40085e-46
1.40089e-46
1.40093e-46
1.40098e-46
1.40102e-46
1.40107e-46
1.40112e-46
1.40117e-46
1.40122e-46
1.40127e-46
1.40133e-46
1.40138e-46
1.40144e-46
1.4015e-46
1.40156e-46
1.40163e-46
1.40169e-46
1.40176e-46
1.40183e-46
1.4019e-46
1.40197e-46
1.40204e-46
1.40212e-46
1.4022e-46
1.40228e-46
1.40236e-46
1.40244e-46
1.40252e-46
1.4026e-46
1.40269e-46
1.40278e-46
1.40287e-46
1.40296e-46
1.40305e-46
1.40313e-46
1.40321e-46
1.40322e-46
1.403e-46
1.40192e-46
1.39781e-46
1.38266e-46
)
;

boundaryField
{
    boundary
    {
        type            empty;
    }
    inlet
    {
        type            fixedValue;
        value           uniform 0;
    }
    outlet
    {
        type            zeroGradient;
    }
    procBoundary2to3
    {
        type            processor;
        value           uniform 1.35586e-46;
    }
}


// ************************************************************************* //
