/*--------------------------------*- C++ -*----------------------------------*\
  =========                 |
  \\      /  F ield         | OpenFOAM: The Open Source CFD Toolbox
   \\    /   O peration     | Website:  https://openfoam.org
    \\  /    A nd           | Version:  7
     \\/     M anipulation  |
\*---------------------------------------------------------------------------*/
FoamFile
{
    version     2.0;
    format      ascii;
    class       volScalarField;
    location    "8e-05";
    object      H2O2;
}
// * * * * * * * * * * * * * * * * * * * * * * * * * * * * * * * * * * * * * //

dimensions      [0 0 0 0 0 0 0];

internalField   nonuniform List<scalar> 
125
(
1.959e-52
6.1286e-52
1.16574e-51
1.79578e-51
2.43326e-51
3.01527e-51
3.49976e-51
3.87051e-51
4.13317e-51
4.30657e-51
4.41384e-51
4.47636e-51
4.51086e-51
4.52894e-51
4.53799e-51
4.54232e-51
4.54431e-51
4.54519e-51
4.54557e-51
4.54572e-51
4.54579e-51
4.54581e-51
4.54583e-51
4.54583e-51
4.54584e-51
4.54585e-51
4.54585e-51
4.54586e-51
4.54587e-51
4.54588e-51
4.54589e-51
4.5459e-51
4.54591e-51
4.54593e-51
4.54594e-51
4.54596e-51
4.54598e-51
4.546e-51
4.54603e-51
4.54605e-51
4.54608e-51
4.54611e-51
4.54614e-51
4.54617e-51
4.54621e-51
4.54625e-51
4.54629e-51
4.54633e-51
4.54638e-51
4.54643e-51
4.54648e-51
4.54654e-51
4.5466e-51
4.54667e-51
4.54673e-51
4.5468e-51
4.54688e-51
4.54696e-51
4.54704e-51
4.54712e-51
4.54722e-51
4.54731e-51
4.54741e-51
4.54751e-51
4.54762e-51
4.54773e-51
4.54785e-51
4.54797e-51
4.5481e-51
4.54823e-51
4.54837e-51
4.54851e-51
4.54866e-51
4.54881e-51
4.54897e-51
4.54913e-51
4.5493e-51
4.54948e-51
4.54966e-51
4.54985e-51
4.55004e-51
4.55024e-51
4.55044e-51
4.55065e-51
4.55087e-51
4.55109e-51
4.55132e-51
4.55155e-51
4.55179e-51
4.55204e-51
4.55229e-51
4.55255e-51
4.55282e-51
4.55309e-51
4.55337e-51
4.55366e-51
4.55395e-51
4.55425e-51
4.55455e-51
4.55486e-51
4.55518e-51
4.5555e-51
4.55583e-51
4.55617e-51
4.55651e-51
4.55686e-51
4.55721e-51
4.55758e-51
4.55794e-51
4.55832e-51
4.55869e-51
4.55908e-51
4.55947e-51
4.55986e-51
4.56026e-51
4.56067e-51
4.56108e-51
4.56149e-51
4.5619e-51
4.56227e-51
4.56246e-51
4.56187e-51
4.5581e-51
4.54187e-51
4.47717e-51
)
;

boundaryField
{
    boundary
    {
        type            empty;
    }
    inlet
    {
        type            fixedValue;
        value           uniform 0;
    }
    outlet
    {
        type            zeroGradient;
    }
    procBoundary2to3
    {
        type            processor;
        value           uniform 4.35296e-51;
    }
}


// ************************************************************************* //
