/*--------------------------------*- C++ -*----------------------------------*\
  =========                 |
  \\      /  F ield         | OpenFOAM: The Open Source CFD Toolbox
   \\    /   O peration     | Website:  https://openfoam.org
    \\  /    A nd           | Version:  7
     \\/     M anipulation  |
\*---------------------------------------------------------------------------*/
FoamFile
{
    version     2.0;
    format      ascii;
    class       volScalarField;
    location    "8e-05";
    object      HO2;
}
// * * * * * * * * * * * * * * * * * * * * * * * * * * * * * * * * * * * * * //

dimensions      [0 0 0 0 0 0 0];

internalField   nonuniform List<scalar> 
125
(
5.75172e-38
1.33036e-37
2.08864e-37
2.81024e-37
3.45485e-37
3.99292e-37
4.41213e-37
4.71729e-37
4.92532e-37
5.05857e-37
5.13903e-37
5.18501e-37
5.20996e-37
5.22285e-37
5.22921e-37
5.23221e-37
5.23357e-37
5.23416e-37
5.2344e-37
5.23448e-37
5.23451e-37
5.2345e-37
5.23449e-37
5.23447e-37
5.23445e-37
5.23443e-37
5.2344e-37
5.23438e-37
5.23435e-37
5.23433e-37
5.2343e-37
5.23428e-37
5.23425e-37
5.23423e-37
5.2342e-37
5.23418e-37
5.23415e-37
5.23413e-37
5.2341e-37
5.23408e-37
5.23405e-37
5.23403e-37
5.234e-37
5.23398e-37
5.23396e-37
5.23394e-37
5.23392e-37
5.2339e-37
5.23388e-37
5.23386e-37
5.23384e-37
5.23383e-37
5.23381e-37
5.2338e-37
5.23379e-37
5.23378e-37
5.23377e-37
5.23377e-37
5.23376e-37
5.23376e-37
5.23376e-37
5.23377e-37
5.23377e-37
5.23378e-37
5.23378e-37
5.2338e-37
5.23381e-37
5.23383e-37
5.23385e-37
5.23387e-37
5.23389e-37
5.23392e-37
5.23395e-37
5.23398e-37
5.23402e-37
5.23406e-37
5.2341e-37
5.23414e-37
5.23419e-37
5.23424e-37
5.2343e-37
5.23436e-37
5.23442e-37
5.23449e-37
5.23456e-37
5.23463e-37
5.23471e-37
5.23479e-37
5.23487e-37
5.23496e-37
5.23505e-37
5.23515e-37
5.23524e-37
5.23535e-37
5.23545e-37
5.23557e-37
5.23568e-37
5.2358e-37
5.23592e-37
5.23605e-37
5.23618e-37
5.23631e-37
5.23645e-37
5.23659e-37
5.23673e-37
5.23688e-37
5.23703e-37
5.23719e-37
5.23735e-37
5.23751e-37
5.23767e-37
5.23784e-37
5.23801e-37
5.23819e-37
5.23836e-37
5.23854e-37
5.23872e-37
5.2389e-37
5.23908e-37
5.23924e-37
5.23929e-37
5.23885e-37
5.23645e-37
5.22632e-37
5.1858e-37
)
;

boundaryField
{
    boundary
    {
        type            empty;
    }
    inlet
    {
        type            fixedValue;
        value           uniform 0;
    }
    outlet
    {
        type            zeroGradient;
    }
    procBoundary2to3
    {
        type            processor;
        value           uniform 5.10873e-37;
    }
}


// ************************************************************************* //
