/*--------------------------------*- C++ -*----------------------------------*\
  =========                 |
  \\      /  F ield         | OpenFOAM: The Open Source CFD Toolbox
   \\    /   O peration     | Website:  https://openfoam.org
    \\  /    A nd           | Version:  7
     \\/     M anipulation  |
\*---------------------------------------------------------------------------*/
FoamFile
{
    version     2.0;
    format      ascii;
    class       volScalarField;
    location    "8e-05";
    object      O;
}
// * * * * * * * * * * * * * * * * * * * * * * * * * * * * * * * * * * * * * //

dimensions      [0 0 0 0 0 0 0];

internalField   nonuniform List<scalar> 
125
(
1.65586e-47
4.04072e-47
6.47214e-47
8.82519e-47
1.09713e-46
1.28088e-46
1.4284e-46
1.53954e-46
1.61828e-46
1.67089e-46
1.70415e-46
1.72412e-46
1.73555e-46
1.74179e-46
1.74506e-46
1.74671e-46
1.74751e-46
1.74787e-46
1.74803e-46
1.7481e-46
1.74812e-46
1.74812e-46
1.74811e-46
1.7481e-46
1.74809e-46
1.74808e-46
1.74806e-46
1.74805e-46
1.74803e-46
1.74802e-46
1.748e-46
1.74798e-46
1.74797e-46
1.74795e-46
1.74794e-46
1.74792e-46
1.7479e-46
1.74788e-46
1.74787e-46
1.74785e-46
1.74783e-46
1.74782e-46
1.7478e-46
1.74778e-46
1.74777e-46
1.74775e-46
1.74773e-46
1.74772e-46
1.7477e-46
1.74769e-46
1.74767e-46
1.74766e-46
1.74765e-46
1.74763e-46
1.74762e-46
1.74761e-46
1.7476e-46
1.74759e-46
1.74758e-46
1.74757e-46
1.74756e-46
1.74756e-46
1.74755e-46
1.74755e-46
1.74754e-46
1.74754e-46
1.74754e-46
1.74754e-46
1.74754e-46
1.74754e-46
1.74754e-46
1.74754e-46
1.74755e-46
1.74755e-46
1.74756e-46
1.74757e-46
1.74758e-46
1.74759e-46
1.7476e-46
1.74762e-46
1.74763e-46
1.74765e-46
1.74767e-46
1.74769e-46
1.74771e-46
1.74773e-46
1.74776e-46
1.74778e-46
1.74781e-46
1.74784e-46
1.74787e-46
1.74791e-46
1.74794e-46
1.74798e-46
1.74801e-46
1.74805e-46
1.74809e-46
1.74813e-46
1.74818e-46
1.74822e-46
1.74827e-46
1.74832e-46
1.74837e-46
1.74842e-46
1.74847e-46
1.74853e-46
1.74859e-46
1.74864e-46
1.7487e-46
1.74876e-46
1.74882e-46
1.74889e-46
1.74895e-46
1.74902e-46
1.74908e-46
1.74915e-46
1.74922e-46
1.74929e-46
1.74934e-46
1.74937e-46
1.74927e-46
1.74878e-46
1.74718e-46
1.74289e-46
1.73436e-46
)
;

boundaryField
{
    boundary
    {
        type            empty;
    }
    inlet
    {
        type            fixedValue;
        value           uniform 0;
    }
    outlet
    {
        type            zeroGradient;
    }
    procBoundary2to3
    {
        type            processor;
        value           uniform 1.72476e-46;
    }
}


// ************************************************************************* //
