/*--------------------------------*- C++ -*----------------------------------*\
  =========                 |
  \\      /  F ield         | OpenFOAM: The Open Source CFD Toolbox
   \\    /   O peration     | Website:  https://openfoam.org
    \\  /    A nd           | Version:  7
     \\/     M anipulation  |
\*---------------------------------------------------------------------------*/
FoamFile
{
    version     2.0;
    format      ascii;
    class       volScalarField;
    location    "8e-05";
    object      OH;
}
// * * * * * * * * * * * * * * * * * * * * * * * * * * * * * * * * * * * * * //

dimensions      [0 0 0 0 0 0 0];

internalField   nonuniform List<scalar> 
125
(
9.87708e-48
2.02805e-47
2.8599e-47
3.53627e-47
4.08365e-47
4.51522e-47
4.84153e-47
5.07592e-47
5.23512e-47
5.33726e-47
5.39923e-47
5.43488e-47
5.45436e-47
5.4645e-47
5.46954e-47
5.47194e-47
5.47302e-47
5.47347e-47
5.47363e-47
5.47367e-47
5.47365e-47
5.47361e-47
5.47355e-47
5.47349e-47
5.47342e-47
5.47335e-47
5.47328e-47
5.4732e-47
5.47312e-47
5.47304e-47
5.47295e-47
5.47287e-47
5.47278e-47
5.47268e-47
5.47259e-47
5.47249e-47
5.47239e-47
5.47229e-47
5.47218e-47
5.47207e-47
5.47196e-47
5.47185e-47
5.47174e-47
5.47162e-47
5.4715e-47
5.47138e-47
5.47126e-47
5.47114e-47
5.47101e-47
5.47089e-47
5.47076e-47
5.47063e-47
5.4705e-47
5.47037e-47
5.47024e-47
5.4701e-47
5.46997e-47
5.46983e-47
5.4697e-47
5.46956e-47
5.46942e-47
5.46929e-47
5.46915e-47
5.46901e-47
5.46887e-47
5.46873e-47
5.46859e-47
5.46846e-47
5.46832e-47
5.46818e-47
5.46804e-47
5.4679e-47
5.46776e-47
5.46763e-47
5.46749e-47
5.46735e-47
5.46722e-47
5.46709e-47
5.46695e-47
5.46682e-47
5.46669e-47
5.46656e-47
5.46643e-47
5.4663e-47
5.46617e-47
5.46605e-47
5.46592e-47
5.4658e-47
5.46568e-47
5.46556e-47
5.46544e-47
5.46532e-47
5.4652e-47
5.46509e-47
5.46497e-47
5.46486e-47
5.46475e-47
5.46464e-47
5.46453e-47
5.46443e-47
5.46432e-47
5.46422e-47
5.46411e-47
5.46401e-47
5.46391e-47
5.4638e-47
5.4637e-47
5.4636e-47
5.4635e-47
5.4634e-47
5.4633e-47
5.4632e-47
5.4631e-47
5.46299e-47
5.46289e-47
5.46279e-47
5.46268e-47
5.46257e-47
5.46245e-47
5.46232e-47
5.46212e-47
5.46173e-47
5.46078e-47
5.45859e-47
5.45489e-47
)
;

boundaryField
{
    boundary
    {
        type            empty;
    }
    inlet
    {
        type            fixedValue;
        value           uniform 0;
    }
    outlet
    {
        type            zeroGradient;
    }
    procBoundary2to3
    {
        type            processor;
        value           uniform 5.45161e-47;
    }
}


// ************************************************************************* //
