/*--------------------------------*- C++ -*----------------------------------*\
  =========                 |
  \\      /  F ield         | OpenFOAM: The Open Source CFD Toolbox
   \\    /   O peration     | Website:  https://openfoam.org
    \\  /    A nd           | Version:  7
     \\/     M anipulation  |
\*---------------------------------------------------------------------------*/
FoamFile
{
    version     2.0;
    format      ascii;
    class       volScalarField;
    location    "8e-05";
    object      p;
}
// * * * * * * * * * * * * * * * * * * * * * * * * * * * * * * * * * * * * * //

dimensions      [1 -1 -2 0 0 0 0];

internalField   nonuniform List<scalar> 
125
(
102867
102867
102867
102867
102867
102867
102867
102867
102868
102868
102868
102868
102868
102868
102868
102868
102868
102868
102868
102868
102868
102868
102868
102868
102868
102868
102868
102868
102868
102868
102868
102869
102869
102869
102869
102869
102869
102869
102869
102869
102869
102869
102869
102870
102870
102870
102870
102870
102870
102870
102870
102870
102870
102871
102871
102871
102871
102871
102871
102871
102871
102871
102872
102872
102872
102872
102872
102872
102872
102873
102873
102873
102873
102873
102873
102873
102874
102874
102874
102874
102874
102874
102874
102875
102875
102875
102875
102875
102875
102876
102876
102876
102876
102876
102876
102877
102877
102877
102877
102877
102877
102878
102878
102878
102878
102878
102878
102879
102879
102879
102879
102879
102879
102880
102880
102880
102880
102880
102880
102881
102881
102881
102881
102881
102881
)
;

boundaryField
{
    boundary
    {
        type            empty;
    }
    inlet
    {
        type            zeroGradient;
    }
    outlet
    {
        type            waveTransmissive;
        gamma           1.4;
        value           nonuniform 0();
    }
    procBoundary2to3
    {
        type            processor;
        value           uniform 102881;
    }
}


// ************************************************************************* //
