/*--------------------------------*- C++ -*----------------------------------*\
  =========                 |
  \\      /  F ield         | OpenFOAM: The Open Source CFD Toolbox
   \\    /   O peration     | Website:  https://openfoam.org
    \\  /    A nd           | Version:  7
     \\/     M anipulation  |
\*---------------------------------------------------------------------------*/
FoamFile
{
    version     2.0;
    format      ascii;
    class       surfaceScalarField;
    location    "8e-05";
    object      phi;
}
// * * * * * * * * * * * * * * * * * * * * * * * * * * * * * * * * * * * * * //

dimensions      [1 0 -1 0 0 0 0];

internalField   nonuniform List<scalar> 
124
(
6.90794e-06
6.90188e-06
6.89425e-06
6.88577e-06
6.87723e-06
6.8692e-06
6.86197e-06
6.85561e-06
6.85003e-06
6.84509e-06
6.84063e-06
6.83648e-06
6.83256e-06
6.82876e-06
6.82506e-06
6.82142e-06
6.81782e-06
6.81427e-06
6.81076e-06
6.80728e-06
6.80385e-06
6.80045e-06
6.7971e-06
6.79379e-06
6.79053e-06
6.78732e-06
6.78415e-06
6.78104e-06
6.77797e-06
6.77496e-06
6.77201e-06
6.76911e-06
6.76627e-06
6.76348e-06
6.76076e-06
6.7581e-06
6.75549e-06
6.75296e-06
6.75048e-06
6.74808e-06
6.74573e-06
6.74346e-06
6.74125e-06
6.73911e-06
6.73704e-06
6.73504e-06
6.73312e-06
6.73126e-06
6.72948e-06
6.72776e-06
6.72613e-06
6.72456e-06
6.72307e-06
6.72165e-06
6.72031e-06
6.71904e-06
6.71785e-06
6.71674e-06
6.71569e-06
6.71473e-06
6.71384e-06
6.71302e-06
6.71228e-06
6.71162e-06
6.71103e-06
6.71052e-06
6.71008e-06
6.70972e-06
6.70943e-06
6.70921e-06
6.70907e-06
6.70901e-06
6.70901e-06
6.70909e-06
6.70924e-06
6.70946e-06
6.70976e-06
6.71012e-06
6.71055e-06
6.71105e-06
6.71162e-06
6.71226e-06
6.71297e-06
6.71374e-06
6.71458e-06
6.71548e-06
6.71644e-06
6.71747e-06
6.71856e-06
6.71971e-06
6.72091e-06
6.72218e-06
6.72351e-06
6.72489e-06
6.72632e-06
6.72781e-06
6.72936e-06
6.73095e-06
6.7326e-06
6.7343e-06
6.73604e-06
6.73783e-06
6.73966e-06
6.74154e-06
6.74347e-06
6.74543e-06
6.74743e-06
6.74948e-06
6.75156e-06
6.75367e-06
6.75582e-06
6.758e-06
6.76022e-06
6.76246e-06
6.76473e-06
6.76703e-06
6.76935e-06
6.7717e-06
6.77407e-06
6.77646e-06
6.77887e-06
6.7813e-06
6.78374e-06
6.78619e-06
)
;

boundaryField
{
    boundary
    {
        type            empty;
        value           nonuniform 0();
    }
    inlet
    {
        type            calculated;
        value           uniform -6.9126e-06;
    }
    outlet
    {
        type            calculated;
        value           nonuniform 0();
    }
    procBoundary2to3
    {
        type            processor;
        value           uniform 6.78867e-06;
    }
}


// ************************************************************************* //
