/*--------------------------------*- C++ -*----------------------------------*\
  =========                 |
  \\      /  F ield         | OpenFOAM: The Open Source CFD Toolbox
   \\    /   O peration     | Website:  https://openfoam.org
    \\  /    A nd           | Version:  7
     \\/     M anipulation  |
\*---------------------------------------------------------------------------*/
FoamFile
{
    version     2.0;
    format      ascii;
    class       volScalarField;
    location    "8e-05";
    object      Qdot;
}
// * * * * * * * * * * * * * * * * * * * * * * * * * * * * * * * * * * * * * //

dimensions      [1 -1 -3 0 0 0 0];

internalField   nonuniform List<scalar> 
125
(
-2.44525e-27
-1.94663e-27
-1.92018e-27
-2.01031e-27
-2.12312e-27
-2.22821e-27
-2.31417e-27
-2.37813e-27
-2.42199e-27
-2.44992e-27
-2.46657e-27
-2.4759e-27
-2.48087e-27
-2.48338e-27
-2.48461e-27
-2.48521e-27
-2.4855e-27
-2.48566e-27
-2.48576e-27
-2.48584e-27
-2.48591e-27
-2.48598e-27
-2.48605e-27
-2.48613e-27
-2.48621e-27
-2.48629e-27
-2.48637e-27
-2.48646e-27
-2.48655e-27
-2.48664e-27
-2.48674e-27
-2.48684e-27
-2.48694e-27
-2.48704e-27
-2.48715e-27
-2.48726e-27
-2.48737e-27
-2.48748e-27
-2.4876e-27
-2.48772e-27
-2.48784e-27
-2.48797e-27
-2.48809e-27
-2.48822e-27
-2.48835e-27
-2.48849e-27
-2.48863e-27
-2.48877e-27
-2.48891e-27
-2.48906e-27
-2.4892e-27
-2.48935e-27
-2.48951e-27
-2.48966e-27
-2.48982e-27
-2.48998e-27
-2.49015e-27
-2.49031e-27
-2.49048e-27
-2.49065e-27
-2.49083e-27
-2.491e-27
-2.49118e-27
-2.49137e-27
-2.49155e-27
-2.49174e-27
-2.49193e-27
-2.49212e-27
-2.49232e-27
-2.49252e-27
-2.49272e-27
-2.49292e-27
-2.49313e-27
-2.49334e-27
-2.49356e-27
-2.49377e-27
-2.49399e-27
-2.49422e-27
-2.49444e-27
-2.49467e-27
-2.4949e-27
-2.49513e-27
-2.49537e-27
-2.49561e-27
-2.49585e-27
-2.4961e-27
-2.49635e-27
-2.4966e-27
-2.49686e-27
-2.49711e-27
-2.49737e-27
-2.49764e-27
-2.4979e-27
-2.49817e-27
-2.49844e-27
-2.49872e-27
-2.49899e-27
-2.49927e-27
-2.49955e-27
-2.49984e-27
-2.50013e-27
-2.50041e-27
-2.50071e-27
-2.501e-27
-2.50129e-27
-2.50159e-27
-2.50189e-27
-2.50219e-27
-2.5025e-27
-2.5028e-27
-2.50311e-27
-2.50341e-27
-2.50372e-27
-2.50403e-27
-2.50434e-27
-2.50466e-27
-2.50497e-27
-2.50528e-27
-2.5056e-27
-2.50591e-27
-2.50622e-27
-2.50652e-27
-2.5068e-27
-2.50703e-27
-2.50713e-27
)
;

boundaryField
{
    boundary
    {
        type            empty;
    }
    inlet
    {
        type            calculated;
        value           uniform 0;
    }
    outlet
    {
        type            calculated;
        value           nonuniform 0();
    }
    procBoundary2to3
    {
        type            processor;
        value           uniform 0;
    }
}


// ************************************************************************* //
