/*--------------------------------*- C++ -*----------------------------------*\
  =========                 |
  \\      /  F ield         | OpenFOAM: The Open Source CFD Toolbox
   \\    /   O peration     | Website:  https://openfoam.org
    \\  /    A nd           | Version:  7
     \\/     M anipulation  |
\*---------------------------------------------------------------------------*/
FoamFile
{
    version     2.0;
    format      ascii;
    class       volScalarField;
    location    "8e-05";
    object      T;
}
// * * * * * * * * * * * * * * * * * * * * * * * * * * * * * * * * * * * * * //

dimensions      [0 0 0 1 0 0 0];

internalField   nonuniform List<scalar> 
125
(
300.05
300.175
300.352
300.549
300.738
300.902
301.031
301.125
301.19
301.232
301.257
301.272
301.28
301.284
301.286
301.287
301.288
301.288
301.288
301.288
301.288
301.288
301.288
301.289
301.289
301.289
301.289
301.289
301.289
301.289
301.289
301.29
301.29
301.29
301.29
301.29
301.29
301.29
301.291
301.291
301.291
301.291
301.291
301.291
301.292
301.292
301.292
301.292
301.292
301.293
301.293
301.293
301.293
301.293
301.294
301.294
301.294
301.294
301.295
301.295
301.295
301.295
301.296
301.296
301.296
301.296
301.297
301.297
301.297
301.297
301.298
301.298
301.298
301.298
301.299
301.299
301.299
301.3
301.3
301.3
301.301
301.301
301.301
301.301
301.302
301.302
301.302
301.303
301.303
301.303
301.304
301.304
301.305
301.305
301.305
301.306
301.306
301.306
301.307
301.307
301.307
301.308
301.308
301.309
301.309
301.309
301.31
301.31
301.31
301.311
301.311
301.312
301.312
301.312
301.313
301.313
301.314
301.314
301.314
301.315
301.315
301.316
301.316
301.316
301.316
)
;

boundaryField
{
    boundary
    {
        type            empty;
    }
    inlet
    {
        type            fixedValue;
        value           uniform 300;
    }
    outlet
    {
        type            zeroGradient;
    }
    procBoundary2to3
    {
        type            processor;
        value           uniform 301.316;
    }
}


// ************************************************************************* //
