/*--------------------------------*- C++ -*----------------------------------*\
  =========                 |
  \\      /  F ield         | OpenFOAM: The Open Source CFD Toolbox
   \\    /   O peration     | Website:  https://openfoam.org
    \\  /    A nd           | Version:  7
     \\/     M anipulation  |
\*---------------------------------------------------------------------------*/
FoamFile
{
    version     2.0;
    format      ascii;
    class       volVectorField;
    location    "8e-05";
    object      U;
}
// * * * * * * * * * * * * * * * * * * * * * * * * * * * * * * * * * * * * * //

dimensions      [0 1 -1 0 0 0 0];

internalField   nonuniform List<vector> 
125
(
(2.34845 0 0)
(2.34801 0 0)
(2.34713 0 0)
(2.34554 0 0)
(2.34393 0 0)
(2.34248 0 0)
(2.34092 0 0)
(2.33933 0 0)
(2.3378 0 0)
(2.33634 0 0)
(2.33494 0 0)
(2.33361 0 0)
(2.33229 0 0)
(2.33101 0 0)
(2.32975 0 0)
(2.32851 0 0)
(2.32728 0 0)
(2.32606 0 0)
(2.32486 0 0)
(2.32367 0 0)
(2.32248 0 0)
(2.32131 0 0)
(2.32016 0 0)
(2.31903 0 0)
(2.31791 0 0)
(2.3168 0 0)
(2.31571 0 0)
(2.31464 0 0)
(2.3136 0 0)
(2.31255 0 0)
(2.31152 0 0)
(2.31052 0 0)
(2.30955 0 0)
(2.30859 0 0)
(2.30765 0 0)
(2.30673 0 0)
(2.30583 0 0)
(2.30495 0 0)
(2.3041 0 0)
(2.30326 0 0)
(2.30245 0 0)
(2.30167 0 0)
(2.3009 0 0)
(2.30016 0 0)
(2.29944 0 0)
(2.29874 0 0)
(2.29807 0 0)
(2.29743 0 0)
(2.2968 0 0)
(2.29621 0 0)
(2.29564 0 0)
(2.29509 0 0)
(2.29457 0 0)
(2.29407 0 0)
(2.2936 0 0)
(2.29315 0 0)
(2.29273 0 0)
(2.29233 0 0)
(2.29197 0 0)
(2.29162 0 0)
(2.2913 0 0)
(2.29101 0 0)
(2.29075 0 0)
(2.29051 0 0)
(2.29029 0 0)
(2.2901 0 0)
(2.28994 0 0)
(2.2898 0 0)
(2.28969 0 0)
(2.28961 0 0)
(2.28954 0 0)
(2.2895 0 0)
(2.28949 0 0)
(2.28951 0 0)
(2.28954 0 0)
(2.28961 0 0)
(2.28969 0 0)
(2.2898 0 0)
(2.28994 0 0)
(2.2901 0 0)
(2.29028 0 0)
(2.29048 0 0)
(2.29071 0 0)
(2.29096 0 0)
(2.29124 0 0)
(2.29153 0 0)
(2.29185 0 0)
(2.29219 0 0)
(2.29255 0 0)
(2.29293 0 0)
(2.29333 0 0)
(2.29375 0 0)
(2.29419 0 0)
(2.29465 0 0)
(2.29513 0 0)
(2.29563 0 0)
(2.29615 0 0)
(2.29668 0 0)
(2.29723 0 0)
(2.2978 0 0)
(2.29839 0 0)
(2.29899 0 0)
(2.29961 0 0)
(2.30024 0 0)
(2.30089 0 0)
(2.30155 0 0)
(2.30223 0 0)
(2.30291 0 0)
(2.30362 0 0)
(2.30434 0 0)
(2.30506 0 0)
(2.30579 0 0)
(2.30654 0 0)
(2.30731 0 0)
(2.30807 0 0)
(2.30885 0 0)
(2.30964 0 0)
(2.31043 0 0)
(2.31124 0 0)
(2.31205 0 0)
(2.31287 0 0)
(2.31369 0 0)
(2.31452 0 0)
(2.31535 0 0)
(2.31617 0 0)
)
;

boundaryField
{
    boundary
    {
        type            empty;
    }
    inlet
    {
        type            fixedValue;
        value           uniform (2.34893 0 0);
    }
    outlet
    {
        type            zeroGradient;
    }
    procBoundary2to3
    {
        type            processor;
        value           uniform (2.31699 0 0);
    }
}


// ************************************************************************* //
