/*--------------------------------*- C++ -*----------------------------------*\
  =========                 |
  \\      /  F ield         | OpenFOAM: The Open Source CFD Toolbox
   \\    /   O peration     | Website:  https://openfoam.org
    \\  /    A nd           | Version:  7
     \\/     M anipulation  |
\*---------------------------------------------------------------------------*/
FoamFile
{
    version     2.0;
    format      ascii;
    class       volScalarField;
    location    "0.00039";
    object      H;
}
// * * * * * * * * * * * * * * * * * * * * * * * * * * * * * * * * * * * * * //

dimensions      [0 0 0 0 0 0 0];

internalField   nonuniform List<scalar> 
500
(
1.48717e-41
2.01648e-41
2.13289e-41
2.16046e-41
2.16918e-41
2.17422e-41
2.17897e-41
2.18433e-41
2.19064e-41
2.19822e-41
2.20738e-41
2.21848e-41
2.23192e-41
2.24811e-41
2.26749e-41
2.29049e-41
2.3175e-41
2.34887e-41
2.38484e-41
2.42557e-41
2.47106e-41
2.52119e-41
2.57564e-41
2.63391e-41
2.69535e-41
2.75914e-41
2.82434e-41
2.88993e-41
2.95484e-41
3.01803e-41
3.07853e-41
3.13548e-41
3.18821e-41
3.23621e-41
3.27918e-41
3.31702e-41
3.34981e-41
3.37775e-41
3.40121e-41
3.42059e-41
3.43636e-41
3.449e-41
3.459e-41
3.46678e-41
3.47277e-41
3.4773e-41
3.48069e-41
3.4832e-41
3.48502e-41
3.48634e-41
3.48728e-41
3.48794e-41
3.4884e-41
3.48872e-41
3.48894e-41
3.48909e-41
3.48919e-41
3.48927e-41
3.48932e-41
3.48936e-41
3.48939e-41
3.48941e-41
3.48944e-41
3.48946e-41
3.48948e-41
3.4895e-41
3.48952e-41
3.48955e-41
3.48957e-41
3.48959e-41
3.48962e-41
3.48965e-41
3.48968e-41
3.48971e-41
3.48974e-41
3.48978e-41
3.48981e-41
3.48985e-41
3.48989e-41
3.48994e-41
3.48998e-41
3.49003e-41
3.49007e-41
3.49013e-41
3.49018e-41
3.49023e-41
3.49029e-41
3.49035e-41
3.49042e-41
3.49048e-41
3.49055e-41
3.49063e-41
3.4907e-41
3.49078e-41
3.49086e-41
3.49094e-41
3.49103e-41
3.49112e-41
3.49122e-41
3.49132e-41
3.49142e-41
3.49152e-41
3.49163e-41
3.49174e-41
3.49186e-41
3.49198e-41
3.4921e-41
3.49223e-41
3.49236e-41
3.4925e-41
3.49263e-41
3.49278e-41
3.49293e-41
3.49308e-41
3.49323e-41
3.49339e-41
3.49356e-41
3.49373e-41
3.4939e-41
3.49407e-41
3.49426e-41
3.49444e-41
3.49463e-41
3.49482e-41
3.49504e-41
3.49525e-41
3.49542e-41
3.49562e-41
3.49582e-41
3.49604e-41
3.49625e-41
3.49647e-41
3.49669e-41
3.4969e-41
3.49713e-41
3.49735e-41
3.49757e-41
3.49779e-41
3.49801e-41
3.49824e-41
3.49846e-41
3.49869e-41
3.49891e-41
3.49915e-41
3.49938e-41
3.49962e-41
3.49987e-41
3.50012e-41
3.50038e-41
3.50064e-41
3.50091e-41
3.50118e-41
3.50146e-41
3.50174e-41
3.50202e-41
3.50231e-41
3.50258e-41
3.50286e-41
3.50313e-41
3.5034e-41
3.50366e-41
3.50391e-41
3.50415e-41
3.50438e-41
3.50461e-41
3.50482e-41
3.50503e-41
3.50522e-41
3.5054e-41
3.50557e-41
3.50573e-41
3.50587e-41
3.506e-41
3.50611e-41
3.50621e-41
3.5063e-41
3.50637e-41
3.50642e-41
3.50645e-41
3.50646e-41
3.50645e-41
3.50641e-41
3.50636e-41
3.50628e-41
3.50618e-41
3.50605e-41
3.50589e-41
3.5057e-41
3.50549e-41
3.50524e-41
3.50497e-41
3.50465e-41
3.50431e-41
3.50393e-41
3.50351e-41
3.50305e-41
3.50255e-41
3.50202e-41
3.50144e-41
3.50081e-41
3.50015e-41
3.49943e-41
3.49867e-41
3.49787e-41
3.49701e-41
3.4961e-41
3.49514e-41
3.49413e-41
3.49307e-41
3.49195e-41
3.49077e-41
3.48954e-41
3.48825e-41
3.48691e-41
3.4855e-41
3.48405e-41
3.48257e-41
3.48121e-41
3.48059e-41
3.48354e-41
3.50263e-41
3.59339e-41
3.9982e-41
5.76427e-41
1.3368e-40
4.57404e-40
1.82082e-39
7.50159e-39
3.09165e-38
1.26386e-37
5.11427e-37
2.04745e-36
8.10836e-36
3.17633e-35
1.23083e-34
4.71815e-34
1.78928e-33
6.71389e-33
2.49308e-32
9.16377e-32
3.33532e-31
1.20263e-30
4.29866e-30
1.52445e-29
5.36994e-29
1.88171e-28
6.57218e-28
2.29358e-27
8.02263e-27
2.8235e-26
1.00445e-25
3.60991e-25
1.32976e-24
5.02625e-24
1.95418e-23
7.82108e-23
3.21822e-22
1.3576e-21
5.84931e-21
2.56413e-20
1.13972e-19
5.1236e-19
2.32604e-18
1.0661e-17
4.93831e-17
2.3179e-16
1.10727e-15
5.41703e-15
2.73509e-14
1.43687e-13
8.08483e-13
5.33494e-12
4.64835e-11
4.48303e-10
4.18206e-09
3.90857e-08
3.55069e-07
2.9307e-06
1.95378e-05
8.93987e-05
0.000254731
0.000513032
0.000844214
0.00120824
0.00153624
0.00176889
0.00189328
0.00192925
0.00190755
0.00185312
0.00178286
0.00170702
0.00163134
0.00155877
0.00149066
0.00142745
0.00136909
0.00131531
0.00126574
0.00121998
0.00117766
0.00113842
0.00110194
0.00106795
0.00103618
0.00100643
0.000978497
0.000952221
0.000927452
0.00090406
0.00088193
0.000860959
0.000841641
0.00082367
0.000806448
0.000789927
0.000774064
0.000758821
0.000744159
0.000730044
0.000716446
0.000703336
0.000690686
0.000678472
0.000666671
0.000655262
0.000644224
0.000633541
0.000623193
0.000613165
0.000603442
0.000594011
0.000584857
0.000575969
0.000567335
0.000558943
0.000550785
0.000542849
0.000535128
0.000527612
0.000520293
0.000513164
0.000506218
0.000499447
0.000492846
0.000486407
0.000480126
0.000473997
0.000468014
0.000462172
0.000456468
0.000450896
0.000445453
0.000440133
0.000434934
0.000429852
0.000424883
0.000420025
0.000415273
0.000410625
0.000406079
0.000401631
0.000397279
0.000393022
0.000388856
0.00038478
0.000380792
0.000376891
0.000373075
0.000369341
0.00036569
0.000362119
0.000358626
0.000355209
0.000351864
0.000348586
0.000345345
0.000342155
0.000339019
0.000335938
0.000332913
0.000329944
0.00032703
0.00032417
0.000321363
0.000318607
0.000315902
0.000313245
0.000310635
0.00030807
0.000305549
0.000303071
0.000300633
0.000298233
0.000295871
0.000293543
0.000291248
0.000288985
0.000286751
0.000284544
0.000282362
0.000280204
0.000278067
0.000275949
0.000273848
0.000271762
0.000269689
0.000267627
0.000265574
0.000263527
0.000261486
0.000259447
0.000257408
0.000255369
0.000253326
0.000251279
0.000249225
0.000247162
0.00024509
0.000243006
0.00024091
0.000238799
0.000236673
0.00023453
0.00023237
0.000230192
0.000227995
0.000225778
0.000223542
0.000221285
0.000219008
0.000216711
0.000214393
0.000212055
0.000209698
0.00020732
0.000204925
0.000202511
0.000200079
0.000197631
0.000195168
0.00019269
0.000190199
0.000187696
0.000185182
0.000182659
0.000180127
0.00017759
0.000175048
0.000172502
0.000169955
0.000167409
0.000164866
0.000162326
0.000159794
0.000157269
0.000154755
0.000152254
0.000149768
0.000147299
0.00014485
0.000142422
0.000140018
0.000137641
0.000135293
0.000132976
0.000130691
0.000128443
0.000126232
0.000124061
0.000121931
0.000119845
0.000117805
0.000115813
0.000113869
0.000111975
0.000110134
0.000108345
0.00010661
0.000104931
0.000103307
0.000101739
0.000100228
9.87748e-05
9.73787e-05
9.60402e-05
9.47593e-05
9.35362e-05
9.23711e-05
9.12642e-05
9.02162e-05
8.92282e-05
8.83022e-05
8.74415e-05
8.66511e-05
8.59388e-05
8.53164e-05
8.48012e-05
8.44185e-05
8.42037e-05
)
;

boundaryField
{
    boundary
    {
        type            empty;
    }
    inlet
    {
        type            fixedValue;
        value           uniform 0;
    }
    outlet
    {
        type            zeroGradient;
    }
}


// ************************************************************************* //
