/*--------------------------------*- C++ -*----------------------------------*\
  =========                 |
  \\      /  F ield         | OpenFOAM: The Open Source CFD Toolbox
   \\    /   O peration     | Website:  https://openfoam.org
    \\  /    A nd           | Version:  7
     \\/     M anipulation  |
\*---------------------------------------------------------------------------*/
FoamFile
{
    version     2.0;
    format      ascii;
    class       volScalarField;
    location    "0.00039";
    object      H2;
}
// * * * * * * * * * * * * * * * * * * * * * * * * * * * * * * * * * * * * * //

dimensions      [0 0 0 0 0 0 0];

internalField   nonuniform List<scalar> 
500
(
0.0285116
0.0285116
0.0285116
0.0285116
0.0285116
0.0285116
0.0285116
0.0285116
0.0285116
0.0285116
0.0285116
0.0285116
0.0285116
0.0285116
0.0285116
0.0285116
0.0285116
0.0285116
0.0285116
0.0285116
0.0285116
0.0285116
0.0285116
0.0285116
0.0285116
0.0285116
0.0285116
0.0285116
0.0285116
0.0285116
0.0285116
0.0285116
0.0285116
0.0285116
0.0285116
0.0285116
0.0285116
0.0285116
0.0285116
0.0285116
0.0285116
0.0285116
0.0285116
0.0285116
0.0285116
0.0285116
0.0285116
0.0285116
0.0285116
0.0285116
0.0285116
0.0285116
0.0285116
0.0285116
0.0285116
0.0285116
0.0285116
0.0285116
0.0285116
0.0285116
0.0285116
0.0285116
0.0285116
0.0285116
0.0285116
0.0285116
0.0285116
0.0285116
0.0285116
0.0285116
0.0285116
0.0285116
0.0285116
0.0285116
0.0285116
0.0285116
0.0285116
0.0285116
0.0285116
0.0285116
0.0285116
0.0285116
0.0285116
0.0285116
0.0285116
0.0285116
0.0285116
0.0285116
0.0285116
0.0285116
0.0285116
0.0285116
0.0285116
0.0285116
0.0285116
0.0285116
0.0285116
0.0285116
0.0285116
0.0285116
0.0285116
0.0285116
0.0285116
0.0285116
0.0285116
0.0285116
0.0285116
0.0285116
0.0285116
0.0285116
0.0285116
0.0285116
0.0285116
0.0285116
0.0285116
0.0285116
0.0285116
0.0285116
0.0285116
0.0285116
0.0285116
0.0285116
0.0285116
0.0285116
0.0285116
0.0285116
0.0285116
0.0285116
0.0285116
0.0285116
0.0285116
0.0285116
0.0285116
0.0285116
0.0285116
0.0285116
0.0285116
0.0285116
0.0285116
0.0285116
0.0285116
0.0285116
0.0285116
0.0285116
0.0285116
0.0285116
0.0285116
0.0285116
0.0285116
0.0285116
0.0285116
0.0285116
0.0285116
0.0285116
0.0285116
0.0285116
0.0285116
0.0285116
0.0285116
0.0285116
0.0285116
0.0285116
0.0285116
0.0285116
0.0285116
0.0285116
0.0285116
0.0285116
0.0285116
0.0285116
0.0285116
0.0285116
0.0285116
0.0285116
0.0285116
0.0285116
0.0285116
0.0285116
0.0285116
0.0285116
0.0285116
0.0285116
0.0285116
0.0285116
0.0285116
0.0285116
0.0285116
0.0285116
0.0285116
0.0285116
0.0285116
0.0285116
0.0285116
0.0285116
0.0285116
0.0285116
0.0285116
0.0285116
0.0285116
0.0285116
0.0285116
0.0285116
0.0285116
0.0285116
0.0285116
0.0285116
0.0285116
0.0285116
0.0285116
0.0285116
0.0285116
0.0285116
0.0285116
0.0285116
0.0285116
0.0285116
0.0285116
0.0285116
0.0285116
0.0285116
0.0285116
0.0285116
0.0285116
0.0285116
0.0285116
0.0285116
0.0285116
0.0285116
0.0285116
0.0285116
0.0285116
0.0285116
0.0285116
0.0285116
0.0285116
0.0285116
0.0285116
0.0285116
0.0285116
0.0285116
0.0285116
0.0285116
0.0285116
0.0285116
0.0285116
0.0285116
0.0285116
0.0285116
0.0285116
0.0285116
0.0285116
0.0285116
0.0285116
0.0285116
0.0285116
0.0285116
0.0285116
0.0285116
0.0285116
0.0285116
0.0285116
0.0285116
0.0285116
0.0285115
0.0285115
0.0285114
0.0285111
0.0285106
0.0285095
0.0285073
0.0285026
0.0284927
0.0284721
0.0284292
0.0283401
0.0281564
0.0277867
0.027082
0.0258657
0.0240323
0.0216806
0.0189702
0.0159843
0.0129132
0.0101183
0.00790788
0.00633411
0.00531059
0.00466724
0.00427071
0.00402691
0.00387493
0.0037771
0.00371077
0.00366255
0.00362464
0.00359255
0.00356372
0.00353674
0.00351082
0.00348555
0.00346073
0.00343627
0.00341212
0.00338829
0.00336477
0.00334159
0.00331874
0.00329625
0.00327412
0.00325236
0.00323096
0.00321057
0.003191
0.0031717
0.00315267
0.0031339
0.0031154
0.00309716
0.00307917
0.00306143
0.00304394
0.0030267
0.0030097
0.00299294
0.00297642
0.00296013
0.00294406
0.00292822
0.0029126
0.00289719
0.002882
0.00286702
0.00285224
0.00283767
0.00282329
0.00280911
0.00279512
0.00278131
0.0027677
0.00275427
0.00274101
0.00272794
0.00271504
0.00270231
0.00268976
0.00267737
0.00266516
0.0026531
0.00264121
0.00262949
0.00261793
0.00260653
0.00259529
0.00258421
0.00257329
0.00256253
0.00255194
0.00254151
0.00253124
0.00252114
0.0025112
0.00250144
0.00249186
0.00248245
0.00247323
0.00246421
0.00245538
0.00244677
0.00243837
0.00243023
0.00242234
0.00241475
0.00240749
0.00240062
0.00239419
0.00238758
0.00238052
0.0023737
0.00236711
0.00236073
0.00235458
0.00234866
0.00234296
0.0023375
0.00233227
0.00232729
0.00232255
0.00231807
0.00231384
0.00230987
0.00230616
0.00230272
0.00229954
0.00229664
0.002294
0.00229163
0.00228953
0.0022877
0.00228612
0.0022848
0.00228373
0.00228291
0.00228232
0.00228195
0.0022818
0.00228185
0.00228208
0.00228249
0.00228305
0.00228375
0.00228457
0.00228548
0.00228646
0.00228749
0.00228854
0.00228959
0.0022906
0.00229155
0.00229241
0.00229315
0.00229373
0.00229413
0.0022943
0.00229422
0.00229385
0.00229316
0.00229212
0.00229069
0.00228884
0.00228653
0.00228375
0.00228046
0.00227663
0.00227223
0.00226725
0.00226166
0.00225545
0.00224859
0.00224107
0.00223289
0.00222402
0.00221447
0.00220423
0.0021933
0.00218169
0.0021694
0.00215644
0.00214282
0.00212856
0.00211367
0.00209818
0.00208211
0.00206548
0.00204833
0.00203067
0.00201255
0.001994
0.00197506
0.00195576
0.00193614
0.00191625
0.00189612
0.00187581
0.00185534
0.00183476
0.00181412
0.00179347
0.00177283
0.00175227
0.00173181
0.0017115
0.00169138
0.00167149
0.00165186
0.00163253
0.00161354
0.00159491
0.00157668
0.00155887
0.0015415
0.00152461
0.0015082
0.00149231
0.00147694
0.00146211
0.00144783
0.00143412
0.00142099
0.00140846
0.00139653
0.00138523
0.00137458
0.00136464
0.00135547
0.00134715
0.00133982
0.0013337
0.00132909
0.00132644
)
;

boundaryField
{
    boundary
    {
        type            empty;
    }
    inlet
    {
        type            fixedValue;
        value           uniform 0.0285116;
    }
    outlet
    {
        type            zeroGradient;
    }
}


// ************************************************************************* //
