/*--------------------------------*- C++ -*----------------------------------*\
  =========                 |
  \\      /  F ield         | OpenFOAM: The Open Source CFD Toolbox
   \\    /   O peration     | Website:  https://openfoam.org
    \\  /    A nd           | Version:  7
     \\/     M anipulation  |
\*---------------------------------------------------------------------------*/
FoamFile
{
    version     2.0;
    format      ascii;
    class       volScalarField;
    location    "0.00039";
    object      H2O;
}
// * * * * * * * * * * * * * * * * * * * * * * * * * * * * * * * * * * * * * //

dimensions      [0 0 0 0 0 0 0];

internalField   nonuniform List<scalar> 
500
(
7.90465e-48
2.28622e-47
4.11745e-47
6.17864e-47
8.39966e-47
1.07348e-46
1.31553e-46
1.56446e-46
1.81946e-46
2.08041e-46
2.3477e-46
2.6221e-46
2.90471e-46
3.19681e-46
3.49982e-46
3.81508e-46
4.1438e-46
4.48684e-46
4.8446e-46
5.21682e-46
5.60251e-46
5.99985e-46
6.40616e-46
6.81796e-46
7.2311e-46
7.6409e-46
8.04241e-46
8.43066e-46
8.80095e-46
9.14906e-46
9.47153e-46
9.76576e-46
1.00301e-45
1.0264e-45
1.04678e-45
1.06425e-45
1.079e-45
1.09126e-45
1.1013e-45
1.1094e-45
1.11582e-45
1.12085e-45
1.12472e-45
1.12767e-45
1.12988e-45
1.1315e-45
1.13269e-45
1.13354e-45
1.13415e-45
1.13457e-45
1.13486e-45
1.13506e-45
1.1352e-45
1.13529e-45
1.13535e-45
1.13539e-45
1.13541e-45
1.13543e-45
1.13544e-45
1.13545e-45
1.13545e-45
1.13546e-45
1.13546e-45
1.13547e-45
1.13547e-45
1.13547e-45
1.13548e-45
1.13548e-45
1.13549e-45
1.13549e-45
1.1355e-45
1.13551e-45
1.13551e-45
1.13552e-45
1.13553e-45
1.13554e-45
1.13555e-45
1.13556e-45
1.13557e-45
1.13558e-45
1.1356e-45
1.13561e-45
1.13562e-45
1.13564e-45
1.13566e-45
1.13567e-45
1.13569e-45
1.13571e-45
1.13573e-45
1.13575e-45
1.13577e-45
1.1358e-45
1.13582e-45
1.13585e-45
1.13587e-45
1.1359e-45
1.13593e-45
1.13596e-45
1.13599e-45
1.13603e-45
1.13606e-45
1.1361e-45
1.13614e-45
1.13617e-45
1.13621e-45
1.13626e-45
1.1363e-45
1.13634e-45
1.13639e-45
1.13644e-45
1.13649e-45
1.13654e-45
1.13659e-45
1.13664e-45
1.1367e-45
1.13676e-45
1.13682e-45
1.13688e-45
1.13694e-45
1.137e-45
1.13707e-45
1.13713e-45
1.13715e-45
1.13696e-45
1.13571e-45
1.1333e-45
1.1345e-45
1.13575e-45
1.13685e-45
1.13767e-45
1.13821e-45
1.13853e-45
1.13868e-45
1.13873e-45
1.13871e-45
1.13864e-45
1.13854e-45
1.1384e-45
1.13824e-45
1.13807e-45
1.13788e-45
1.13769e-45
1.13751e-45
1.13736e-45
1.13724e-45
1.13716e-45
1.13713e-45
1.13715e-45
1.13723e-45
1.13736e-45
1.13754e-45
1.13775e-45
1.138e-45
1.13827e-45
1.13855e-45
1.13883e-45
1.13911e-45
1.13937e-45
1.13962e-45
1.13985e-45
1.14006e-45
1.14025e-45
1.14042e-45
1.14057e-45
1.1407e-45
1.14082e-45
1.14092e-45
1.14101e-45
1.14109e-45
1.14116e-45
1.14122e-45
1.14128e-45
1.14133e-45
1.14136e-45
1.1414e-45
1.14142e-45
1.14144e-45
1.14145e-45
1.14145e-45
1.14144e-45
1.14143e-45
1.14141e-45
1.14137e-45
1.14133e-45
1.14128e-45
1.14121e-45
1.14114e-45
1.14105e-45
1.14095e-45
1.14084e-45
1.14072e-45
1.14058e-45
1.14043e-45
1.14026e-45
1.14008e-45
1.13989e-45
1.13967e-45
1.13944e-45
1.1392e-45
1.13893e-45
1.13865e-45
1.13835e-45
1.13803e-45
1.13769e-45
1.13733e-45
1.13695e-45
1.13658e-45
1.13628e-45
1.13649e-45
1.13942e-45
1.15625e-45
1.24349e-45
1.68394e-45
3.88213e-45
1.47638e-44
6.82569e-44
3.29642e-43
1.60053e-42
7.75754e-42
3.75283e-41
1.81489e-40
8.79288e-40
4.27806e-39
2.09538e-38
1.03549e-37
5.17178e-37
2.61298e-36
1.3354e-35
6.8962e-35
3.59188e-34
1.8823e-33
9.89779e-33
5.20832e-32
2.73576e-31
1.43126e-30
7.44402e-30
3.84305e-29
1.96692e-28
9.97032e-28
5.00156e-27
2.48145e-26
1.217e-25
5.89765e-25
2.82302e-24
1.33435e-23
6.22678e-23
2.8688e-22
1.3053e-21
5.86911e-21
2.61034e-20
1.14946e-19
5.0858e-19
2.20902e-18
9.46153e-18
4.01209e-17
1.68631e-16
7.03033e-16
2.90924e-15
1.19577e-14
4.88518e-14
1.98506e-13
8.0282e-13
3.23357e-12
1.29784e-11
5.1936e-11
2.07314e-10
8.25822e-10
3.28398e-09
1.3041e-08
5.17277e-08
2.04983e-07
8.11555e-07
3.20966e-06
1.26718e-05
4.98317e-05
0.000193938
0.000733649
0.00257876
0.0077249
0.0181353
0.0332088
0.0517472
0.0741398
0.0998144
0.125508
0.147372
0.164102
0.17561
0.183398
0.188663
0.192297
0.194898
0.196846
0.198376
0.199636
0.200712
0.201663
0.202521
0.203311
0.204047
0.204738
0.205392
0.206013
0.206606
0.207173
0.207716
0.208238
0.20874
0.209224
0.209689
0.210139
0.210572
0.210977
0.211363
0.211739
0.212106
0.212463
0.212811
0.213151
0.213483
0.213808
0.214125
0.214435
0.214738
0.215035
0.215326
0.215611
0.215889
0.216163
0.216431
0.216694
0.216952
0.217205
0.217454
0.217698
0.217938
0.218173
0.218405
0.218632
0.218856
0.219077
0.219294
0.219507
0.219717
0.219924
0.220128
0.220329
0.220526
0.220722
0.220914
0.221104
0.221291
0.221476
0.221659
0.221839
0.222018
0.222194
0.222368
0.222541
0.222712
0.222881
0.223049
0.223215
0.22338
0.223544
0.223706
0.223868
0.22403
0.22419
0.22435
0.224511
0.224672
0.224833
0.224997
0.225164
0.225335
0.225505
0.225666
0.225827
0.225989
0.22615
0.226312
0.226475
0.226639
0.226804
0.226969
0.227137
0.227305
0.227476
0.227647
0.227821
0.227997
0.228175
0.228354
0.228536
0.22872
0.228906
0.229094
0.229284
0.229475
0.229669
0.229864
0.23006
0.230258
0.230456
0.230656
0.230856
0.231057
0.231258
0.23146
0.231661
0.231861
0.232061
0.23226
0.232458
0.232655
0.23285
0.233043
0.233234
0.233423
0.233609
0.233793
0.233974
0.234153
0.234328
0.234501
0.23467
0.234837
0.235
0.23516
0.235317
0.235471
0.235621
0.235769
0.235914
0.236055
0.236194
0.23633
0.236463
0.236594
0.236722
0.236848
0.236971
0.237092
0.23721
0.237326
0.23744
0.237552
0.237661
0.237769
0.237874
0.237977
0.238077
0.238176
0.238272
0.238366
0.238457
0.238546
0.238632
0.238716
0.238797
0.238875
0.238951
0.239024
0.239094
0.239161
0.239226
0.239287
0.239346
0.239402
0.239454
0.239504
0.239551
0.239596
0.239637
0.239676
0.239712
0.239746
0.239777
0.239806
0.239832
0.239857
0.239879
0.239899
0.239918
0.239935
0.23995
0.239964
0.239976
0.239987
0.239997
0.240006
0.240013
0.24002
0.240025
0.24003
0.240033
0.240036
0.240037
0.240037
)
;

boundaryField
{
    boundary
    {
        type            empty;
    }
    inlet
    {
        type            fixedValue;
        value           uniform 0;
    }
    outlet
    {
        type            zeroGradient;
    }
}


// ************************************************************************* //
