/*--------------------------------*- C++ -*----------------------------------*\
  =========                 |
  \\      /  F ield         | OpenFOAM: The Open Source CFD Toolbox
   \\    /   O peration     | Website:  https://openfoam.org
    \\  /    A nd           | Version:  7
     \\/     M anipulation  |
\*---------------------------------------------------------------------------*/
FoamFile
{
    version     2.0;
    format      ascii;
    class       volScalarField;
    location    "0.00039";
    object      H2O2;
}
// * * * * * * * * * * * * * * * * * * * * * * * * * * * * * * * * * * * * * //

dimensions      [0 0 0 0 0 0 0];

internalField   nonuniform List<scalar> 
500
(
1.99982e-52
6.43177e-52
1.28023e-51
2.11252e-51
3.14188e-51
4.37086e-51
5.80299e-51
7.44307e-51
9.29744e-51
1.13743e-50
1.36837e-50
1.62379e-50
1.90507e-50
2.21369e-50
2.55116e-50
2.91886e-50
3.31787e-50
3.74875e-50
4.21135e-50
4.70454e-50
5.22609e-50
5.77253e-50
6.33907e-50
6.91973e-50
7.50748e-50
8.0945e-50
8.6726e-50
9.23358e-50
9.76971e-50
1.02741e-49
1.07412e-49
1.11667e-49
1.1548e-49
1.18842e-49
1.21757e-49
1.24243e-49
1.2633e-49
1.28053e-49
1.29454e-49
1.30574e-49
1.31455e-49
1.32139e-49
1.32661e-49
1.33054e-49
1.33346e-49
1.33559e-49
1.33712e-49
1.33821e-49
1.33898e-49
1.33951e-49
1.33987e-49
1.34011e-49
1.34028e-49
1.34038e-49
1.34046e-49
1.3405e-49
1.34053e-49
1.34055e-49
1.34056e-49
1.34057e-49
1.34058e-49
1.34059e-49
1.34059e-49
1.3406e-49
1.3406e-49
1.34061e-49
1.34061e-49
1.34062e-49
1.34063e-49
1.34064e-49
1.34064e-49
1.34065e-49
1.34066e-49
1.34067e-49
1.34069e-49
1.3407e-49
1.34071e-49
1.34073e-49
1.34074e-49
1.34076e-49
1.34077e-49
1.34079e-49
1.34081e-49
1.34083e-49
1.34085e-49
1.34088e-49
1.3409e-49
1.34093e-49
1.34095e-49
1.34098e-49
1.34101e-49
1.34104e-49
1.34107e-49
1.34111e-49
1.34114e-49
1.34118e-49
1.34122e-49
1.34126e-49
1.3413e-49
1.34134e-49
1.34139e-49
1.34144e-49
1.34149e-49
1.34154e-49
1.34159e-49
1.34164e-49
1.3417e-49
1.34176e-49
1.34182e-49
1.34188e-49
1.34195e-49
1.34201e-49
1.34208e-49
1.34215e-49
1.34222e-49
1.3423e-49
1.34238e-49
1.34246e-49
1.34254e-49
1.34262e-49
1.3427e-49
1.34275e-49
1.34268e-49
1.34203e-49
1.33887e-49
1.33253e-49
1.33375e-49
1.33535e-49
1.33718e-49
1.33902e-49
1.34065e-49
1.34189e-49
1.34267e-49
1.34301e-49
1.34298e-49
1.34266e-49
1.34216e-49
1.34155e-49
1.34089e-49
1.34025e-49
1.33966e-49
1.33916e-49
1.33878e-49
1.33853e-49
1.33841e-49
1.33844e-49
1.33861e-49
1.3389e-49
1.33931e-49
1.33982e-49
1.3404e-49
1.34104e-49
1.34171e-49
1.34238e-49
1.34305e-49
1.34369e-49
1.3443e-49
1.34486e-49
1.34536e-49
1.34581e-49
1.34621e-49
1.34656e-49
1.34686e-49
1.34711e-49
1.34733e-49
1.34752e-49
1.34768e-49
1.34782e-49
1.34794e-49
1.34804e-49
1.34813e-49
1.3482e-49
1.34827e-49
1.34832e-49
1.34837e-49
1.3484e-49
1.34843e-49
1.34844e-49
1.34845e-49
1.34844e-49
1.34843e-49
1.3484e-49
1.34836e-49
1.34831e-49
1.34824e-49
1.34816e-49
1.34807e-49
1.34796e-49
1.34784e-49
1.3477e-49
1.34754e-49
1.34737e-49
1.34717e-49
1.34696e-49
1.34673e-49
1.34648e-49
1.34621e-49
1.34592e-49
1.3456e-49
1.34526e-49
1.3449e-49
1.34452e-49
1.34411e-49
1.34367e-49
1.34321e-49
1.34272e-49
1.34221e-49
1.34166e-49
1.3411e-49
1.34054e-49
1.34024e-49
1.34208e-49
1.36026e-49
1.50067e-49
2.54446e-49
1.01956e-48
6.56662e-48
4.63561e-47
3.28718e-46
2.3108e-45
1.60718e-44
1.1055e-43
7.51895e-43
5.05589e-42
3.36054e-41
2.20763e-40
1.43309e-39
9.19146e-39
5.8235e-38
3.64418e-37
2.25194e-36
1.37398e-35
8.27551e-35
4.91955e-34
2.88599e-33
1.67043e-32
9.53781e-32
5.37128e-31
2.98293e-30
1.63335e-29
8.81726e-29
4.69231e-28
2.46184e-27
1.27359e-26
6.49879e-26
3.2724e-25
1.62688e-24
7.98953e-24
3.8775e-23
1.86031e-22
8.82518e-22
4.19975e-21
1.95826e-20
8.99758e-20
4.09134e-19
1.84369e-18
8.24094e-18
3.65661e-17
1.6119e-16
7.06471e-16
3.08086e-15
1.33776e-14
5.78748e-14
2.49611e-13
1.07381e-12
4.60971e-12
1.97552e-11
8.45465e-11
3.61448e-10
1.54396e-09
6.59071e-09
2.81147e-08
1.19794e-07
5.08791e-07
2.13731e-06
8.64077e-06
3.08395e-05
7.85961e-05
0.000117049
0.000119359
7.63802e-05
3.47323e-05
1.38702e-05
6.45065e-06
4.5558e-06
4.58029e-06
5.17409e-06
5.79983e-06
6.286e-06
6.5963e-06
6.7507e-06
6.7847e-06
6.73251e-06
6.62193e-06
6.47372e-06
6.30255e-06
6.11881e-06
5.92949e-06
5.7393e-06
5.55139e-06
5.36779e-06
5.18979e-06
5.01816e-06
4.85332e-06
4.69544e-06
4.54454e-06
4.40052e-06
4.26319e-06
4.13233e-06
4.00772e-06
3.88911e-06
3.77632e-06
3.6724e-06
3.5747e-06
3.48098e-06
3.39105e-06
3.30472e-06
3.22181e-06
3.14216e-06
3.06562e-06
2.99202e-06
2.92123e-06
2.85312e-06
2.78755e-06
2.7244e-06
2.66356e-06
2.60491e-06
2.54836e-06
2.4938e-06
2.44114e-06
2.39029e-06
2.34117e-06
2.29371e-06
2.24782e-06
2.20343e-06
2.16049e-06
2.11892e-06
2.07867e-06
2.03968e-06
2.00189e-06
1.96525e-06
1.92973e-06
1.89526e-06
1.86181e-06
1.82934e-06
1.7978e-06
1.76716e-06
1.73738e-06
1.70844e-06
1.68029e-06
1.65291e-06
1.62626e-06
1.60033e-06
1.57508e-06
1.55048e-06
1.52652e-06
1.50317e-06
1.48041e-06
1.45822e-06
1.43657e-06
1.41545e-06
1.39484e-06
1.37472e-06
1.35507e-06
1.33588e-06
1.31713e-06
1.2988e-06
1.28088e-06
1.26335e-06
1.24619e-06
1.22938e-06
1.21291e-06
1.19674e-06
1.18083e-06
1.16515e-06
1.14967e-06
1.1345e-06
1.11978e-06
1.10537e-06
1.09124e-06
1.07737e-06
1.06375e-06
1.05036e-06
1.0372e-06
1.02424e-06
1.01149e-06
9.9893e-07
9.8655e-07
9.74338e-07
9.62284e-07
9.50376e-07
9.38602e-07
9.26951e-07
9.15412e-07
9.03973e-07
8.92623e-07
8.81351e-07
8.70147e-07
8.59e-07
8.47899e-07
8.36836e-07
8.25802e-07
8.14787e-07
8.03783e-07
7.92783e-07
7.81778e-07
7.70763e-07
7.59732e-07
7.4868e-07
7.37601e-07
7.26493e-07
7.15352e-07
7.04178e-07
6.92969e-07
6.81726e-07
6.7045e-07
6.59144e-07
6.47813e-07
6.3646e-07
6.25093e-07
6.13719e-07
6.02347e-07
5.90985e-07
5.79646e-07
5.68341e-07
5.57081e-07
5.45881e-07
5.34754e-07
5.23713e-07
5.12774e-07
5.01951e-07
4.91258e-07
4.8071e-07
4.70319e-07
4.601e-07
4.50066e-07
4.40228e-07
4.30596e-07
4.21183e-07
4.11995e-07
4.03042e-07
3.94329e-07
3.85864e-07
3.77649e-07
3.69689e-07
3.61985e-07
3.54538e-07
3.47348e-07
3.40415e-07
3.33735e-07
3.27307e-07
3.21126e-07
3.15187e-07
3.09487e-07
3.04018e-07
2.98775e-07
2.93752e-07
2.88941e-07
2.84335e-07
2.79927e-07
2.7571e-07
2.71675e-07
2.67817e-07
2.64127e-07
2.60597e-07
2.57222e-07
2.53994e-07
2.50905e-07
2.4795e-07
2.45123e-07
2.42417e-07
2.39827e-07
2.37347e-07
2.34972e-07
2.32698e-07
2.3052e-07
2.28433e-07
2.26434e-07
2.2452e-07
2.22686e-07
2.2093e-07
2.19249e-07
2.17641e-07
2.16102e-07
2.14631e-07
2.13227e-07
2.11886e-07
2.10609e-07
2.09393e-07
2.08238e-07
2.07144e-07
2.06111e-07
2.05142e-07
2.04237e-07
2.03403e-07
2.02647e-07
2.01979e-07
2.01416e-07
2.00983e-07
2.00721e-07
)
;

boundaryField
{
    boundary
    {
        type            empty;
    }
    inlet
    {
        type            fixedValue;
        value           uniform 0;
    }
    outlet
    {
        type            zeroGradient;
    }
}


// ************************************************************************* //
