/*--------------------------------*- C++ -*----------------------------------*\
  =========                 |
  \\      /  F ield         | OpenFOAM: The Open Source CFD Toolbox
   \\    /   O peration     | Website:  https://openfoam.org
    \\  /    A nd           | Version:  7
     \\/     M anipulation  |
\*---------------------------------------------------------------------------*/
FoamFile
{
    version     2.0;
    format      ascii;
    class       volScalarField;
    location    "0.00039";
    object      N2;
}
// * * * * * * * * * * * * * * * * * * * * * * * * * * * * * * * * * * * * * //

dimensions      [0 0 0 0 0 0 0];

internalField   nonuniform List<scalar> 
500
(
0.745219
0.745219
0.745219
0.745219
0.745219
0.745219
0.745219
0.745219
0.745219
0.745219
0.745219
0.745219
0.745219
0.745219
0.745219
0.745219
0.745219
0.745219
0.745219
0.745219
0.745219
0.745219
0.745219
0.745219
0.745219
0.745219
0.74522
0.74522
0.74522
0.74522
0.74522
0.74522
0.74522
0.74522
0.74522
0.74522
0.74522
0.74522
0.74522
0.74522
0.74522
0.74522
0.74522
0.74522
0.74522
0.74522
0.74522
0.74522
0.74522
0.74522
0.74522
0.74522
0.74522
0.74522
0.74522
0.74522
0.74522
0.74522
0.74522
0.74522
0.74522
0.74522
0.74522
0.74522
0.74522
0.74522
0.74522
0.74522
0.74522
0.74522
0.74522
0.74522
0.74522
0.74522
0.74522
0.74522
0.74522
0.74522
0.74522
0.74522
0.74522
0.74522
0.74522
0.74522
0.74522
0.74522
0.74522
0.74522
0.74522
0.74522
0.74522
0.74522
0.74522
0.74522
0.74522
0.74522
0.74522
0.74522
0.74522
0.74522
0.74522
0.74522
0.74522
0.74522
0.74522
0.74522
0.74522
0.74522
0.74522
0.74522
0.74522
0.74522
0.74522
0.74522
0.74522
0.74522
0.74522
0.74522
0.74522
0.74522
0.74522
0.74522
0.74522
0.74522
0.74522
0.74522
0.74522
0.74522
0.74522
0.74522
0.74522
0.74522
0.74522
0.74522
0.74522
0.74522
0.74522
0.74522
0.74522
0.74522
0.74522
0.74522
0.74522
0.74522
0.74522
0.74522
0.74522
0.74522
0.74522
0.74522
0.74522
0.74522
0.74522
0.74522
0.74522
0.74522
0.74522
0.74522
0.74522
0.74522
0.74522
0.74522
0.74522
0.74522
0.74522
0.74522
0.74522
0.74522
0.74522
0.74522
0.74522
0.74522
0.74522
0.74522
0.74522
0.74522
0.74522
0.74522
0.74522
0.74522
0.74522
0.74522
0.74522
0.74522
0.74522
0.74522
0.74522
0.74522
0.74522
0.74522
0.74522
0.74522
0.74522
0.74522
0.74522
0.74522
0.74522
0.74522
0.74522
0.74522
0.74522
0.74522
0.74522
0.74522
0.74522
0.74522
0.74522
0.74522
0.74522
0.74522
0.74522
0.74522
0.74522
0.74522
0.74522
0.74522
0.74522
0.74522
0.74522
0.74522
0.74522
0.74522
0.74522
0.74522
0.74522
0.74522
0.74522
0.74522
0.74522
0.74522
0.74522
0.74522
0.74522
0.74522
0.74522
0.74522
0.74522
0.74522
0.74522
0.74522
0.74522
0.74522
0.74522
0.74522
0.74522
0.74522
0.74522
0.74522
0.74522
0.74522
0.74522
0.74522
0.74522
0.74522
0.74522
0.74522
0.74522
0.74522
0.74522
0.74522
0.74522
0.74522
0.74522
0.74522
0.74522
0.74522
0.74522
0.74522
0.745221
0.745223
0.745226
0.745233
0.745248
0.745276
0.745331
0.745425
0.745552
0.745628
0.745497
0.745167
0.744697
0.744129
0.743691
0.743618
0.743877
0.744241
0.744602
0.744852
0.745027
0.745145
0.745223
0.745274
0.745306
0.745326
0.745337
0.745342
0.745344
0.745343
0.745341
0.745338
0.745335
0.745332
0.745329
0.745325
0.745322
0.745319
0.745316
0.745313
0.745311
0.745308
0.745306
0.745303
0.745301
0.745299
0.745297
0.745295
0.745293
0.745291
0.74529
0.745288
0.745286
0.745285
0.745283
0.745282
0.74528
0.745279
0.745278
0.745276
0.745275
0.745274
0.745273
0.745272
0.74527
0.745269
0.745268
0.745267
0.745266
0.745265
0.745264
0.745263
0.745262
0.745261
0.74526
0.745259
0.745258
0.745257
0.745256
0.745254
0.745253
0.745252
0.74525
0.745249
0.745247
0.745246
0.745244
0.745242
0.74524
0.745238
0.745236
0.745233
0.745231
0.745228
0.745225
0.745222
0.745219
0.745216
0.745213
0.745209
0.745205
0.745201
0.745197
0.745192
0.745187
0.745181
0.745175
0.745166
0.74516
0.745156
0.745153
0.74515
0.745147
0.745144
0.745142
0.74514
0.745139
0.745138
0.745137
0.745136
0.745136
0.745136
0.745137
0.745137
0.745139
0.74514
0.745142
0.745145
0.745148
0.745152
0.745157
0.745163
0.745169
0.745176
0.745184
0.745193
0.745203
0.745214
0.745226
0.745239
0.745253
0.745268
0.745284
0.7453
0.745318
0.745335
0.745354
0.745372
0.745392
0.745411
0.74543
0.745449
0.745468
0.745487
0.745505
0.745522
0.745538
0.745554
0.745568
0.745581
0.745593
0.745603
0.745611
0.745618
0.745623
0.745626
0.745627
0.745625
0.745622
0.745617
0.745609
0.7456
0.745588
0.745575
0.74556
0.745543
0.745524
0.745504
0.745483
0.74546
0.745436
0.745411
0.745386
0.74536
0.745334
0.745308
0.745281
0.745255
0.74523
0.745205
0.74518
0.745157
0.745134
0.745113
0.745093
0.745074
0.745056
0.745041
0.745026
0.745013
0.745002
0.744992
0.744984
0.744978
0.744973
0.744969
0.744967
0.744966
0.744966
0.744968
0.74497
0.744974
0.744979
0.744984
0.74499
0.744997
0.745004
0.745012
0.74502
0.745028
0.745037
0.745046
0.745054
0.745063
0.745071
0.745079
0.745087
0.745094
0.745101
0.745106
0.74511
0.745112
)
;

boundaryField
{
    boundary
    {
        type            empty;
    }
    inlet
    {
        type            fixedValue;
        value           uniform 0.74522;
    }
    outlet
    {
        type            zeroGradient;
    }
}


// ************************************************************************* //
