/*--------------------------------*- C++ -*----------------------------------*\
  =========                 |
  \\      /  F ield         | OpenFOAM: The Open Source CFD Toolbox
   \\    /   O peration     | Website:  https://openfoam.org
    \\  /    A nd           | Version:  7
     \\/     M anipulation  |
\*---------------------------------------------------------------------------*/
FoamFile
{
    version     2.0;
    format      ascii;
    class       volScalarField;
    location    "0.00039";
    object      O;
}
// * * * * * * * * * * * * * * * * * * * * * * * * * * * * * * * * * * * * * //

dimensions      [0 0 0 0 0 0 0];

internalField   nonuniform List<scalar> 
500
(
1.58102e-47
3.77627e-47
5.9894e-47
8.21087e-47
1.04406e-46
1.2681e-46
1.49361e-46
1.72109e-46
1.9512e-46
2.18472e-46
2.42261e-46
2.66592e-46
2.91583e-46
3.17359e-46
3.44041e-46
3.71743e-46
4.0056e-46
4.30556e-46
4.61757e-46
4.94134e-46
5.27604e-46
5.62016e-46
5.97156e-46
6.32749e-46
6.68466e-46
7.03936e-46
7.38767e-46
7.72559e-46
8.04929e-46
8.35527e-46
8.64057e-46
8.90287e-46
9.1406e-46
9.35294e-46
9.53985e-46
9.70197e-46
9.84054e-46
9.95724e-46
1.00541e-45
1.01333e-45
1.01972e-45
1.0248e-45
1.02878e-45
1.03186e-45
1.0342e-45
1.03597e-45
1.03728e-45
1.03823e-45
1.03893e-45
1.03942e-45
1.03977e-45
1.04001e-45
1.04018e-45
1.0403e-45
1.04037e-45
1.04042e-45
1.04046e-45
1.04048e-45
1.0405e-45
1.04051e-45
1.04051e-45
1.04052e-45
1.04053e-45
1.04053e-45
1.04053e-45
1.04054e-45
1.04054e-45
1.04055e-45
1.04055e-45
1.04056e-45
1.04056e-45
1.04057e-45
1.04058e-45
1.04058e-45
1.04059e-45
1.0406e-45
1.04061e-45
1.04062e-45
1.04063e-45
1.04064e-45
1.04065e-45
1.04067e-45
1.04068e-45
1.04069e-45
1.04071e-45
1.04073e-45
1.04074e-45
1.04076e-45
1.04078e-45
1.0408e-45
1.04082e-45
1.04084e-45
1.04086e-45
1.04089e-45
1.04091e-45
1.04094e-45
1.04097e-45
1.04099e-45
1.04102e-45
1.04105e-45
1.04109e-45
1.04112e-45
1.04115e-45
1.04119e-45
1.04123e-45
1.04127e-45
1.04131e-45
1.04135e-45
1.04139e-45
1.04143e-45
1.04148e-45
1.04153e-45
1.04157e-45
1.04162e-45
1.04167e-45
1.04173e-45
1.04178e-45
1.04184e-45
1.04189e-45
1.04195e-45
1.04201e-45
1.04207e-45
1.04215e-45
1.04229e-45
1.0427e-45
1.04343e-45
1.0431e-45
1.04281e-45
1.04261e-45
1.04251e-45
1.04249e-45
1.04251e-45
1.04256e-45
1.04261e-45
1.04266e-45
1.0427e-45
1.04274e-45
1.04276e-45
1.04278e-45
1.04279e-45
1.0428e-45
1.0428e-45
1.0428e-45
1.0428e-45
1.04282e-45
1.04284e-45
1.04287e-45
1.04293e-45
1.043e-45
1.04309e-45
1.0432e-45
1.04333e-45
1.04348e-45
1.04364e-45
1.04381e-45
1.04398e-45
1.04416e-45
1.04434e-45
1.04451e-45
1.04467e-45
1.04483e-45
1.04497e-45
1.04511e-45
1.04523e-45
1.04534e-45
1.04544e-45
1.04553e-45
1.04562e-45
1.04569e-45
1.04576e-45
1.04581e-45
1.04586e-45
1.04591e-45
1.04594e-45
1.04597e-45
1.046e-45
1.04601e-45
1.04602e-45
1.04602e-45
1.04602e-45
1.046e-45
1.04598e-45
1.04595e-45
1.04591e-45
1.04587e-45
1.04581e-45
1.04574e-45
1.04566e-45
1.04557e-45
1.04547e-45
1.04536e-45
1.04523e-45
1.04509e-45
1.04494e-45
1.04477e-45
1.04459e-45
1.0444e-45
1.04419e-45
1.04396e-45
1.04372e-45
1.04347e-45
1.04319e-45
1.04292e-45
1.04269e-45
1.04278e-45
1.04462e-45
1.05568e-45
1.11413e-45
1.41408e-45
2.9329e-45
1.05456e-44
4.83372e-44
2.34156e-43
1.13904e-42
5.50282e-42
2.63409e-41
1.24862e-40
5.86012e-40
2.72272e-39
1.25221e-38
5.70014e-38
2.56795e-37
1.14483e-36
5.05015e-36
2.20415e-35
9.51728e-35
4.0652e-34
1.71757e-33
7.17754e-33
2.96646e-32
1.21248e-31
4.90068e-31
1.9587e-30
7.74089e-30
3.02493e-29
1.16879e-28
4.46534e-28
1.68686e-27
6.30121e-27
2.32766e-26
8.50352e-26
3.07266e-25
1.09832e-24
3.88445e-24
1.35964e-23
4.7113e-23
1.61672e-22
5.49616e-22
1.85158e-21
6.18278e-21
2.04675e-20
6.69437e-20
2.17666e-19
7.03373e-19
2.25835e-18
7.20729e-18
2.28742e-17
7.22342e-17
2.27088e-16
7.11081e-16
2.21889e-15
6.9031e-15
2.14208e-14
6.63268e-14
2.05004e-13
6.32711e-13
1.95049e-12
6.00746e-12
1.84902e-11
5.68818e-11
1.74926e-10
5.37874e-10
1.65477e-09
5.10742e-09
1.59934e-08
5.30035e-08
2.09463e-07
1.15455e-06
8.04482e-06
4.66843e-05
0.000203956
0.000699364
0.0017036
0.00304714
0.00435413
0.00535425
0.0059963
0.00633099
0.00645576
0.00644633
0.0063567
0.00622249
0.006066
0.00590071
0.00573447
0.00557166
0.00541458
0.00526429
0.00512115
0.00498514
0.00485602
0.00473345
0.00461705
0.00450643
0.00440122
0.00430105
0.00420559
0.00411452
0.00402757
0.00394447
0.003865
0.00378897
0.00371843
0.00365185
0.00358757
0.00352546
0.00346539
0.00340727
0.00335099
0.00329646
0.00324361
0.00319234
0.0031426
0.00309431
0.00304741
0.00300183
0.00295753
0.00291444
0.00287251
0.0028317
0.00279197
0.00275326
0.00271554
0.00267877
0.00264292
0.00260795
0.00257382
0.00254051
0.00250799
0.00247622
0.00244519
0.00241486
0.00238522
0.00235623
0.00232788
0.00230015
0.00227301
0.00224645
0.00222044
0.00219497
0.00217003
0.00214559
0.00212163
0.00209815
0.00207513
0.00205254
0.00203039
0.00200865
0.0019873
0.00196634
0.00194576
0.00192553
0.00190565
0.0018861
0.00186687
0.00184794
0.00182931
0.00181095
0.00179286
0.00177501
0.00175739
0.00173996
0.0017227
0.00170556
0.00168851
0.00167152
0.00165472
0.00163819
0.00162186
0.00160568
0.00158963
0.00157369
0.00155784
0.00154208
0.00152639
0.00151076
0.00149517
0.00147963
0.00146411
0.00144861
0.00143312
0.00141763
0.00140212
0.0013866
0.00137105
0.00135548
0.00133986
0.00132421
0.00130852
0.00129278
0.001277
0.00126118
0.00124532
0.00122942
0.0012135
0.00119756
0.0011816
0.00116564
0.00114969
0.00113375
0.00111785
0.001102
0.0010862
0.00107047
0.00105484
0.00103931
0.0010239
0.00100862
0.000993497
0.000978539
0.000963762
0.00094918
0.000934807
0.000920656
0.000906738
0.000893063
0.000879643
0.000866484
0.000853595
0.000840981
0.000828647
0.000816596
0.000804831
0.000793351
0.000782155
0.000771243
0.000760612
0.000750255
0.00074017
0.00073035
0.000720787
0.000711474
0.000702403
0.000693566
0.000684953
0.000676554
0.000668361
0.000660364
0.000652553
0.000644919
0.000637453
0.000630146
0.00062299
0.000615977
0.0006091
0.000602351
0.000595726
0.000589217
0.000582821
0.000576534
0.000570351
0.000564271
0.000558291
0.000552409
0.000546626
0.00054094
0.000535352
0.000529862
0.000524472
0.000519183
0.000513998
0.000508917
0.000503944
0.00049908
0.000494328
0.000489691
0.000485171
0.000480771
0.000476492
0.000472338
0.000468309
0.000464408
0.000460637
0.000456997
0.000453488
0.000450113
0.000446872
0.000443767
0.000440798
0.000437967
0.000435276
0.00043273
0.000430333
0.000428093
0.000426024
0.000424144
0.00042248
0.000421075
0.000419991
0.000419339
)
;

boundaryField
{
    boundary
    {
        type            empty;
    }
    inlet
    {
        type            fixedValue;
        value           uniform 0;
    }
    outlet
    {
        type            zeroGradient;
    }
}


// ************************************************************************* //
