/*--------------------------------*- C++ -*----------------------------------*\
  =========                 |
  \\      /  F ield         | OpenFOAM: The Open Source CFD Toolbox
   \\    /   O peration     | Website:  https://openfoam.org
    \\  /    A nd           | Version:  7
     \\/     M anipulation  |
\*---------------------------------------------------------------------------*/
FoamFile
{
    version     2.0;
    format      ascii;
    class       volScalarField;
    location    "0.00039";
    object      O2;
}
// * * * * * * * * * * * * * * * * * * * * * * * * * * * * * * * * * * * * * //

dimensions      [0 0 0 0 0 0 0];

internalField   nonuniform List<scalar> 
500
(
0.226269
0.226269
0.226269
0.226269
0.226269
0.226269
0.226269
0.226269
0.226269
0.226269
0.226269
0.226269
0.226269
0.226269
0.226269
0.226269
0.226269
0.226269
0.226269
0.226269
0.226269
0.226269
0.226269
0.226269
0.226269
0.226269
0.226269
0.226269
0.226269
0.226269
0.226269
0.226269
0.226269
0.226269
0.226269
0.226269
0.226269
0.226269
0.226269
0.226269
0.226269
0.226269
0.226269
0.226269
0.226269
0.226269
0.226269
0.226269
0.226269
0.226269
0.226269
0.226269
0.226269
0.226269
0.226269
0.226269
0.226269
0.226269
0.226269
0.226269
0.226269
0.226269
0.226269
0.226269
0.226269
0.226269
0.226269
0.226269
0.226269
0.226269
0.226269
0.226269
0.226269
0.226269
0.226269
0.226269
0.226269
0.226269
0.226269
0.226269
0.226269
0.226269
0.226269
0.226269
0.226269
0.226269
0.226269
0.226269
0.226269
0.226269
0.226269
0.226269
0.226269
0.226269
0.226269
0.226269
0.226269
0.226269
0.226269
0.226269
0.226269
0.226269
0.226269
0.226269
0.226269
0.226269
0.226269
0.226269
0.226269
0.226269
0.226269
0.226269
0.226269
0.226269
0.226269
0.226269
0.226269
0.226269
0.226269
0.226269
0.226269
0.226269
0.226269
0.226269
0.226269
0.226269
0.226269
0.226269
0.226269
0.226269
0.226269
0.226269
0.226269
0.226269
0.226269
0.226269
0.226269
0.226269
0.226269
0.226269
0.226269
0.226269
0.226269
0.226269
0.226269
0.226269
0.226269
0.226269
0.226269
0.226269
0.226269
0.226269
0.226269
0.226269
0.226269
0.226269
0.226269
0.226269
0.226269
0.226269
0.226269
0.226269
0.226269
0.226269
0.226269
0.226269
0.226269
0.226269
0.226269
0.226269
0.226269
0.226269
0.226269
0.226269
0.226269
0.226269
0.226269
0.226269
0.226269
0.226269
0.226269
0.226269
0.226269
0.226269
0.226269
0.226269
0.226269
0.226269
0.226269
0.226269
0.226269
0.226269
0.226269
0.226269
0.226269
0.226269
0.226269
0.226269
0.226269
0.226269
0.226269
0.226269
0.226269
0.226269
0.226269
0.226269
0.226269
0.226269
0.226269
0.226269
0.226269
0.226269
0.226269
0.226269
0.226269
0.226269
0.226269
0.226269
0.226269
0.226269
0.226269
0.226269
0.226269
0.226269
0.226269
0.226269
0.226269
0.226269
0.226269
0.226269
0.226269
0.226269
0.226269
0.226269
0.226269
0.226269
0.226269
0.226269
0.226269
0.226269
0.226269
0.226269
0.226269
0.226269
0.226269
0.226269
0.226269
0.226269
0.226269
0.226269
0.226269
0.226269
0.226269
0.226269
0.226269
0.226269
0.226269
0.226269
0.226269
0.226269
0.226269
0.226269
0.226269
0.226269
0.226269
0.226269
0.226269
0.226269
0.226269
0.22627
0.226271
0.226273
0.226276
0.226278
0.226264
0.226167
0.225732
0.224216
0.220068
0.211395
0.198715
0.182692
0.162137
0.137198
0.111264
0.0886449
0.070984
0.0586853
0.0502868
0.0445933
0.0406829
0.0379238
0.0359057
0.0343688
0.0331498
0.0321457
0.0312913
0.0305444
0.0298777
0.0292727
0.0287169
0.0282015
0.0277203
0.0272684
0.0268423
0.0264391
0.0260566
0.0256927
0.025346
0.0250151
0.0246989
0.0243968
0.0241168
0.0238513
0.0235945
0.0233458
0.0231049
0.0228713
0.0226447
0.0224245
0.0222106
0.0220025
0.0218
0.0216029
0.0214108
0.0212236
0.0210409
0.0208627
0.0206886
0.0205186
0.0203525
0.02019
0.0200311
0.0198756
0.0197234
0.0195743
0.0194282
0.019285
0.0191446
0.0190069
0.0188718
0.0187392
0.018609
0.0184811
0.0183555
0.018232
0.0181105
0.0179911
0.0178736
0.0177579
0.017644
0.0175319
0.0174213
0.0173123
0.0172048
0.0170988
0.016994
0.0168906
0.0167883
0.0166872
0.0165871
0.0164879
0.0163897
0.0162922
0.0161953
0.0160991
0.0160033
0.0159079
0.0158126
0.0157174
0.015622
0.0155261
0.0154293
0.0153311
0.0152307
0.0151264
0.0150224
0.0149245
0.0148261
0.014727
0.0146272
0.0145265
0.0144247
0.0143219
0.0142178
0.0141124
0.0140054
0.0138969
0.0137868
0.0136748
0.013561
0.0134452
0.0133274
0.0132075
0.0130855
0.0129613
0.0128349
0.0127064
0.0125756
0.0124427
0.0123077
0.0121706
0.0120316
0.0118908
0.0117483
0.0116042
0.0114587
0.011312
0.0111642
0.0110157
0.0108665
0.010717
0.0105674
0.0104179
0.0102687
0.0101203
0.00997267
0.00982626
0.00968128
0.00953798
0.00939661
0.00925742
0.00912065
0.00898651
0.00885523
0.008727
0.008602
0.00848042
0.00836239
0.00824808
0.00813758
0.00803102
0.00792847
0.00783
0.00773568
0.00764553
0.00755959
0.00747784
0.0074003
0.00732693
0.0072577
0.00719256
0.00713147
0.00707434
0.00702112
0.00697171
0.00692602
0.00688397
0.00684544
0.00681034
0.00677856
0.00674999
0.00672452
0.00670203
0.00668241
0.00666555
0.00665133
0.00663964
0.00663037
0.0066234
0.00661863
0.00661595
0.00661524
0.00661641
0.00661934
0.00662394
0.0066301
0.00663771
0.00664669
0.00665693
0.00666832
0.00668078
0.00669421
0.0067085
0.00672357
0.00673931
0.00675565
0.00677247
0.0067897
0.00680725
0.00682502
0.00684294
0.00686091
0.00687888
0.00689675
0.00691446
0.00693194
0.00694913
0.00696596
0.00698237
0.00699832
0.00701375
0.00702859
0.0070428
0.00705629
0.00706896
0.00708067
0.00709114
0.00709986
0.00710566
)
;

boundaryField
{
    boundary
    {
        type            empty;
    }
    inlet
    {
        type            fixedValue;
        value           uniform 0.226269;
    }
    outlet
    {
        type            zeroGradient;
    }
}


// ************************************************************************* //
