/*--------------------------------*- C++ -*----------------------------------*\
  =========                 |
  \\      /  F ield         | OpenFOAM: The Open Source CFD Toolbox
   \\    /   O peration     | Website:  https://openfoam.org
    \\  /    A nd           | Version:  7
     \\/     M anipulation  |
\*---------------------------------------------------------------------------*/
FoamFile
{
    version     2.0;
    format      ascii;
    class       surfaceScalarField;
    location    "0.00039";
    object      phi;
}
// * * * * * * * * * * * * * * * * * * * * * * * * * * * * * * * * * * * * * //

dimensions      [1 0 -1 0 0 0 0];

internalField   nonuniform List<scalar> 
499
(
6.93279e-06
6.93245e-06
6.93211e-06
6.93176e-06
6.9314e-06
6.93103e-06
6.93064e-06
6.93023e-06
6.9298e-06
6.92932e-06
6.92881e-06
6.92823e-06
6.92759e-06
6.92687e-06
6.92605e-06
6.92513e-06
6.9241e-06
6.92293e-06
6.92164e-06
6.92021e-06
6.91866e-06
6.91698e-06
6.91519e-06
6.91332e-06
6.91138e-06
6.9094e-06
6.90741e-06
6.90543e-06
6.90349e-06
6.90161e-06
6.89983e-06
6.89815e-06
6.89659e-06
6.89516e-06
6.89386e-06
6.89269e-06
6.89165e-06
6.89073e-06
6.88991e-06
6.8892e-06
6.88857e-06
6.88802e-06
6.88753e-06
6.88709e-06
6.8867e-06
6.88634e-06
6.88601e-06
6.8857e-06
6.88541e-06
6.88512e-06
6.88485e-06
6.88459e-06
6.88433e-06
6.88407e-06
6.88381e-06
6.88356e-06
6.88331e-06
6.88306e-06
6.88281e-06
6.88256e-06
6.88231e-06
6.88206e-06
6.88181e-06
6.88156e-06
6.88131e-06
6.88106e-06
6.88081e-06
6.88056e-06
6.88031e-06
6.88006e-06
6.8798e-06
6.87955e-06
6.8793e-06
6.87905e-06
6.8788e-06
6.87855e-06
6.8783e-06
6.87804e-06
6.87779e-06
6.87754e-06
6.87729e-06
6.87703e-06
6.87678e-06
6.87653e-06
6.87627e-06
6.87602e-06
6.87577e-06
6.87551e-06
6.87526e-06
6.875e-06
6.87475e-06
6.87449e-06
6.87424e-06
6.87398e-06
6.87372e-06
6.87347e-06
6.87321e-06
6.87295e-06
6.87269e-06
6.87244e-06
6.87218e-06
6.87192e-06
6.87166e-06
6.8714e-06
6.87114e-06
6.87088e-06
6.87061e-06
6.87035e-06
6.87009e-06
6.86983e-06
6.86956e-06
6.8693e-06
6.86903e-06
6.86877e-06
6.8685e-06
6.86823e-06
6.86796e-06
6.86769e-06
6.86743e-06
6.86715e-06
6.86688e-06
6.86661e-06
6.86634e-06
6.86607e-06
6.86579e-06
6.86552e-06
6.86524e-06
6.86497e-06
6.86469e-06
6.86441e-06
6.86413e-06
6.86385e-06
6.86357e-06
6.86328e-06
6.863e-06
6.86271e-06
6.86243e-06
6.86214e-06
6.86185e-06
6.86156e-06
6.86127e-06
6.86098e-06
6.86069e-06
6.86039e-06
6.8601e-06
6.8598e-06
6.8595e-06
6.8592e-06
6.8589e-06
6.8586e-06
6.85829e-06
6.85799e-06
6.85768e-06
6.85738e-06
6.85707e-06
6.85676e-06
6.85645e-06
6.85614e-06
6.85582e-06
6.85551e-06
6.85519e-06
6.85488e-06
6.85456e-06
6.85424e-06
6.85393e-06
6.85361e-06
6.85329e-06
6.85297e-06
6.85265e-06
6.85233e-06
6.85201e-06
6.85169e-06
6.85136e-06
6.85104e-06
6.85072e-06
6.8504e-06
6.85008e-06
6.84976e-06
6.84944e-06
6.84912e-06
6.8488e-06
6.84849e-06
6.84817e-06
6.84785e-06
6.84754e-06
6.84723e-06
6.84692e-06
6.84661e-06
6.8463e-06
6.84599e-06
6.84569e-06
6.84539e-06
6.84509e-06
6.84479e-06
6.8445e-06
6.84421e-06
6.84392e-06
6.84364e-06
6.84336e-06
6.84308e-06
6.84281e-06
6.84253e-06
6.84227e-06
6.842e-06
6.84174e-06
6.84149e-06
6.84123e-06
6.84098e-06
6.84074e-06
6.8405e-06
6.84026e-06
6.84003e-06
6.8398e-06
6.83957e-06
6.83935e-06
6.83913e-06
6.83891e-06
6.8387e-06
6.83849e-06
6.83828e-06
6.83807e-06
6.83787e-06
6.83767e-06
6.83747e-06
6.83728e-06
6.83708e-06
6.83689e-06
6.8367e-06
6.83651e-06
6.83632e-06
6.83613e-06
6.83594e-06
6.83574e-06
6.83555e-06
6.83536e-06
6.83517e-06
6.83497e-06
6.83478e-06
6.83458e-06
6.83438e-06
6.83418e-06
6.83397e-06
6.83377e-06
6.83356e-06
6.83335e-06
6.83313e-06
6.83291e-06
6.8327e-06
6.83247e-06
6.83225e-06
6.83202e-06
6.8318e-06
6.83157e-06
6.83134e-06
6.8311e-06
6.83086e-06
6.83062e-06
6.83039e-06
6.83015e-06
6.8299e-06
6.82966e-06
6.82942e-06
6.82918e-06
6.82894e-06
6.8287e-06
6.82846e-06
6.82823e-06
6.82799e-06
6.82776e-06
6.82754e-06
6.82735e-06
6.82727e-06
6.8275e-06
6.82866e-06
6.83255e-06
6.84407e-06
6.87412e-06
6.9339e-06
7.00926e-06
7.07086e-06
7.11183e-06
7.13917e-06
7.15872e-06
7.17308e-06
7.18257e-06
7.18946e-06
7.19621e-06
7.2019e-06
7.20589e-06
7.20848e-06
7.20996e-06
7.21067e-06
7.21093e-06
7.211e-06
7.21104e-06
7.21113e-06
7.21129e-06
7.21154e-06
7.21184e-06
7.21217e-06
7.21253e-06
7.21288e-06
7.21323e-06
7.21356e-06
7.21387e-06
7.21416e-06
7.21443e-06
7.21468e-06
7.21492e-06
7.21513e-06
7.21533e-06
7.21552e-06
7.21569e-06
7.21584e-06
7.21598e-06
7.21612e-06
7.21625e-06
7.21637e-06
7.21648e-06
7.21659e-06
7.21669e-06
7.21678e-06
7.21687e-06
7.21695e-06
7.21703e-06
7.21711e-06
7.21718e-06
7.21724e-06
7.2173e-06
7.21736e-06
7.21741e-06
7.21746e-06
7.21751e-06
7.21755e-06
7.21759e-06
7.21763e-06
7.21766e-06
7.21769e-06
7.21772e-06
7.21774e-06
7.21776e-06
7.21777e-06
7.21778e-06
7.21779e-06
7.2178e-06
7.2178e-06
7.2178e-06
7.21779e-06
7.21778e-06
7.21776e-06
7.21775e-06
7.21772e-06
7.2177e-06
7.21766e-06
7.21763e-06
7.21759e-06
7.21755e-06
7.2175e-06
7.21745e-06
7.2174e-06
7.21734e-06
7.21729e-06
7.21723e-06
7.21717e-06
7.21711e-06
7.21705e-06
7.21699e-06
7.21693e-06
7.21688e-06
7.21683e-06
7.21679e-06
7.21675e-06
7.21672e-06
7.21669e-06
7.21667e-06
7.21663e-06
7.21661e-06
7.21662e-06
7.21666e-06
7.21671e-06
7.21679e-06
7.21691e-06
7.21706e-06
7.21724e-06
7.21746e-06
7.21771e-06
7.218e-06
7.21833e-06
7.2187e-06
7.21911e-06
7.21954e-06
7.22001e-06
7.22052e-06
7.22104e-06
7.2216e-06
7.22217e-06
7.22275e-06
7.22335e-06
7.22395e-06
7.22454e-06
7.22513e-06
7.22569e-06
7.22623e-06
7.22672e-06
7.22717e-06
7.22755e-06
7.22785e-06
7.22806e-06
7.22816e-06
7.22814e-06
7.22797e-06
7.22765e-06
7.22714e-06
7.22644e-06
7.22552e-06
7.22436e-06
7.22295e-06
7.22126e-06
7.21928e-06
7.21699e-06
7.21438e-06
7.21143e-06
7.20812e-06
7.20446e-06
7.20042e-06
7.19601e-06
7.19122e-06
7.18605e-06
7.18051e-06
7.17459e-06
7.16831e-06
7.16168e-06
7.15472e-06
7.14744e-06
7.13986e-06
7.13201e-06
7.12392e-06
7.11561e-06
7.10712e-06
7.09848e-06
7.08973e-06
7.08089e-06
7.07202e-06
7.06314e-06
7.0543e-06
7.04553e-06
7.03687e-06
7.02835e-06
7.02002e-06
7.0119e-06
7.00403e-06
6.99643e-06
6.98913e-06
6.98216e-06
6.97554e-06
6.96929e-06
6.96342e-06
6.95795e-06
6.95288e-06
6.94822e-06
6.94398e-06
6.94015e-06
6.93673e-06
6.93372e-06
6.93112e-06
6.9289e-06
6.92706e-06
6.92558e-06
6.92445e-06
6.92364e-06
6.92315e-06
6.92294e-06
6.92301e-06
6.92332e-06
6.92386e-06
6.9246e-06
6.92552e-06
6.9266e-06
6.92782e-06
6.92916e-06
6.93059e-06
6.93211e-06
6.93368e-06
6.9353e-06
6.93695e-06
6.93862e-06
6.94029e-06
6.94194e-06
6.94358e-06
6.94519e-06
6.94676e-06
6.94828e-06
6.94976e-06
6.95118e-06
6.95255e-06
6.95386e-06
6.95512e-06
6.95634e-06
6.95751e-06
)
;

boundaryField
{
    boundary
    {
        type            empty;
        value           nonuniform 0();
    }
    inlet
    {
        type            calculated;
        value           uniform -6.93314e-06;
    }
    outlet
    {
        type            calculated;
        value           uniform 6.95866e-06;
    }
}


// ************************************************************************* //
