/*--------------------------------*- C++ -*----------------------------------*\
  =========                 |
  \\      /  F ield         | OpenFOAM: The Open Source CFD Toolbox
   \\    /   O peration     | Website:  https://openfoam.org
    \\  /    A nd           | Version:  7
     \\/     M anipulation  |
\*---------------------------------------------------------------------------*/
FoamFile
{
    version     2.0;
    format      ascii;
    class       volScalarField;
    location    "0.00039";
    object      Qdot;
}
// * * * * * * * * * * * * * * * * * * * * * * * * * * * * * * * * * * * * * //

dimensions      [1 -1 -3 0 0 0 0];

internalField   nonuniform List<scalar> 
500
(
-2.45494e-27
-1.86725e-27
-1.74229e-27
-1.71722e-27
-1.7139e-27
-1.71557e-27
-1.71869e-27
-1.72263e-27
-1.72737e-27
-1.73308e-27
-1.73999e-27
-1.74839e-27
-1.75855e-27
-1.77082e-27
-1.78553e-27
-1.80299e-27
-1.82351e-27
-1.84735e-27
-1.87469e-27
-1.90566e-27
-1.94024e-27
-1.97832e-27
-2.01966e-27
-2.06387e-27
-2.11043e-27
-2.15871e-27
-2.20799e-27
-2.25748e-27
-2.30636e-27
-2.35384e-27
-2.39919e-27
-2.44176e-27
-2.48106e-27
-2.51673e-27
-2.54855e-27
-2.57647e-27
-2.60057e-27
-2.62104e-27
-2.63814e-27
-2.65221e-27
-2.66362e-27
-2.67273e-27
-2.67989e-27
-2.68544e-27
-2.68969e-27
-2.6929e-27
-2.69529e-27
-2.69704e-27
-2.69832e-27
-2.69923e-27
-2.69988e-27
-2.70033e-27
-2.70064e-27
-2.70086e-27
-2.70101e-27
-2.70111e-27
-2.70118e-27
-2.70123e-27
-2.70127e-27
-2.7013e-27
-2.70132e-27
-2.70133e-27
-2.70135e-27
-2.70137e-27
-2.70138e-27
-2.7014e-27
-2.70141e-27
-2.70143e-27
-2.70145e-27
-2.70147e-27
-2.70149e-27
-2.70151e-27
-2.70153e-27
-2.70155e-27
-2.70158e-27
-2.7016e-27
-2.70163e-27
-2.70166e-27
-2.70169e-27
-2.70172e-27
-2.70176e-27
-2.70179e-27
-2.70183e-27
-2.70187e-27
-2.7019e-27
-2.70195e-27
-2.70199e-27
-2.70204e-27
-2.70208e-27
-2.70213e-27
-2.70219e-27
-2.70224e-27
-2.7023e-27
-2.70235e-27
-2.70241e-27
-2.70248e-27
-2.70254e-27
-2.70261e-27
-2.70268e-27
-2.70275e-27
-2.70283e-27
-2.70291e-27
-2.70299e-27
-2.70307e-27
-2.70316e-27
-2.70325e-27
-2.70334e-27
-2.70344e-27
-2.70354e-27
-2.70364e-27
-2.70374e-27
-2.70385e-27
-2.70396e-27
-2.70407e-27
-2.70419e-27
-2.70431e-27
-2.70443e-27
-2.70456e-27
-2.70469e-27
-2.70482e-27
-2.70495e-27
-2.70509e-27
-2.70523e-27
-2.70537e-27
-2.7055e-27
-2.70564e-27
-2.70581e-27
-2.70597e-27
-2.70613e-27
-2.70629e-27
-2.70645e-27
-2.70661e-27
-2.70677e-27
-2.70694e-27
-2.7071e-27
-2.70727e-27
-2.70743e-27
-2.7076e-27
-2.70777e-27
-2.70793e-27
-2.7081e-27
-2.70827e-27
-2.70844e-27
-2.70862e-27
-2.70879e-27
-2.70897e-27
-2.70916e-27
-2.70935e-27
-2.70954e-27
-2.70974e-27
-2.70994e-27
-2.71015e-27
-2.71036e-27
-2.71057e-27
-2.71078e-27
-2.71099e-27
-2.7112e-27
-2.71141e-27
-2.71162e-27
-2.71182e-27
-2.71201e-27
-2.7122e-27
-2.71238e-27
-2.71256e-27
-2.71273e-27
-2.71289e-27
-2.71305e-27
-2.71319e-27
-2.71333e-27
-2.71346e-27
-2.71358e-27
-2.71369e-27
-2.71379e-27
-2.71388e-27
-2.71396e-27
-2.71402e-27
-2.71408e-27
-2.71412e-27
-2.71414e-27
-2.71415e-27
-2.71415e-27
-2.71413e-27
-2.71409e-27
-2.71404e-27
-2.71397e-27
-2.71387e-27
-2.71376e-27
-2.71363e-27
-2.71347e-27
-2.71329e-27
-2.71309e-27
-2.71286e-27
-2.71261e-27
-2.71233e-27
-2.71202e-27
-2.71168e-27
-2.71131e-27
-2.71092e-27
-2.71049e-27
-2.71003e-27
-2.70953e-27
-2.70901e-27
-2.70844e-27
-2.70784e-27
-2.70721e-27
-2.70653e-27
-2.70582e-27
-2.70507e-27
-2.70427e-27
-2.70344e-27
-2.70257e-27
-2.70165e-27
-2.70069e-27
-2.69968e-27
-2.69862e-27
-2.69749e-27
-2.69614e-27
-2.69399e-27
-2.68829e-27
-2.66652e-27
-2.57228e-27
-2.15391e-27
-3.00608e-28
7.83874e-27
4.32223e-26
1.95415e-25
8.43007e-25
3.5687e-24
1.49159e-23
6.16368e-23
2.51885e-22
1.018e-21
4.06891e-21
1.60836e-20
6.2874e-20
2.4308e-19
9.29497e-19
3.51565e-18
1.31549e-17
4.87054e-17
1.78485e-16
6.47625e-16
2.32794e-15
8.29575e-15
2.93351e-14
1.03067e-13
3.60393e-13
1.25682e-12
4.38294e-12
1.53347e-11
5.4048e-11
1.92036e-10
6.95921e-10
2.58126e-09
9.83242e-09
3.85467e-08
1.55548e-07
6.44875e-07
2.73753e-06
1.1851e-05
5.21089e-05
0.000231895
0.00104151
0.00471175
0.0214465
0.0981903
0.452492
2.10259
9.88251
48.4879
260
1649.39
12052.9
95544.2
853921
8.11375e+06
7.6304e+07
6.24941e+08
3.3106e+09
8.92226e+09
1.29396e+10
1.38733e+10
1.39403e+10
1.38891e+10
1.32248e+10
1.1708e+10
9.79525e+09
8.02559e+09
6.58724e+09
5.47735e+09
4.63216e+09
3.98397e+09
3.47884e+09
3.07763e+09
2.75283e+09
2.48507e+09
2.26084e+09
2.07039e+09
1.90667e+09
1.76447e+09
1.63984e+09
1.52977e+09
1.43189e+09
1.34433e+09
1.26559e+09
1.19445e+09
1.12989e+09
1.07108e+09
1.01733e+09
9.68037e+08
9.22731e+08
8.81059e+08
8.43647e+08
8.09479e+08
7.77416e+08
7.47369e+08
7.19156e+08
6.9261e+08
6.67602e+08
6.43995e+08
6.21688e+08
6.00583e+08
5.80588e+08
5.61625e+08
5.43619e+08
5.26506e+08
5.10223e+08
4.94716e+08
4.79933e+08
4.65828e+08
4.5236e+08
4.39486e+08
4.27173e+08
4.15387e+08
4.04096e+08
3.93272e+08
3.82889e+08
3.72922e+08
3.63348e+08
3.54147e+08
3.45297e+08
3.36782e+08
3.28583e+08
3.20684e+08
3.13071e+08
3.0573e+08
2.98647e+08
2.91809e+08
2.85207e+08
2.78828e+08
2.72662e+08
2.66699e+08
2.60931e+08
2.55349e+08
2.49944e+08
2.4471e+08
2.39638e+08
2.34722e+08
2.29956e+08
2.25334e+08
2.20849e+08
2.16496e+08
2.1227e+08
2.08166e+08
2.04179e+08
2.00305e+08
1.9654e+08
1.9288e+08
1.89321e+08
1.8586e+08
1.82493e+08
1.79218e+08
1.76034e+08
1.72942e+08
1.69947e+08
1.67093e+08
1.64235e+08
1.61253e+08
1.58411e+08
1.55666e+08
1.53002e+08
1.50407e+08
1.47876e+08
1.45403e+08
1.42986e+08
1.40621e+08
1.38307e+08
1.3604e+08
1.33818e+08
1.31639e+08
1.29501e+08
1.27401e+08
1.25338e+08
1.2331e+08
1.21313e+08
1.19347e+08
1.17409e+08
1.15497e+08
1.13611e+08
1.11747e+08
1.09904e+08
1.08079e+08
1.06273e+08
1.04483e+08
1.02707e+08
1.00944e+08
9.91931e+07
9.74527e+07
9.57212e+07
9.39981e+07
9.2282e+07
9.0572e+07
8.88674e+07
8.71672e+07
8.54709e+07
8.37779e+07
8.20879e+07
8.04004e+07
7.87161e+07
7.70334e+07
7.53533e+07
7.36759e+07
7.20014e+07
7.03302e+07
6.86628e+07
6.69996e+07
6.53415e+07
6.3689e+07
6.20429e+07
6.0404e+07
5.87732e+07
5.71513e+07
5.55393e+07
5.3938e+07
5.23484e+07
5.07715e+07
4.92081e+07
4.76591e+07
4.61256e+07
4.46083e+07
4.31083e+07
4.16264e+07
4.01636e+07
3.87207e+07
3.72987e+07
3.58984e+07
3.45208e+07
3.31668e+07
3.18374e+07
3.05324e+07
2.92548e+07
2.80047e+07
2.67823e+07
2.55887e+07
2.44247e+07
2.3291e+07
2.21883e+07
2.11171e+07
2.0078e+07
1.90714e+07
1.80975e+07
1.71567e+07
1.62489e+07
1.53743e+07
1.45326e+07
1.37237e+07
1.29472e+07
1.22028e+07
1.14899e+07
1.08079e+07
1.01563e+07
9.53421e+06
8.94095e+06
8.37569e+06
7.83758e+06
7.32574e+06
6.83929e+06
6.37732e+06
5.93892e+06
5.52319e+06
5.12924e+06
4.75619e+06
4.40315e+06
4.06927e+06
3.75369e+06
3.45556e+06
3.17402e+06
2.90821e+06
2.65724e+06
2.42014e+06
2.19587e+06
1.98324e+06
1.78084e+06
1.58697e+06
1.39952e+06
1.21599e+06
1.03343e+06
849591
668270
520569
)
;

boundaryField
{
    boundary
    {
        type            empty;
    }
    inlet
    {
        type            calculated;
        value           uniform 0;
    }
    outlet
    {
        type            calculated;
        value           uniform 0;
    }
}


// ************************************************************************* //
