/*--------------------------------*- C++ -*----------------------------------*\
  =========                 |
  \\      /  F ield         | OpenFOAM: The Open Source CFD Toolbox
   \\    /   O peration     | Website:  https://openfoam.org
    \\  /    A nd           | Version:  7
     \\/     M anipulation  |
\*---------------------------------------------------------------------------*/
FoamFile
{
    version     2.0;
    format      ascii;
    class       volVectorField;
    location    "0.00039";
    object      U;
}
// * * * * * * * * * * * * * * * * * * * * * * * * * * * * * * * * * * * * * //

dimensions      [0 1 -1 0 0 0 0];

internalField   nonuniform List<vector> 
500
(
(2.34891 0 0)
(2.34883 0 0)
(2.34873 0 0)
(2.34865 0 0)
(2.34857 0 0)
(2.34849 0 0)
(2.34842 0 0)
(2.34834 0 0)
(2.34827 0 0)
(2.3482 0 0)
(2.34814 0 0)
(2.34808 0 0)
(2.34803 0 0)
(2.34798 0 0)
(2.34793 0 0)
(2.34789 0 0)
(2.34785 0 0)
(2.34782 0 0)
(2.34778 0 0)
(2.34774 0 0)
(2.3477 0 0)
(2.34766 0 0)
(2.34761 0 0)
(2.34755 0 0)
(2.34748 0 0)
(2.3474 0 0)
(2.34731 0 0)
(2.3472 0 0)
(2.3471 0 0)
(2.34698 0 0)
(2.34685 0 0)
(2.34672 0 0)
(2.34659 0 0)
(2.34646 0 0)
(2.34633 0 0)
(2.3462 0 0)
(2.34607 0 0)
(2.34594 0 0)
(2.34582 0 0)
(2.3457 0 0)
(2.34559 0 0)
(2.34548 0 0)
(2.34538 0 0)
(2.34528 0 0)
(2.34518 0 0)
(2.34509 0 0)
(2.34499 0 0)
(2.3449 0 0)
(2.34481 0 0)
(2.34472 0 0)
(2.34464 0 0)
(2.34455 0 0)
(2.34446 0 0)
(2.34438 0 0)
(2.34429 0 0)
(2.34421 0 0)
(2.34412 0 0)
(2.34404 0 0)
(2.34395 0 0)
(2.34387 0 0)
(2.34378 0 0)
(2.3437 0 0)
(2.34361 0 0)
(2.34353 0 0)
(2.34344 0 0)
(2.34336 0 0)
(2.34327 0 0)
(2.34319 0 0)
(2.3431 0 0)
(2.34302 0 0)
(2.34293 0 0)
(2.34285 0 0)
(2.34276 0 0)
(2.34268 0 0)
(2.34259 0 0)
(2.3425 0 0)
(2.34242 0 0)
(2.34233 0 0)
(2.34225 0 0)
(2.34216 0 0)
(2.34208 0 0)
(2.34199 0 0)
(2.3419 0 0)
(2.34182 0 0)
(2.34173 0 0)
(2.34165 0 0)
(2.34156 0 0)
(2.34148 0 0)
(2.34139 0 0)
(2.3413 0 0)
(2.34122 0 0)
(2.34113 0 0)
(2.34104 0 0)
(2.34096 0 0)
(2.34087 0 0)
(2.34078 0 0)
(2.3407 0 0)
(2.34061 0 0)
(2.34052 0 0)
(2.34043 0 0)
(2.34035 0 0)
(2.34026 0 0)
(2.34017 0 0)
(2.34008 0 0)
(2.34 0 0)
(2.33991 0 0)
(2.33982 0 0)
(2.33973 0 0)
(2.33964 0 0)
(2.33955 0 0)
(2.33947 0 0)
(2.33938 0 0)
(2.33929 0 0)
(2.3392 0 0)
(2.33911 0 0)
(2.33902 0 0)
(2.33893 0 0)
(2.33884 0 0)
(2.33875 0 0)
(2.33866 0 0)
(2.33857 0 0)
(2.33847 0 0)
(2.33838 0 0)
(2.33829 0 0)
(2.3382 0 0)
(2.33811 0 0)
(2.33802 0 0)
(2.33792 0 0)
(2.33783 0 0)
(2.33774 0 0)
(2.33764 0 0)
(2.33755 0 0)
(2.33745 0 0)
(2.33736 0 0)
(2.33726 0 0)
(2.33717 0 0)
(2.33707 0 0)
(2.33698 0 0)
(2.33688 0 0)
(2.33678 0 0)
(2.33669 0 0)
(2.33659 0 0)
(2.33649 0 0)
(2.33639 0 0)
(2.33629 0 0)
(2.33619 0 0)
(2.33609 0 0)
(2.33599 0 0)
(2.33589 0 0)
(2.33579 0 0)
(2.33569 0 0)
(2.33559 0 0)
(2.33549 0 0)
(2.33538 0 0)
(2.33528 0 0)
(2.33518 0 0)
(2.33507 0 0)
(2.33497 0 0)
(2.33487 0 0)
(2.33476 0 0)
(2.33466 0 0)
(2.33455 0 0)
(2.33444 0 0)
(2.33434 0 0)
(2.33423 0 0)
(2.33412 0 0)
(2.33402 0 0)
(2.33391 0 0)
(2.3338 0 0)
(2.33369 0 0)
(2.33358 0 0)
(2.33348 0 0)
(2.33337 0 0)
(2.33326 0 0)
(2.33315 0 0)
(2.33304 0 0)
(2.33293 0 0)
(2.33282 0 0)
(2.33271 0 0)
(2.3326 0 0)
(2.3325 0 0)
(2.33239 0 0)
(2.33228 0 0)
(2.33217 0 0)
(2.33206 0 0)
(2.33195 0 0)
(2.33185 0 0)
(2.33174 0 0)
(2.33163 0 0)
(2.33153 0 0)
(2.33142 0 0)
(2.33131 0 0)
(2.33121 0 0)
(2.33111 0 0)
(2.331 0 0)
(2.3309 0 0)
(2.3308 0 0)
(2.3307 0 0)
(2.3306 0 0)
(2.3305 0 0)
(2.3304 0 0)
(2.3303 0 0)
(2.3302 0 0)
(2.3301 0 0)
(2.33001 0 0)
(2.32991 0 0)
(2.32982 0 0)
(2.32973 0 0)
(2.32964 0 0)
(2.32955 0 0)
(2.32946 0 0)
(2.32937 0 0)
(2.32928 0 0)
(2.32919 0 0)
(2.3291 0 0)
(2.32902 0 0)
(2.32893 0 0)
(2.32885 0 0)
(2.32876 0 0)
(2.32868 0 0)
(2.3286 0 0)
(2.32851 0 0)
(2.32843 0 0)
(2.32835 0 0)
(2.32827 0 0)
(2.32819 0 0)
(2.32811 0 0)
(2.32802 0 0)
(2.32794 0 0)
(2.32786 0 0)
(2.32778 0 0)
(2.3277 0 0)
(2.32761 0 0)
(2.32753 0 0)
(2.32745 0 0)
(2.32736 0 0)
(2.32728 0 0)
(2.32719 0 0)
(2.3271 0 0)
(2.32701 0 0)
(2.32692 0 0)
(2.32683 0 0)
(2.32674 0 0)
(2.32665 0 0)
(2.32655 0 0)
(2.32646 0 0)
(2.32636 0 0)
(2.32626 0 0)
(2.32617 0 0)
(2.32607 0 0)
(2.32596 0 0)
(2.32586 0 0)
(2.32576 0 0)
(2.32566 0 0)
(2.32556 0 0)
(2.32545 0 0)
(2.32534 0 0)
(2.32524 0 0)
(2.32513 0 0)
(2.32502 0 0)
(2.32491 0 0)
(2.32481 0 0)
(2.3247 0 0)
(2.32459 0 0)
(2.32448 0 0)
(2.32437 0 0)
(2.32426 0 0)
(2.32415 0 0)
(2.32405 0 0)
(2.32398 0 0)
(2.32403 0 0)
(2.32446 0 0)
(2.32614 0 0)
(2.33158 0 0)
(2.34734 0 0)
(2.38858 0 0)
(2.48819 0 0)
(2.71733 0 0)
(3.20568 0 0)
(4.10474 0 0)
(5.28929 0 0)
(6.52508 0 0)
(7.66515 0 0)
(8.66992 0 0)
(9.53197 0 0)
(10.2485 0 0)
(10.8298 0 0)
(11.2964 0 0)
(11.6732 0 0)
(11.9841 0 0)
(12.2466 0 0)
(12.4721 0 0)
(12.6689 0 0)
(12.8428 0 0)
(12.9981 0 0)
(13.1383 0 0)
(13.2658 0 0)
(13.3825 0 0)
(13.49 0 0)
(13.5895 0 0)
(13.6818 0 0)
(13.768 0 0)
(13.8486 0 0)
(13.9242 0 0)
(13.9953 0 0)
(14.0624 0 0)
(14.1257 0 0)
(14.1857 0 0)
(14.2427 0 0)
(14.2967 0 0)
(14.3481 0 0)
(14.397 0 0)
(14.4423 0 0)
(14.4847 0 0)
(14.5258 0 0)
(14.5653 0 0)
(14.6035 0 0)
(14.6404 0 0)
(14.6761 0 0)
(14.7106 0 0)
(14.744 0 0)
(14.7764 0 0)
(14.8077 0 0)
(14.8382 0 0)
(14.8677 0 0)
(14.8965 0 0)
(14.9244 0 0)
(14.9515 0 0)
(14.9779 0 0)
(15.0036 0 0)
(15.0287 0 0)
(15.0531 0 0)
(15.0769 0 0)
(15.1001 0 0)
(15.1228 0 0)
(15.1449 0 0)
(15.1665 0 0)
(15.1876 0 0)
(15.2082 0 0)
(15.2283 0 0)
(15.2481 0 0)
(15.2674 0 0)
(15.2862 0 0)
(15.3047 0 0)
(15.3228 0 0)
(15.3406 0 0)
(15.358 0 0)
(15.375 0 0)
(15.3917 0 0)
(15.4081 0 0)
(15.4242 0 0)
(15.44 0 0)
(15.4555 0 0)
(15.4707 0 0)
(15.4856 0 0)
(15.5003 0 0)
(15.5147 0 0)
(15.5288 0 0)
(15.5428 0 0)
(15.5564 0 0)
(15.5699 0 0)
(15.5831 0 0)
(15.5961 0 0)
(15.609 0 0)
(15.6216 0 0)
(15.634 0 0)
(15.6462 0 0)
(15.6582 0 0)
(15.6701 0 0)
(15.6818 0 0)
(15.6934 0 0)
(15.7048 0 0)
(15.716 0 0)
(15.7273 0 0)
(15.7384 0 0)
(15.7494 0 0)
(15.7602 0 0)
(15.7706 0 0)
(15.7808 0 0)
(15.7907 0 0)
(15.8005 0 0)
(15.8102 0 0)
(15.8198 0 0)
(15.8292 0 0)
(15.8385 0 0)
(15.8477 0 0)
(15.8567 0 0)
(15.8657 0 0)
(15.8745 0 0)
(15.8832 0 0)
(15.8918 0 0)
(15.9003 0 0)
(15.9087 0 0)
(15.917 0 0)
(15.9252 0 0)
(15.9333 0 0)
(15.9414 0 0)
(15.9493 0 0)
(15.9572 0 0)
(15.9649 0 0)
(15.9727 0 0)
(15.9803 0 0)
(15.9879 0 0)
(15.9954 0 0)
(16.0028 0 0)
(16.0102 0 0)
(16.0175 0 0)
(16.0248 0 0)
(16.032 0 0)
(16.0392 0 0)
(16.0463 0 0)
(16.0534 0 0)
(16.0604 0 0)
(16.0674 0 0)
(16.0744 0 0)
(16.0812 0 0)
(16.0881 0 0)
(16.0948 0 0)
(16.1015 0 0)
(16.1082 0 0)
(16.1147 0 0)
(16.1212 0 0)
(16.1276 0 0)
(16.1339 0 0)
(16.14 0 0)
(16.1461 0 0)
(16.152 0 0)
(16.1578 0 0)
(16.1635 0 0)
(16.169 0 0)
(16.1743 0 0)
(16.1794 0 0)
(16.1844 0 0)
(16.1891 0 0)
(16.1937 0 0)
(16.198 0 0)
(16.2021 0 0)
(16.206 0 0)
(16.2096 0 0)
(16.213 0 0)
(16.2162 0 0)
(16.2191 0 0)
(16.2218 0 0)
(16.2242 0 0)
(16.2264 0 0)
(16.2284 0 0)
(16.2302 0 0)
(16.2317 0 0)
(16.233 0 0)
(16.2341 0 0)
(16.2351 0 0)
(16.2358 0 0)
(16.2364 0 0)
(16.2369 0 0)
(16.2372 0 0)
(16.2373 0 0)
(16.2374 0 0)
(16.2374 0 0)
(16.2373 0 0)
(16.2371 0 0)
(16.2369 0 0)
(16.2366 0 0)
(16.2363 0 0)
(16.236 0 0)
(16.2357 0 0)
(16.2354 0 0)
(16.2351 0 0)
(16.2349 0 0)
(16.2346 0 0)
(16.2344 0 0)
(16.2342 0 0)
(16.2341 0 0)
(16.234 0 0)
(16.234 0 0)
(16.234 0 0)
(16.2341 0 0)
(16.2342 0 0)
(16.2344 0 0)
(16.2345 0 0)
(16.2348 0 0)
(16.2351 0 0)
(16.2354 0 0)
(16.2357 0 0)
(16.2361 0 0)
(16.2364 0 0)
(16.2368 0 0)
(16.2373 0 0)
(16.2377 0 0)
(16.2381 0 0)
(16.2386 0 0)
(16.2391 0 0)
(16.2395 0 0)
(16.24 0 0)
(16.2406 0 0)
(16.2411 0 0)
(16.2418 0 0)
(16.2426 0 0)
(16.2435 0 0)
(16.2449 0 0)
(16.2475 0 0)
)
;

boundaryField
{
    boundary
    {
        type            empty;
    }
    inlet
    {
        type            fixedValue;
        value           uniform (2.34893 0 0);
    }
    outlet
    {
        type            zeroGradient;
    }
}


// ************************************************************************* //
