/*--------------------------------*- C++ -*----------------------------------*\
  =========                 |
  \\      /  F ield         | OpenFOAM: The Open Source CFD Toolbox
   \\    /   O peration     | Website:  https://openfoam.org
    \\  /    A nd           | Version:  7
     \\/     M anipulation  |
\*---------------------------------------------------------------------------*/
FoamFile
{
    version     2.0;
    format      ascii;
    class       volScalarField;
    location    "0.00041";
    object      H2O2;
}
// * * * * * * * * * * * * * * * * * * * * * * * * * * * * * * * * * * * * * //

dimensions      [0 0 0 0 0 0 0];

internalField   nonuniform List<scalar> 
125
(
5.48135e-21
2.51112e-20
1.13567e-19
5.09092e-19
2.26507e-18
1.00109e-17
4.39843e-17
1.92249e-16
8.36493e-16
3.62553e-15
1.56619e-14
6.74698e-14
2.89983e-13
1.24398e-12
5.32836e-12
2.27953e-11
9.74288e-11
4.16118e-10
1.77627e-09
7.57901e-09
3.23223e-08
1.37703e-07
5.84682e-07
2.45263e-06
9.85669e-06
3.44811e-05
8.37477e-05
0.00011951
0.000116605
7.15122e-05
3.17694e-05
1.26999e-05
6.10043e-06
4.49781e-06
4.60634e-06
5.24776e-06
5.8573e-06
6.32127e-06
6.61235e-06
6.75308e-06
6.77867e-06
6.72208e-06
6.60979e-06
6.46141e-06
6.2908e-06
6.10786e-06
5.91933e-06
5.72979e-06
5.54234e-06
5.35902e-06
5.18116e-06
5.00957e-06
4.8447e-06
4.68676e-06
4.5358e-06
4.39172e-06
4.25438e-06
4.12354e-06
3.99898e-06
3.88048e-06
3.76783e-06
3.66408e-06
3.56656e-06
3.47305e-06
3.38335e-06
3.29725e-06
3.21459e-06
3.1352e-06
3.0589e-06
2.98556e-06
2.91502e-06
2.84715e-06
2.78181e-06
2.7189e-06
2.65828e-06
2.59985e-06
2.5435e-06
2.48914e-06
2.43667e-06
2.386e-06
2.33706e-06
2.28976e-06
2.24404e-06
2.19981e-06
2.15701e-06
2.11558e-06
2.07547e-06
2.0366e-06
1.99894e-06
1.96243e-06
1.92702e-06
1.89266e-06
1.85932e-06
1.82694e-06
1.7955e-06
1.76496e-06
1.73527e-06
1.70642e-06
1.67835e-06
1.65105e-06
1.62449e-06
1.59863e-06
1.57346e-06
1.54894e-06
1.52505e-06
1.50178e-06
1.47909e-06
1.45697e-06
1.43539e-06
1.41434e-06
1.39381e-06
1.37376e-06
1.35419e-06
1.33508e-06
1.31641e-06
1.29817e-06
1.28035e-06
1.26292e-06
1.24587e-06
1.22918e-06
1.21284e-06
1.19683e-06
1.18111e-06
1.16566e-06
1.15045e-06
)
;

boundaryField
{
    boundary
    {
        type            empty;
    }
    inlet
    {
        type            fixedValue;
        value           nonuniform 0();
    }
    outlet
    {
        type            zeroGradient;
    }
    procBoundary1to0
    {
        type            processor;
        value           uniform 1.13555e-06;
    }
    procBoundary1to3
    {
        type            processor;
        value           uniform 1.17539e-21;
    }
}


// ************************************************************************* //
