/*--------------------------------*- C++ -*----------------------------------*\
  =========                 |
  \\      /  F ield         | OpenFOAM: The Open Source CFD Toolbox
   \\    /   O peration     | Website:  https://openfoam.org
    \\  /    A nd           | Version:  7
     \\/     M anipulation  |
\*---------------------------------------------------------------------------*/
FoamFile
{
    version     2.0;
    format      ascii;
    class       volScalarField;
    location    "0.00032";
    object      H;
}
// * * * * * * * * * * * * * * * * * * * * * * * * * * * * * * * * * * * * * //

dimensions      [0 0 0 0 0 0 0];

internalField   nonuniform List<scalar> 
500
(
1.48782e-41
2.01835e-41
2.13619e-41
2.16559e-41
2.17672e-41
2.18499e-41
2.19405e-41
2.20509e-41
2.21875e-41
2.23563e-41
2.2563e-41
2.28135e-41
2.31131e-41
2.34664e-41
2.38766e-41
2.43452e-41
2.48716e-41
2.54527e-41
2.60826e-41
2.6753e-41
2.74531e-41
2.81702e-41
2.88905e-41
2.95995e-41
3.02834e-41
3.09297e-41
3.15279e-41
3.20704e-41
3.25524e-41
3.2972e-41
3.33302e-41
3.36299e-41
3.38759e-41
3.40742e-41
3.42311e-41
3.4353e-41
3.44462e-41
3.45161e-41
3.45678e-41
3.46054e-41
3.46324e-41
3.46513e-41
3.46645e-41
3.46736e-41
3.46797e-41
3.46838e-41
3.46865e-41
3.46883e-41
3.46894e-41
3.46902e-41
3.46907e-41
3.46911e-41
3.46913e-41
3.46915e-41
3.46917e-41
3.46918e-41
3.4692e-41
3.46921e-41
3.46923e-41
3.46925e-41
3.46926e-41
3.46928e-41
3.4693e-41
3.46932e-41
3.46935e-41
3.46937e-41
3.46939e-41
3.46942e-41
3.46945e-41
3.46948e-41
3.46951e-41
3.46954e-41
3.46958e-41
3.46962e-41
3.46965e-41
3.4697e-41
3.46974e-41
3.46978e-41
3.46983e-41
3.46988e-41
3.46993e-41
3.46999e-41
3.47005e-41
3.47011e-41
3.47017e-41
3.47023e-41
3.4703e-41
3.47037e-41
3.47045e-41
3.47052e-41
3.4706e-41
3.47069e-41
3.47077e-41
3.47086e-41
3.47096e-41
3.47106e-41
3.47116e-41
3.47126e-41
3.47137e-41
3.47148e-41
3.47159e-41
3.47171e-41
3.47184e-41
3.47196e-41
3.47209e-41
3.47223e-41
3.47237e-41
3.47251e-41
3.47266e-41
3.47281e-41
3.47296e-41
3.47312e-41
3.47329e-41
3.47345e-41
3.47362e-41
3.4738e-41
3.47398e-41
3.47416e-41
3.47435e-41
3.47454e-41
3.47474e-41
3.47494e-41
3.47514e-41
3.47534e-41
3.47554e-41
3.47574e-41
3.47596e-41
3.47618e-41
3.47639e-41
3.47661e-41
3.47683e-41
3.47704e-41
3.47726e-41
3.47748e-41
3.47769e-41
3.4779e-41
3.47812e-41
3.47833e-41
3.47855e-41
3.47877e-41
3.479e-41
3.47924e-41
3.47948e-41
3.47973e-41
3.47999e-41
3.48026e-41
3.48053e-41
3.48081e-41
3.48109e-41
3.48137e-41
3.48165e-41
3.48193e-41
3.48221e-41
3.48248e-41
3.48274e-41
3.483e-41
3.48324e-41
3.48348e-41
3.48371e-41
3.48393e-41
3.48413e-41
3.48433e-41
3.48451e-41
3.48469e-41
3.48485e-41
3.485e-41
3.48514e-41
3.48526e-41
3.48537e-41
3.48547e-41
3.48555e-41
3.48561e-41
3.48565e-41
3.48568e-41
3.48568e-41
3.48567e-41
3.48563e-41
3.48557e-41
3.48549e-41
3.48538e-41
3.48525e-41
3.48509e-41
3.4849e-41
3.48468e-41
3.48443e-41
3.48415e-41
3.48383e-41
3.48348e-41
3.4831e-41
3.48267e-41
3.48221e-41
3.48171e-41
3.48117e-41
3.48059e-41
3.47996e-41
3.47929e-41
3.47858e-41
3.47781e-41
3.477e-41
3.47614e-41
3.47523e-41
3.47427e-41
3.47326e-41
3.47219e-41
3.47106e-41
3.46989e-41
3.46865e-41
3.46736e-41
3.46601e-41
3.4646e-41
3.46314e-41
3.46161e-41
3.46002e-41
3.45837e-41
3.45666e-41
3.45489e-41
3.45306e-41
3.45117e-41
3.44923e-41
3.44729e-41
3.4456e-41
3.44543e-41
3.45301e-41
3.49876e-41
3.72975e-41
4.84837e-41
1.01716e-40
3.51822e-40
1.51305e-39
6.84142e-39
3.10033e-38
1.39267e-37
6.1857e-37
2.71502e-36
1.1774e-35
5.0445e-35
2.13526e-34
8.92978e-34
3.69002e-33
1.50691e-32
6.08307e-32
2.42828e-31
9.59043e-31
3.75015e-30
1.45326e-29
5.58808e-29
2.13556e-28
8.12793e-28
3.08859e-27
1.1753e-26
4.49376e-26
1.7374e-25
6.79022e-25
2.69546e-24
1.08952e-23
4.48979e-23
1.8861e-22
8.06729e-22
3.50638e-21
1.54513e-20
6.88813e-20
3.1011e-19
1.40852e-18
6.4536e-18
2.98594e-17
1.39848e-16
6.65729e-16
3.24e-15
1.62417e-14
8.45463e-14
4.61158e-13
2.87927e-12
2.14559e-11
2.14259e-10
1.98733e-09
1.86652e-08
1.72003e-07
1.48028e-06
1.07615e-05
5.68271e-05
0.000188539
0.000417339
0.000726427
0.00108498
0.00143206
0.00169975
0.00185859
0.00192262
0.00191619
0.0018701
0.00180376
0.00172924
0.00165346
0.00158007
0.00151081
0.00144633
0.0013867
0.00133171
0.00128101
0.00123421
0.00119094
0.00115083
0.00111357
0.00107886
0.00104644
0.00101609
0.000987617
0.000960844
0.000935621
0.000911813
0.0008893
0.000867978
0.000848346
0.000830092
0.000812605
0.000795839
0.000779749
0.000764293
0.000749434
0.000735136
0.000721368
0.000708099
0.000695303
0.000682954
0.000671029
0.000659505
0.000648363
0.000637584
0.00062715
0.000617046
0.000607255
0.000597763
0.000588557
0.000579626
0.000570956
0.000562536
0.000554358
0.00054641
0.000538683
0.00053117
0.000523861
0.000516749
0.000509826
0.000503086
0.000496522
0.000490128
0.000483897
0.000477825
0.000471905
0.000466132
0.000460502
0.00045501
0.00044965
0.00044442
0.000439314
0.000434328
0.000429459
0.000424703
0.000420056
0.000415514
0.000411075
0.000406734
0.000402488
0.000398335
0.000394271
0.000390293
0.000386397
0.000382582
0.000378844
0.000375179
0.000371586
0.00036806
0.000364598
0.000361196
0.000357849
0.000354551
0.000351293
0.000348075
0.000344896
0.000341755
0.000338647
0.000335571
0.000332523
0.0003295
0.000326498
0.000323515
0.000320546
0.00031759
0.000314643
0.000311702
0.000308764
0.000305826
0.000302885
0.000299938
0.000296984
0.000294019
0.000291041
0.000288048
0.000285038
0.00028201
0.000278962
0.000275891
0.000272799
0.000269682
0.000266541
0.000263375
0.000260183
0.000256966
0.000253723
0.000250456
0.000247164
0.000243848
0.00024051
0.00023715
0.000233769
0.00023037
0.000226953
0.000223522
0.000220077
0.000216621
0.000213156
0.000209684
0.000206209
0.000202732
0.000199257
0.000195787
0.000192323
0.00018887
0.00018543
0.000182006
0.000178602
0.000175221
0.000171866
0.000168539
0.000165245
0.000161987
0.000158767
0.000155588
0.000152455
0.000149369
0.000146333
0.000143351
0.000140426
0.000137558
0.000134752
0.00013201
0.000129332
0.000126723
0.000124182
0.000121713
0.000119315
0.000116991
0.000114742
0.000112568
0.000110469
0.000108447
0.000106501
0.000104632
0.000102839
0.000101122
9.94794e-05
9.79115e-05
9.6417e-05
9.49947e-05
9.36434e-05
9.23616e-05
9.11478e-05
9.00004e-05
8.89174e-05
8.78971e-05
8.69374e-05
8.60364e-05
8.51918e-05
8.44017e-05
8.36637e-05
8.29756e-05
8.23354e-05
8.17406e-05
8.11892e-05
8.06788e-05
8.02074e-05
7.97728e-05
7.93729e-05
7.90056e-05
7.86689e-05
7.83609e-05
7.80797e-05
7.78236e-05
7.75909e-05
7.73799e-05
7.71892e-05
7.70175e-05
7.68635e-05
7.67262e-05
7.66051e-05
7.64999e-05
7.64108e-05
7.63389e-05
7.62865e-05
7.62574e-05
)
;

boundaryField
{
    boundary
    {
        type            empty;
    }
    inlet
    {
        type            fixedValue;
        value           uniform 0;
    }
    outlet
    {
        type            zeroGradient;
    }
}


// ************************************************************************* //
