/*--------------------------------*- C++ -*----------------------------------*\
  =========                 |
  \\      /  F ield         | OpenFOAM: The Open Source CFD Toolbox
   \\    /   O peration     | Website:  https://openfoam.org
    \\  /    A nd           | Version:  7
     \\/     M anipulation  |
\*---------------------------------------------------------------------------*/
FoamFile
{
    version     2.0;
    format      ascii;
    class       volScalarField;
    location    "0.00032";
    object      H2O;
}
// * * * * * * * * * * * * * * * * * * * * * * * * * * * * * * * * * * * * * //

dimensions      [0 0 0 0 0 0 0];

internalField   nonuniform List<scalar> 
500
(
7.917e-48
2.29172e-47
4.1317e-47
6.20878e-47
8.45643e-47
1.08337e-46
1.33175e-46
1.58979e-46
1.8574e-46
2.13515e-46
2.42399e-46
2.72503e-46
3.03929e-46
3.36745e-46
3.70961e-46
4.06507e-46
4.43223e-46
4.80846e-46
5.19012e-46
5.57274e-46
5.9512e-46
6.32002e-46
6.67378e-46
7.00743e-46
7.31662e-46
7.59802e-46
7.84944e-46
8.06992e-46
8.25964e-46
8.41986e-46
8.55262e-46
8.66061e-46
8.74683e-46
8.81442e-46
8.86645e-46
8.9058e-46
8.93505e-46
8.95642e-46
8.97177e-46
8.98261e-46
8.99015e-46
8.9953e-46
8.99877e-46
9.00107e-46
9.00258e-46
9.00354e-46
9.00416e-46
9.00454e-46
9.00477e-46
9.00492e-46
9.005e-46
9.00506e-46
9.00509e-46
9.00511e-46
9.00513e-46
9.00514e-46
9.00516e-46
9.00517e-46
9.00519e-46
9.00521e-46
9.00523e-46
9.00525e-46
9.00528e-46
9.00531e-46
9.00535e-46
9.00539e-46
9.00543e-46
9.00548e-46
9.00553e-46
9.00559e-46
9.00565e-46
9.00572e-46
9.00579e-46
9.00587e-46
9.00595e-46
9.00604e-46
9.00614e-46
9.00624e-46
9.00635e-46
9.00647e-46
9.00659e-46
9.00672e-46
9.00686e-46
9.00701e-46
9.00717e-46
9.00733e-46
9.0075e-46
9.00768e-46
9.00787e-46
9.00808e-46
9.00828e-46
9.0085e-46
9.00873e-46
9.00897e-46
9.00922e-46
9.00948e-46
9.00976e-46
9.01004e-46
9.01033e-46
9.01064e-46
9.01095e-46
9.01128e-46
9.01162e-46
9.01197e-46
9.01234e-46
9.01271e-46
9.0131e-46
9.0135e-46
9.01391e-46
9.01434e-46
9.01478e-46
9.01523e-46
9.01569e-46
9.01617e-46
9.01666e-46
9.01716e-46
9.01768e-46
9.0182e-46
9.01874e-46
9.0193e-46
9.01987e-46
9.02049e-46
9.02127e-46
9.02261e-46
9.0261e-46
9.0337e-46
9.03369e-46
9.03358e-46
9.03329e-46
9.03275e-46
9.03188e-46
9.03063e-46
9.02898e-46
9.02695e-46
9.02461e-46
9.02205e-46
9.01942e-46
9.01685e-46
9.01451e-46
9.01257e-46
9.01116e-46
9.01039e-46
9.01032e-46
9.01099e-46
9.01233e-46
9.01429e-46
9.01672e-46
9.0195e-46
9.02247e-46
9.02551e-46
9.0285e-46
9.03134e-46
9.03397e-46
9.03635e-46
9.03847e-46
9.04033e-46
9.04194e-46
9.04332e-46
9.04452e-46
9.04554e-46
9.04643e-46
9.0472e-46
9.04787e-46
9.04846e-46
9.04898e-46
9.04944e-46
9.04984e-46
9.05018e-46
9.05047e-46
9.05071e-46
9.05089e-46
9.05102e-46
9.05109e-46
9.0511e-46
9.05105e-46
9.05093e-46
9.05074e-46
9.05048e-46
9.05014e-46
9.04972e-46
9.04922e-46
9.04862e-46
9.04794e-46
9.04716e-46
9.04629e-46
9.04531e-46
9.04422e-46
9.04302e-46
9.04171e-46
9.04028e-46
9.03872e-46
9.03704e-46
9.03523e-46
9.03328e-46
9.03119e-46
9.02896e-46
9.02658e-46
9.02405e-46
9.02136e-46
9.01851e-46
9.01551e-46
9.01233e-46
9.00899e-46
9.00547e-46
9.00177e-46
8.9979e-46
8.99384e-46
8.9896e-46
8.98519e-46
8.98067e-46
8.97645e-46
8.97486e-46
8.98928e-46
9.09558e-46
9.72075e-46
1.32479e-45
3.28783e-45
1.41239e-44
7.35472e-44
3.97642e-43
2.15789e-42
1.16931e-41
6.33036e-41
3.43021e-40
1.86449e-39
1.01891e-38
5.60997e-38
3.11715e-37
1.74963e-36
9.92102e-36
5.67837e-35
3.2751e-34
1.89921e-33
1.10443e-32
6.42344e-32
3.72693e-31
2.15226e-30
1.23462e-29
7.02331e-29
3.9566e-28
2.2049e-27
1.21435e-26
6.60507e-26
3.5459e-25
1.87796e-24
9.80813e-24
5.05e-23
2.56268e-22
1.28149e-21
6.31391e-21
3.06492e-20
1.45808e-19
6.86393e-19
3.18762e-18
1.45942e-17
6.58869e-17
2.93424e-16
1.28972e-15
5.59834e-15
2.40159e-14
1.01895e-13
4.27956e-13
1.78086e-12
7.34946e-12
3.01089e-11
1.22562e-10
4.96169e-10
1.99931e-09
8.02467e-09
3.21036e-08
1.28081e-07
5.09767e-07
2.02439e-06
8.01949e-06
3.16488e-05
0.00012389
0.000474944
0.00172369
0.00550611
0.0140784
0.0278072
0.045185
0.066205
0.0909328
0.116914
0.140048
0.157617
0.172736
0.181544
0.187458
0.19149
0.194327
0.196413
0.198025
0.199333
0.200441
0.201413
0.202288
0.203091
0.203839
0.204541
0.205205
0.205836
0.206438
0.207014
0.207566
0.208096
0.208605
0.209096
0.209569
0.210025
0.210464
0.210875
0.211267
0.211649
0.21202
0.212383
0.212736
0.213081
0.213417
0.213746
0.214068
0.214382
0.214689
0.21499
0.215285
0.215574
0.215857
0.216134
0.216407
0.216674
0.216936
0.217194
0.217448
0.217697
0.217942
0.218184
0.218422
0.218657
0.218889
0.219118
0.219344
0.219568
0.219789
0.220009
0.220226
0.220442
0.220656
0.220869
0.221081
0.221293
0.221503
0.221713
0.221923
0.222132
0.222342
0.222552
0.222762
0.222973
0.223185
0.223397
0.223611
0.223826
0.224042
0.224259
0.224478
0.224699
0.224921
0.225145
0.225371
0.225599
0.22583
0.226062
0.226297
0.226536
0.226778
0.227015
0.227254
0.227495
0.227736
0.227978
0.22822
0.228463
0.228706
0.228949
0.229192
0.229433
0.229674
0.229914
0.230152
0.230389
0.230624
0.230856
0.231086
0.231313
0.231538
0.231759
0.231978
0.232193
0.232404
0.232612
0.232817
0.233018
0.233215
0.233409
0.233599
0.233786
0.23397
0.23415
0.234327
0.234501
0.234672
0.23484
0.235006
0.235169
0.235329
0.235488
0.235644
0.235797
0.235949
0.236099
0.236247
0.236393
0.236537
0.236679
0.236819
0.236957
0.237092
0.237226
0.237358
0.237487
0.237613
0.237737
0.237859
0.237977
0.238093
0.238205
0.238314
0.23842
0.238523
0.238622
0.238717
0.238809
0.238896
0.23898
0.23906
0.239136
0.239209
0.239277
0.239342
0.239403
0.23946
0.239514
0.239564
0.23961
0.239653
0.239694
0.239731
0.239765
0.239796
0.239825
0.239852
0.239876
0.239898
0.239918
0.239936
0.239952
0.239967
0.239981
0.239993
0.240004
0.240014
0.240022
0.24003
0.240037
0.240044
0.240049
0.240055
0.240059
0.240063
0.240067
0.24007
0.240073
0.240076
0.240078
0.240081
0.240082
0.240084
0.240086
0.240087
0.240088
0.240089
0.24009
0.240091
0.240092
0.240093
0.240093
0.240093
0.240094
0.240094
)
;

boundaryField
{
    boundary
    {
        type            empty;
    }
    inlet
    {
        type            fixedValue;
        value           uniform 0;
    }
    outlet
    {
        type            zeroGradient;
    }
}


// ************************************************************************* //
