/*--------------------------------*- C++ -*----------------------------------*\
  =========                 |
  \\      /  F ield         | OpenFOAM: The Open Source CFD Toolbox
   \\    /   O peration     | Website:  https://openfoam.org
    \\  /    A nd           | Version:  7
     \\/     M anipulation  |
\*---------------------------------------------------------------------------*/
FoamFile
{
    version     2.0;
    format      ascii;
    class       volScalarField;
    location    "0.00032";
    object      H2O2;
}
// * * * * * * * * * * * * * * * * * * * * * * * * * * * * * * * * * * * * * //

dimensions      [0 0 0 0 0 0 0];

internalField   nonuniform List<scalar> 
500
(
2.00357e-52
6.45013e-52
1.28549e-51
2.12466e-51
3.16658e-51
4.41683e-51
5.88273e-51
7.57352e-51
9.50021e-51
1.16751e-50
1.41109e-50
1.68191e-50
1.9808e-50
2.30808e-50
2.66322e-50
3.04469e-50
3.44972e-50
3.87423e-50
4.31283e-50
4.75904e-50
5.20549e-50
5.64443e-50
6.06815e-50
6.46949e-50
6.84232e-50
7.18188e-50
7.48503e-50
7.75028e-50
7.97775e-50
8.16896e-50
8.32653e-50
8.45385e-50
8.55477e-50
8.63323e-50
8.69312e-50
8.73799e-50
8.77101e-50
8.79489e-50
8.81186e-50
8.82372e-50
8.83187e-50
8.83738e-50
8.84105e-50
8.84346e-50
8.84501e-50
8.846e-50
8.84662e-50
8.847e-50
8.84724e-50
8.84738e-50
8.84747e-50
8.84753e-50
8.84756e-50
8.84759e-50
8.84761e-50
8.84763e-50
8.84765e-50
8.84767e-50
8.84769e-50
8.84772e-50
8.84775e-50
8.84778e-50
8.84782e-50
8.84786e-50
8.8479e-50
8.84795e-50
8.84801e-50
8.84806e-50
8.84813e-50
8.8482e-50
8.84827e-50
8.84835e-50
8.84844e-50
8.84853e-50
8.84863e-50
8.84873e-50
8.84884e-50
8.84896e-50
8.84909e-50
8.84922e-50
8.84936e-50
8.84952e-50
8.84967e-50
8.84984e-50
8.85002e-50
8.8502e-50
8.8504e-50
8.8506e-50
8.85082e-50
8.85104e-50
8.85128e-50
8.85152e-50
8.85178e-50
8.85204e-50
8.85232e-50
8.85261e-50
8.85291e-50
8.85323e-50
8.85355e-50
8.85389e-50
8.85424e-50
8.8546e-50
8.85498e-50
8.85537e-50
8.85577e-50
8.85618e-50
8.85661e-50
8.85705e-50
8.8575e-50
8.85797e-50
8.85845e-50
8.85895e-50
8.85946e-50
8.85998e-50
8.86052e-50
8.86107e-50
8.86163e-50
8.86221e-50
8.8628e-50
8.8634e-50
8.86401e-50
8.86466e-50
8.86547e-50
8.86699e-50
8.87041e-50
8.87755e-50
8.88149e-50
8.8794e-50
8.87583e-50
8.87117e-50
8.86559e-50
8.85932e-50
8.85268e-50
8.846e-50
8.83961e-50
8.8338e-50
8.82882e-50
8.82486e-50
8.82205e-50
8.82049e-50
8.82023e-50
8.82125e-50
8.8235e-50
8.82686e-50
8.83117e-50
8.83622e-50
8.84179e-50
8.84763e-50
8.85352e-50
8.85925e-50
8.86465e-50
8.86962e-50
8.87407e-50
8.87798e-50
8.88135e-50
8.88421e-50
8.88661e-50
8.88861e-50
8.89028e-50
8.89166e-50
8.89282e-50
8.89379e-50
8.89462e-50
8.89534e-50
8.89595e-50
8.89649e-50
8.89696e-50
8.89736e-50
8.8977e-50
8.89799e-50
8.89821e-50
8.89838e-50
8.89848e-50
8.89852e-50
8.8985e-50
8.8984e-50
8.89822e-50
8.89797e-50
8.89764e-50
8.89722e-50
8.89671e-50
8.89611e-50
8.89541e-50
8.89461e-50
8.8937e-50
8.89269e-50
8.89155e-50
8.8903e-50
8.88893e-50
8.88743e-50
8.88579e-50
8.88402e-50
8.88211e-50
8.88006e-50
8.87785e-50
8.87549e-50
8.87297e-50
8.87029e-50
8.86745e-50
8.86443e-50
8.86124e-50
8.85787e-50
8.85431e-50
8.85058e-50
8.84665e-50
8.84253e-50
8.83821e-50
8.83369e-50
8.82897e-50
8.82405e-50
8.81892e-50
8.81362e-50
8.80835e-50
8.80503e-50
8.82e-50
8.99118e-50
1.04713e-49
2.27909e-49
1.23885e-48
9.44044e-48
7.52361e-47
5.9712e-46
4.68934e-45
3.64055e-44
2.79325e-43
2.11768e-42
1.58612e-41
1.17344e-40
8.57327e-40
6.18461e-39
4.40423e-38
3.09549e-37
2.14684e-36
1.46888e-35
9.91285e-35
6.59681e-34
4.32808e-33
2.79884e-32
1.7835e-31
1.11963e-30
6.92242e-30
4.21417e-29
2.52534e-28
1.48926e-27
8.64097e-27
4.93192e-26
2.76865e-25
1.52854e-24
8.29873e-24
4.42965e-23
2.31959e-22
1.19526e-21
6.07183e-21
3.03702e-20
1.49563e-19
7.25439e-19
3.46751e-18
1.63445e-17
7.60348e-17
3.49406e-16
1.58767e-15
7.14107e-15
3.18291e-14
1.40743e-13
6.18091e-13
2.69868e-12
1.17256e-11
5.07428e-11
2.18865e-10
9.41438e-10
4.04032e-09
1.73049e-08
7.39658e-08
3.15152e-07
1.33209e-06
5.48594e-06
2.07311e-05
6.09478e-05
0.000107491
0.00012491
9.29313e-05
4.63387e-05
1.88133e-05
8.01935e-06
4.85466e-06
4.44966e-06
4.90754e-06
5.62747e-06
6.15285e-06
6.51076e-06
6.7074e-06
6.77463e-06
6.74697e-06
6.65375e-06
6.51729e-06
6.35376e-06
6.17453e-06
5.98748e-06
5.79797e-06
5.60962e-06
5.42484e-06
5.24517e-06
5.07157e-06
4.90459e-06
4.7445e-06
4.59136e-06
4.44512e-06
4.30563e-06
4.1727e-06
4.04608e-06
3.92556e-06
3.81096e-06
3.70537e-06
3.60611e-06
3.5109e-06
3.41956e-06
3.33189e-06
3.24771e-06
3.16685e-06
3.08916e-06
3.01448e-06
2.94266e-06
2.87357e-06
2.80708e-06
2.74306e-06
2.68138e-06
2.62195e-06
2.56466e-06
2.50939e-06
2.45606e-06
2.40458e-06
2.35486e-06
2.30682e-06
2.26039e-06
2.21548e-06
2.17204e-06
2.12999e-06
2.08927e-06
2.04983e-06
2.0116e-06
1.97454e-06
1.9386e-06
1.90372e-06
1.86985e-06
1.83696e-06
1.80501e-06
1.77395e-06
1.74374e-06
1.71436e-06
1.68575e-06
1.6579e-06
1.63077e-06
1.60433e-06
1.57854e-06
1.55339e-06
1.52884e-06
1.50486e-06
1.48144e-06
1.45855e-06
1.43616e-06
1.41425e-06
1.3928e-06
1.37178e-06
1.35118e-06
1.33097e-06
1.31113e-06
1.29164e-06
1.27248e-06
1.25363e-06
1.23506e-06
1.21676e-06
1.1987e-06
1.18084e-06
1.16317e-06
1.14562e-06
1.12811e-06
1.11082e-06
1.09407e-06
1.07732e-06
1.06062e-06
1.04399e-06
1.02743e-06
1.01092e-06
9.94451e-07
9.78014e-07
9.61599e-07
9.45196e-07
9.28796e-07
9.12392e-07
8.95979e-07
8.79554e-07
8.63115e-07
8.46663e-07
8.30199e-07
8.1373e-07
7.9726e-07
7.80799e-07
7.64357e-07
7.47947e-07
7.31582e-07
7.15279e-07
6.99054e-07
6.82927e-07
6.66916e-07
6.51042e-07
6.35325e-07
6.19787e-07
6.04449e-07
5.89331e-07
5.74453e-07
5.59835e-07
5.45496e-07
5.31453e-07
5.17721e-07
5.04315e-07
4.91248e-07
4.78531e-07
4.66174e-07
4.54183e-07
4.42565e-07
4.31323e-07
4.20459e-07
4.09975e-07
3.99868e-07
3.90137e-07
3.80777e-07
3.71783e-07
3.63149e-07
3.54868e-07
3.4693e-07
3.39328e-07
3.32052e-07
3.25092e-07
3.18437e-07
3.12076e-07
3.05999e-07
3.00195e-07
2.94653e-07
2.89362e-07
2.84312e-07
2.79491e-07
2.74891e-07
2.705e-07
2.66309e-07
2.6231e-07
2.58493e-07
2.5485e-07
2.51372e-07
2.48053e-07
2.44885e-07
2.41861e-07
2.38975e-07
2.36221e-07
2.33593e-07
2.31087e-07
2.28696e-07
2.26416e-07
2.24244e-07
2.22175e-07
2.20205e-07
2.18331e-07
2.16549e-07
2.14856e-07
2.13249e-07
2.11725e-07
2.10281e-07
2.08915e-07
2.07624e-07
2.06405e-07
2.05256e-07
2.04174e-07
2.03156e-07
2.02202e-07
2.01306e-07
2.00469e-07
1.99686e-07
1.98956e-07
1.98277e-07
1.97645e-07
1.97059e-07
1.96516e-07
1.96014e-07
1.95551e-07
1.95125e-07
1.94733e-07
1.94374e-07
1.94045e-07
1.93744e-07
1.9347e-07
1.93221e-07
1.92995e-07
1.92791e-07
1.92607e-07
1.92442e-07
1.92296e-07
1.92168e-07
1.92057e-07
1.91966e-07
1.91896e-07
1.91854e-07
)
;

boundaryField
{
    boundary
    {
        type            empty;
    }
    inlet
    {
        type            fixedValue;
        value           uniform 0;
    }
    outlet
    {
        type            zeroGradient;
    }
}


// ************************************************************************* //
