/*--------------------------------*- C++ -*----------------------------------*\
  =========                 |
  \\      /  F ield         | OpenFOAM: The Open Source CFD Toolbox
   \\    /   O peration     | Website:  https://openfoam.org
    \\  /    A nd           | Version:  7
     \\/     M anipulation  |
\*---------------------------------------------------------------------------*/
FoamFile
{
    version     2.0;
    format      ascii;
    class       volScalarField;
    location    "0.00032";
    object      HO2;
}
// * * * * * * * * * * * * * * * * * * * * * * * * * * * * * * * * * * * * * //

dimensions      [0 0 0 0 0 0 0];

internalField   nonuniform List<scalar> 
500
(
5.60417e-38
1.27703e-37
1.99854e-37
2.72385e-37
3.45377e-37
4.18994e-37
4.93448e-37
5.68999e-37
6.45949e-37
7.24631e-37
8.05381e-37
8.88513e-37
9.74268e-37
1.06277e-36
1.15398e-36
1.24766e-36
1.34332e-36
1.44024e-36
1.53748e-36
1.63392e-36
1.72829e-36
1.81931e-36
1.90571e-36
1.98638e-36
2.06039e-36
2.12709e-36
2.1861e-36
2.23736e-36
2.28105e-36
2.3176e-36
2.34761e-36
2.3718e-36
2.39094e-36
2.40581e-36
2.41716e-36
2.42567e-36
2.43194e-36
2.43649e-36
2.43972e-36
2.44199e-36
2.44356e-36
2.44462e-36
2.44533e-36
2.4458e-36
2.4461e-36
2.4463e-36
2.44642e-36
2.4465e-36
2.44654e-36
2.44657e-36
2.44659e-36
2.4466e-36
2.44661e-36
2.44662e-36
2.44662e-36
2.44663e-36
2.44663e-36
2.44664e-36
2.44664e-36
2.44665e-36
2.44665e-36
2.44666e-36
2.44667e-36
2.44668e-36
2.44668e-36
2.44669e-36
2.44671e-36
2.44672e-36
2.44673e-36
2.44674e-36
2.44676e-36
2.44677e-36
2.44679e-36
2.44681e-36
2.44683e-36
2.44685e-36
2.44687e-36
2.44689e-36
2.44692e-36
2.44695e-36
2.44697e-36
2.447e-36
2.44703e-36
2.44707e-36
2.4471e-36
2.44714e-36
2.44718e-36
2.44722e-36
2.44726e-36
2.4473e-36
2.44735e-36
2.44739e-36
2.44744e-36
2.4475e-36
2.44755e-36
2.44761e-36
2.44767e-36
2.44773e-36
2.44779e-36
2.44786e-36
2.44792e-36
2.44799e-36
2.44807e-36
2.44814e-36
2.44822e-36
2.4483e-36
2.44838e-36
2.44847e-36
2.44856e-36
2.44865e-36
2.44874e-36
2.44884e-36
2.44894e-36
2.44904e-36
2.44914e-36
2.44925e-36
2.44936e-36
2.44947e-36
2.44959e-36
2.4497e-36
2.44982e-36
2.44994e-36
2.45008e-36
2.45031e-36
2.45095e-36
2.45247e-36
2.45222e-36
2.45179e-36
2.45115e-36
2.45027e-36
2.44916e-36
2.44788e-36
2.44651e-36
2.44514e-36
2.44389e-36
2.44285e-36
2.44208e-36
2.44161e-36
2.44143e-36
2.44154e-36
2.4419e-36
2.44247e-36
2.44322e-36
2.44409e-36
2.44506e-36
2.44608e-36
2.44713e-36
2.44817e-36
2.44917e-36
2.45011e-36
2.45098e-36
2.45177e-36
2.45247e-36
2.45308e-36
2.45361e-36
2.45406e-36
2.45444e-36
2.45476e-36
2.45503e-36
2.45526e-36
2.45546e-36
2.45563e-36
2.45577e-36
2.4559e-36
2.45601e-36
2.45611e-36
2.4562e-36
2.45627e-36
2.45634e-36
2.45639e-36
2.45643e-36
2.45646e-36
2.45648e-36
2.45649e-36
2.45648e-36
2.45646e-36
2.45643e-36
2.45638e-36
2.45631e-36
2.45623e-36
2.45613e-36
2.45601e-36
2.45587e-36
2.45571e-36
2.45554e-36
2.45534e-36
2.45512e-36
2.45487e-36
2.4546e-36
2.45431e-36
2.45399e-36
2.45365e-36
2.45328e-36
2.45288e-36
2.45245e-36
2.45199e-36
2.4515e-36
2.45098e-36
2.45042e-36
2.44984e-36
2.44922e-36
2.44856e-36
2.44787e-36
2.44714e-36
2.44638e-36
2.44558e-36
2.44474e-36
2.44386e-36
2.44295e-36
2.44199e-36
2.44099e-36
2.43996e-36
2.43888e-36
2.43776e-36
2.4366e-36
2.4354e-36
2.43415e-36
2.43287e-36
2.43154e-36
2.43017e-36
2.42876e-36
2.42734e-36
2.426e-36
2.42524e-36
2.42756e-36
2.44542e-36
2.54005e-36
3.00991e-36
5.29708e-36
1.63122e-35
6.8932e-35
3.18614e-34
1.49704e-33
7.03821e-33
3.30477e-32
1.55185e-31
7.30319e-31
3.45237e-30
1.64269e-29
7.87949e-29
3.81317e-28
1.86151e-27
9.15779e-27
4.532e-26
2.25099e-25
1.11932e-24
5.55838e-24
2.75018e-23
1.35309e-22
6.60893e-22
3.20047e-21
1.52964e-20
7.25795e-20
3.4106e-19
1.58611e-18
7.30015e-18
3.32634e-17
1.50123e-16
6.71488e-16
2.97881e-15
1.31156e-14
5.73603e-14
2.49368e-13
1.07842e-12
4.64238e-12
1.99046e-11
8.50434e-11
3.62221e-10
1.53844e-09
6.51697e-09
2.75353e-08
1.15955e-07
4.85934e-07
2.01324e-06
8.16776e-06
3.16171e-05
0.000110122
0.000301259
0.000499517
0.000503831
0.000408527
0.000297583
0.000209553
0.000146754
0.00010254
7.1977e-05
5.18275e-05
3.63474e-05
2.78643e-05
2.23944e-05
1.8771e-05
1.62821e-05
1.44989e-05
1.31652e-05
1.21271e-05
1.12905e-05
1.05966e-05
1.00074e-05
9.49799e-06
9.05097e-06
8.65418e-06
8.29866e-06
7.97767e-06
7.686e-06
7.41953e-06
7.17494e-06
6.94953e-06
6.74107e-06
6.54766e-06
6.36776e-06
6.20005e-06
6.0435e-06
5.90161e-06
5.76995e-06
5.64519e-06
5.5268e-06
5.4143e-06
5.30724e-06
5.20526e-06
5.10799e-06
5.01511e-06
4.92633e-06
4.84139e-06
4.76006e-06
4.6821e-06
4.60731e-06
4.53551e-06
4.46651e-06
4.40017e-06
4.33633e-06
4.27484e-06
4.21559e-06
4.15844e-06
4.10328e-06
4.05001e-06
3.99852e-06
3.94872e-06
3.90052e-06
3.85384e-06
3.80858e-06
3.76467e-06
3.72205e-06
3.68063e-06
3.64036e-06
3.60116e-06
3.56298e-06
3.52575e-06
3.48941e-06
3.45391e-06
3.4192e-06
3.38522e-06
3.35193e-06
3.31927e-06
3.28719e-06
3.25565e-06
3.22461e-06
3.19401e-06
3.16382e-06
3.13399e-06
3.10448e-06
3.07526e-06
3.04628e-06
3.0175e-06
2.98889e-06
2.96042e-06
2.93204e-06
2.90373e-06
2.87544e-06
2.84716e-06
2.81884e-06
2.79046e-06
2.76197e-06
2.73333e-06
2.7045e-06
2.67539e-06
2.64588e-06
2.61691e-06
2.58766e-06
2.55825e-06
2.5287e-06
2.49901e-06
2.46917e-06
2.4392e-06
2.40912e-06
2.37895e-06
2.34871e-06
2.31843e-06
2.28814e-06
2.25789e-06
2.2277e-06
2.19763e-06
2.16772e-06
2.13801e-06
2.10857e-06
2.07945e-06
2.0507e-06
2.02239e-06
1.99457e-06
1.96731e-06
1.94065e-06
1.91468e-06
1.88944e-06
1.86499e-06
1.84139e-06
1.81869e-06
1.79695e-06
1.77621e-06
1.75651e-06
1.73789e-06
1.72038e-06
1.70402e-06
1.68882e-06
1.6748e-06
1.66196e-06
1.65031e-06
1.63985e-06
1.63056e-06
1.62242e-06
1.61541e-06
1.6095e-06
1.60464e-06
1.6008e-06
1.59793e-06
1.59596e-06
1.59485e-06
1.59453e-06
1.59493e-06
1.596e-06
1.59767e-06
1.59986e-06
1.60252e-06
1.60557e-06
1.60896e-06
1.61263e-06
1.61652e-06
1.62057e-06
1.62475e-06
1.629e-06
1.63328e-06
1.63757e-06
1.64184e-06
1.64605e-06
1.65019e-06
1.65424e-06
1.65819e-06
1.66203e-06
1.66576e-06
1.66936e-06
1.67285e-06
1.67622e-06
1.67948e-06
1.68262e-06
1.68565e-06
1.68858e-06
1.69141e-06
1.69414e-06
1.69679e-06
1.69935e-06
1.70183e-06
1.70423e-06
1.70656e-06
1.70881e-06
1.711e-06
1.71311e-06
1.71515e-06
1.71713e-06
1.71903e-06
1.72087e-06
1.72264e-06
1.72434e-06
1.72597e-06
1.72753e-06
1.72902e-06
1.73044e-06
1.73179e-06
1.73307e-06
1.73428e-06
1.73543e-06
1.73651e-06
1.73752e-06
1.73847e-06
1.73936e-06
1.74019e-06
1.74096e-06
1.74168e-06
1.74234e-06
1.74296e-06
1.74353e-06
1.74405e-06
1.74453e-06
1.74497e-06
1.74538e-06
1.74575e-06
1.74609e-06
1.74639e-06
1.74667e-06
1.74692e-06
1.74713e-06
1.74731e-06
1.74743e-06
)
;

boundaryField
{
    boundary
    {
        type            empty;
    }
    inlet
    {
        type            fixedValue;
        value           uniform 0;
    }
    outlet
    {
        type            zeroGradient;
    }
}


// ************************************************************************* //
