/*--------------------------------*- C++ -*----------------------------------*\
  =========                 |
  \\      /  F ield         | OpenFOAM: The Open Source CFD Toolbox
   \\    /   O peration     | Website:  https://openfoam.org
    \\  /    A nd           | Version:  7
     \\/     M anipulation  |
\*---------------------------------------------------------------------------*/
FoamFile
{
    version     2.0;
    format      ascii;
    class       volScalarField;
    location    "0.00032";
    object      N2;
}
// * * * * * * * * * * * * * * * * * * * * * * * * * * * * * * * * * * * * * //

dimensions      [0 0 0 0 0 0 0];

internalField   nonuniform List<scalar> 
500
(
0.745219
0.745219
0.745219
0.745219
0.745219
0.745219
0.745219
0.745219
0.745219
0.745219
0.745219
0.745219
0.745219
0.745219
0.745219
0.745219
0.745219
0.745219
0.745219
0.745219
0.745219
0.74522
0.74522
0.74522
0.74522
0.74522
0.74522
0.74522
0.74522
0.74522
0.74522
0.74522
0.74522
0.74522
0.74522
0.74522
0.74522
0.74522
0.74522
0.74522
0.74522
0.74522
0.74522
0.74522
0.74522
0.74522
0.74522
0.74522
0.74522
0.74522
0.74522
0.74522
0.74522
0.74522
0.74522
0.74522
0.74522
0.74522
0.74522
0.74522
0.74522
0.74522
0.74522
0.74522
0.74522
0.74522
0.74522
0.74522
0.74522
0.74522
0.74522
0.74522
0.74522
0.74522
0.74522
0.74522
0.74522
0.74522
0.74522
0.74522
0.74522
0.74522
0.74522
0.74522
0.74522
0.74522
0.74522
0.74522
0.74522
0.74522
0.74522
0.74522
0.74522
0.74522
0.74522
0.74522
0.74522
0.74522
0.74522
0.74522
0.74522
0.74522
0.74522
0.74522
0.74522
0.74522
0.74522
0.74522
0.74522
0.74522
0.74522
0.74522
0.74522
0.74522
0.74522
0.74522
0.74522
0.74522
0.74522
0.74522
0.74522
0.74522
0.74522
0.74522
0.74522
0.74522
0.74522
0.74522
0.74522
0.74522
0.74522
0.74522
0.74522
0.74522
0.74522
0.74522
0.74522
0.74522
0.74522
0.74522
0.74522
0.74522
0.74522
0.74522
0.74522
0.74522
0.74522
0.74522
0.74522
0.74522
0.74522
0.74522
0.74522
0.74522
0.74522
0.74522
0.74522
0.74522
0.74522
0.74522
0.74522
0.74522
0.74522
0.74522
0.74522
0.74522
0.74522
0.74522
0.74522
0.74522
0.74522
0.74522
0.74522
0.74522
0.74522
0.74522
0.74522
0.74522
0.74522
0.74522
0.74522
0.74522
0.74522
0.74522
0.74522
0.74522
0.74522
0.74522
0.74522
0.74522
0.74522
0.74522
0.74522
0.74522
0.74522
0.74522
0.74522
0.74522
0.74522
0.74522
0.74522
0.74522
0.74522
0.74522
0.74522
0.74522
0.74522
0.74522
0.74522
0.74522
0.74522
0.74522
0.74522
0.74522
0.74522
0.74522
0.74522
0.74522
0.74522
0.74522
0.74522
0.74522
0.74522
0.74522
0.74522
0.74522
0.74522
0.74522
0.74522
0.74522
0.74522
0.74522
0.74522
0.74522
0.74522
0.74522
0.74522
0.74522
0.74522
0.74522
0.74522
0.74522
0.74522
0.74522
0.74522
0.74522
0.74522
0.74522
0.74522
0.74522
0.74522
0.74522
0.74522
0.74522
0.74522
0.74522
0.74522
0.74522
0.74522
0.74522
0.74522
0.74522
0.74522
0.74522
0.74522
0.74522
0.74522
0.74522
0.745221
0.745222
0.745225
0.74523
0.745242
0.745264
0.745309
0.745389
0.745509
0.745619
0.745568
0.745291
0.744869
0.744319
0.743809
0.743607
0.743772
0.744095
0.74427
0.744826
0.745017
0.745149
0.745232
0.745283
0.745312
0.745329
0.745338
0.745342
0.745342
0.745341
0.745339
0.745336
0.745334
0.74533
0.745327
0.745324
0.745321
0.745319
0.745316
0.745313
0.745311
0.745309
0.745307
0.745305
0.745303
0.745301
0.745299
0.745297
0.745295
0.745294
0.745292
0.74529
0.745288
0.745286
0.745285
0.745283
0.745281
0.745279
0.745276
0.745274
0.745272
0.745269
0.745266
0.745264
0.745261
0.745258
0.745254
0.745251
0.745248
0.745244
0.74524
0.745236
0.745232
0.745228
0.745224
0.745219
0.745215
0.74521
0.745205
0.745201
0.745196
0.745191
0.745187
0.745182
0.745177
0.745173
0.745168
0.745163
0.745159
0.745155
0.745151
0.745147
0.745144
0.745141
0.745138
0.745135
0.745133
0.745132
0.745131
0.74513
0.745131
0.745131
0.745133
0.745135
0.745138
0.745141
0.745145
0.745149
0.745157
0.745166
0.745175
0.745186
0.745198
0.745211
0.745225
0.745241
0.745257
0.745275
0.745293
0.745313
0.745333
0.745354
0.745376
0.745398
0.74542
0.745443
0.745466
0.745488
0.745511
0.745532
0.745554
0.745574
0.745593
0.745611
0.745628
0.745643
0.745656
0.745668
0.745677
0.745684
0.74569
0.745692
0.745692
0.74569
0.745686
0.745678
0.745669
0.745657
0.745642
0.745626
0.745607
0.745586
0.745564
0.745539
0.745513
0.745486
0.745458
0.745429
0.745399
0.745368
0.745338
0.745307
0.745277
0.745247
0.745217
0.745189
0.745161
0.745135
0.745109
0.745086
0.745063
0.745043
0.745024
0.745007
0.744991
0.744978
0.744966
0.744956
0.744948
0.744942
0.744937
0.744935
0.744933
0.744933
0.744935
0.744938
0.744942
0.744947
0.744953
0.74496
0.744968
0.744976
0.744985
0.744995
0.745004
0.745014
0.745024
0.745034
0.745044
0.745054
0.745064
0.745074
0.745083
0.745093
0.745102
0.74511
0.745118
0.745126
0.745133
0.745141
0.745147
0.745153
0.745159
0.745165
0.74517
0.745174
0.745179
0.745183
0.745187
0.74519
0.745193
0.745196
0.745198
0.745201
0.745203
0.745205
0.745206
0.745208
0.745209
0.74521
0.745211
0.745211
)
;

boundaryField
{
    boundary
    {
        type            empty;
    }
    inlet
    {
        type            fixedValue;
        value           uniform 0.74522;
    }
    outlet
    {
        type            zeroGradient;
    }
}


// ************************************************************************* //
