/*--------------------------------*- C++ -*----------------------------------*\
  =========                 |
  \\      /  F ield         | OpenFOAM: The Open Source CFD Toolbox
   \\    /   O peration     | Website:  https://openfoam.org
    \\  /    A nd           | Version:  7
     \\/     M anipulation  |
\*---------------------------------------------------------------------------*/
FoamFile
{
    version     2.0;
    format      ascii;
    class       volScalarField;
    location    "0.00032";
    object      O2;
}
// * * * * * * * * * * * * * * * * * * * * * * * * * * * * * * * * * * * * * //

dimensions      [0 0 0 0 0 0 0];

internalField   nonuniform List<scalar> 
500
(
0.226269
0.226269
0.226269
0.226269
0.226269
0.226269
0.226269
0.226269
0.226269
0.226269
0.226269
0.226269
0.226269
0.226269
0.226269
0.226269
0.226269
0.226269
0.226269
0.226269
0.226269
0.226269
0.226269
0.226269
0.226269
0.226269
0.226269
0.226269
0.226269
0.226269
0.226269
0.226269
0.226269
0.226269
0.226269
0.226269
0.226269
0.226269
0.226269
0.226269
0.226269
0.226269
0.226269
0.226269
0.226269
0.226269
0.226269
0.226269
0.226269
0.226269
0.226269
0.226269
0.226269
0.226269
0.226269
0.226269
0.226269
0.226269
0.226269
0.226269
0.226269
0.226269
0.226269
0.226269
0.226269
0.226269
0.226269
0.226269
0.226269
0.226269
0.226269
0.226269
0.226269
0.226269
0.226269
0.226269
0.226269
0.226269
0.226269
0.226269
0.226269
0.226269
0.226269
0.226269
0.226269
0.226269
0.226269
0.226269
0.226269
0.226269
0.226269
0.226269
0.226269
0.226269
0.226269
0.226269
0.226269
0.226269
0.226269
0.226269
0.226269
0.226269
0.226269
0.226269
0.226269
0.226269
0.226269
0.226269
0.226269
0.226269
0.226269
0.226269
0.226269
0.226269
0.226269
0.226269
0.226269
0.226269
0.226269
0.226269
0.226269
0.226269
0.226269
0.226269
0.226269
0.226269
0.226269
0.226269
0.226269
0.226269
0.226269
0.226269
0.226269
0.226269
0.226269
0.226269
0.226269
0.226269
0.226269
0.226269
0.226269
0.226269
0.226269
0.226269
0.226269
0.226269
0.226269
0.226269
0.226269
0.226269
0.226269
0.226269
0.226269
0.226269
0.226269
0.226269
0.226269
0.226269
0.226269
0.226269
0.226269
0.226269
0.226269
0.226269
0.226269
0.226269
0.226269
0.226269
0.226269
0.226269
0.226269
0.226269
0.226269
0.226269
0.226269
0.226269
0.226269
0.226269
0.226269
0.226269
0.226269
0.226269
0.226269
0.226269
0.226269
0.226269
0.226269
0.226269
0.226269
0.226269
0.226269
0.226269
0.226269
0.226269
0.226269
0.226269
0.226269
0.226269
0.226269
0.226269
0.226269
0.226269
0.226269
0.226269
0.226269
0.226269
0.226269
0.226269
0.226269
0.226269
0.226269
0.226269
0.226269
0.226269
0.226269
0.226269
0.226269
0.226269
0.226269
0.226269
0.226269
0.226269
0.226269
0.226269
0.226269
0.226269
0.226269
0.226269
0.226269
0.226269
0.226269
0.226269
0.226269
0.226269
0.226269
0.226269
0.226269
0.226269
0.226269
0.226269
0.226269
0.226269
0.226269
0.226269
0.226269
0.226269
0.226269
0.226269
0.226269
0.226269
0.226269
0.226269
0.226269
0.226269
0.226269
0.226269
0.226269
0.226269
0.226269
0.226269
0.226269
0.226269
0.226269
0.226269
0.226269
0.226269
0.226269
0.226269
0.226269
0.22627
0.226271
0.226272
0.226275
0.226278
0.226273
0.226218
0.225945
0.224914
0.221865
0.214801
0.203269
0.188456
0.169567
0.145949
0.120019
0.0962928
0.0780331
0.0617344
0.0522753
0.0458874
0.0415451
0.0385253
0.0363514
0.0347205
0.0334428
0.0324
0.0315179
0.0307499
0.0300657
0.0294458
0.0288768
0.0283496
0.0278576
0.0273959
0.0269606
0.026549
0.0261586
0.0257874
0.0254337
0.0250963
0.024774
0.024466
0.0241808
0.0239103
0.0236486
0.0233954
0.0231501
0.0229124
0.0226817
0.0224577
0.0222401
0.0220285
0.0218227
0.0216223
0.0214271
0.0212369
0.0210513
0.0208703
0.0206935
0.0205208
0.020352
0.0201868
0.020025
0.0198666
0.0197112
0.0195588
0.0194091
0.019262
0.0191173
0.0189747
0.0188343
0.0186957
0.0185588
0.0184234
0.0182894
0.0181566
0.0180248
0.0178938
0.0177635
0.0176338
0.0175044
0.0173752
0.017246
0.0171167
0.0169871
0.016857
0.0167263
0.0165949
0.0164625
0.0163292
0.0161946
0.0160587
0.0159213
0.0157824
0.0156418
0.0154993
0.015355
0.0152087
0.0150602
0.0149096
0.0147566
0.0146013
0.0144433
0.0142826
0.0141186
0.0139506
0.0137857
0.0136179
0.0134482
0.0132769
0.0131039
0.0129295
0.0127538
0.012577
0.0123993
0.012221
0.0120423
0.0118634
0.0116847
0.0115063
0.0113287
0.011152
0.0109766
0.0108027
0.0106307
0.0104608
0.0102933
0.0101285
0.00996661
0.00980793
0.00965266
0.009501
0.00935316
0.0092093
0.00906958
0.00893414
0.00880308
0.0086765
0.00855447
0.00843703
0.00832423
0.00821607
0.00811256
0.00801366
0.00791936
0.00782959
0.0077443
0.00766342
0.00758687
0.00751455
0.00744638
0.00738226
0.00732207
0.00726571
0.00721307
0.00716404
0.00711851
0.00707637
0.00703749
0.00700179
0.00696914
0.00693944
0.00691259
0.00688848
0.00686702
0.00684811
0.00683166
0.00681756
0.00680573
0.00679608
0.00678852
0.00678295
0.00677929
0.00677745
0.00677733
0.00677885
0.00678191
0.00678642
0.00679228
0.0067994
0.00680768
0.00681702
0.00682732
0.00683848
0.0068504
0.00686297
0.00687611
0.0068897
0.00690367
0.0069179
0.00693231
0.00694682
0.00696134
0.0069758
0.00699012
0.00700423
0.00701807
0.0070316
0.00704475
0.00705749
0.00706978
0.00708159
0.0070929
0.00710369
0.00711395
0.00712366
0.00713283
0.00714146
0.00714956
0.00715712
0.00716417
0.00717072
0.00717679
0.0071824
0.00718757
0.00719231
0.00719666
0.00720063
0.00720424
0.00720753
0.00721051
0.0072132
0.00721562
0.00721779
0.00721973
0.00722145
0.00722295
0.00722422
0.00722524
0.0072259
)
;

boundaryField
{
    boundary
    {
        type            empty;
    }
    inlet
    {
        type            fixedValue;
        value           uniform 0.226269;
    }
    outlet
    {
        type            zeroGradient;
    }
}


// ************************************************************************* //
