/*--------------------------------*- C++ -*----------------------------------*\
  =========                 |
  \\      /  F ield         | OpenFOAM: The Open Source CFD Toolbox
   \\    /   O peration     | Website:  https://openfoam.org
    \\  /    A nd           | Version:  7
     \\/     M anipulation  |
\*---------------------------------------------------------------------------*/
FoamFile
{
    version     2.0;
    format      ascii;
    class       surfaceScalarField;
    location    "0.00032";
    object      phi;
}
// * * * * * * * * * * * * * * * * * * * * * * * * * * * * * * * * * * * * * //

dimensions      [1 0 -1 0 0 0 0];

internalField   nonuniform List<scalar> 
499
(
6.93123e-06
6.93086e-06
6.93049e-06
6.9301e-06
6.92968e-06
6.92923e-06
6.92874e-06
6.92818e-06
6.92755e-06
6.92682e-06
6.92598e-06
6.92501e-06
6.9239e-06
6.92264e-06
6.92121e-06
6.91962e-06
6.91787e-06
6.91598e-06
6.91397e-06
6.91187e-06
6.90971e-06
6.90754e-06
6.90538e-06
6.90328e-06
6.90127e-06
6.89938e-06
6.89762e-06
6.89603e-06
6.89459e-06
6.89331e-06
6.89219e-06
6.89121e-06
6.89037e-06
6.88964e-06
6.88901e-06
6.88847e-06
6.888e-06
6.88759e-06
6.88722e-06
6.88688e-06
6.88657e-06
6.88628e-06
6.886e-06
6.88574e-06
6.88548e-06
6.88523e-06
6.88498e-06
6.88473e-06
6.88448e-06
6.88423e-06
6.88399e-06
6.88374e-06
6.8835e-06
6.88325e-06
6.88301e-06
6.88276e-06
6.88252e-06
6.88227e-06
6.88203e-06
6.88178e-06
6.88154e-06
6.88129e-06
6.88105e-06
6.8808e-06
6.88056e-06
6.88031e-06
6.88006e-06
6.87982e-06
6.87957e-06
6.87932e-06
6.87908e-06
6.87883e-06
6.87858e-06
6.87833e-06
6.87809e-06
6.87784e-06
6.87759e-06
6.87734e-06
6.8771e-06
6.87685e-06
6.8766e-06
6.87635e-06
6.8761e-06
6.87585e-06
6.8756e-06
6.87536e-06
6.87511e-06
6.87486e-06
6.87461e-06
6.87436e-06
6.87411e-06
6.87386e-06
6.87361e-06
6.87336e-06
6.8731e-06
6.87285e-06
6.8726e-06
6.87235e-06
6.8721e-06
6.87185e-06
6.8716e-06
6.87134e-06
6.87109e-06
6.87084e-06
6.87059e-06
6.87033e-06
6.87008e-06
6.86983e-06
6.86958e-06
6.86932e-06
6.86907e-06
6.86881e-06
6.86856e-06
6.86831e-06
6.86805e-06
6.8678e-06
6.86754e-06
6.86729e-06
6.86703e-06
6.86678e-06
6.86652e-06
6.86627e-06
6.86601e-06
6.86576e-06
6.8655e-06
6.86524e-06
6.86498e-06
6.86473e-06
6.86447e-06
6.86422e-06
6.86396e-06
6.8637e-06
6.86345e-06
6.86319e-06
6.86293e-06
6.86267e-06
6.86242e-06
6.86216e-06
6.8619e-06
6.86165e-06
6.86139e-06
6.86113e-06
6.86087e-06
6.86062e-06
6.86036e-06
6.8601e-06
6.85984e-06
6.85958e-06
6.85932e-06
6.85906e-06
6.8588e-06
6.85855e-06
6.85829e-06
6.85803e-06
6.85777e-06
6.85751e-06
6.85725e-06
6.85699e-06
6.85673e-06
6.85647e-06
6.85622e-06
6.85596e-06
6.8557e-06
6.85544e-06
6.85519e-06
6.85493e-06
6.85467e-06
6.85442e-06
6.85416e-06
6.8539e-06
6.85365e-06
6.85339e-06
6.85314e-06
6.85288e-06
6.85263e-06
6.85237e-06
6.85212e-06
6.85186e-06
6.85161e-06
6.85136e-06
6.85111e-06
6.85086e-06
6.85061e-06
6.85035e-06
6.85011e-06
6.84986e-06
6.84961e-06
6.84936e-06
6.84911e-06
6.84887e-06
6.84862e-06
6.84838e-06
6.84813e-06
6.84789e-06
6.84765e-06
6.84741e-06
6.84716e-06
6.84693e-06
6.84669e-06
6.84645e-06
6.84621e-06
6.84598e-06
6.84574e-06
6.84551e-06
6.84528e-06
6.84505e-06
6.84482e-06
6.84459e-06
6.84436e-06
6.84413e-06
6.84391e-06
6.84369e-06
6.84346e-06
6.84324e-06
6.84302e-06
6.8428e-06
6.84259e-06
6.84237e-06
6.84216e-06
6.84194e-06
6.84173e-06
6.84152e-06
6.84131e-06
6.8411e-06
6.8409e-06
6.84069e-06
6.84049e-06
6.84028e-06
6.84008e-06
6.83988e-06
6.83968e-06
6.83948e-06
6.83929e-06
6.83909e-06
6.8389e-06
6.8387e-06
6.83851e-06
6.83832e-06
6.83813e-06
6.83794e-06
6.83775e-06
6.83756e-06
6.83737e-06
6.83719e-06
6.837e-06
6.83682e-06
6.83663e-06
6.83645e-06
6.83626e-06
6.83608e-06
6.8359e-06
6.83572e-06
6.83554e-06
6.83536e-06
6.83518e-06
6.835e-06
6.83482e-06
6.83464e-06
6.83446e-06
6.83428e-06
6.83411e-06
6.83393e-06
6.83376e-06
6.83358e-06
6.83341e-06
6.83323e-06
6.83306e-06
6.83289e-06
6.83272e-06
6.83255e-06
6.83241e-06
6.83234e-06
6.8325e-06
6.8333e-06
6.83603e-06
6.8442e-06
6.8664e-06
6.91542e-06
6.98747e-06
7.05346e-06
7.09856e-06
7.12776e-06
7.14769e-06
7.16191e-06
7.17207e-06
7.17932e-06
7.1845e-06
7.18828e-06
7.19115e-06
7.1934e-06
7.19522e-06
7.19673e-06
7.198e-06
7.19908e-06
7.20003e-06
7.20086e-06
7.20159e-06
7.20225e-06
7.20284e-06
7.20337e-06
7.20386e-06
7.2043e-06
7.2047e-06
7.20508e-06
7.20542e-06
7.20574e-06
7.20603e-06
7.20631e-06
7.20656e-06
7.2068e-06
7.20703e-06
7.20724e-06
7.20742e-06
7.2076e-06
7.20776e-06
7.20791e-06
7.20806e-06
7.2082e-06
7.20832e-06
7.20844e-06
7.20856e-06
7.20866e-06
7.20875e-06
7.20884e-06
7.20892e-06
7.20899e-06
7.20905e-06
7.20911e-06
7.20916e-06
7.2092e-06
7.20923e-06
7.20926e-06
7.20928e-06
7.2093e-06
7.20931e-06
7.20931e-06
7.20931e-06
7.20931e-06
7.20931e-06
7.2093e-06
7.20929e-06
7.20928e-06
7.20928e-06
7.20927e-06
7.20927e-06
7.20928e-06
7.20929e-06
7.20931e-06
7.20934e-06
7.20938e-06
7.20944e-06
7.20951e-06
7.2096e-06
7.20971e-06
7.20984e-06
7.21e-06
7.21018e-06
7.21039e-06
7.21063e-06
7.21091e-06
7.21121e-06
7.21156e-06
7.21194e-06
7.21235e-06
7.21281e-06
7.2133e-06
7.21384e-06
7.21441e-06
7.21502e-06
7.21566e-06
7.21634e-06
7.21705e-06
7.21778e-06
7.21852e-06
7.21928e-06
7.22004e-06
7.22079e-06
7.22153e-06
7.22225e-06
7.22292e-06
7.22355e-06
7.2241e-06
7.22456e-06
7.22493e-06
7.22516e-06
7.22525e-06
7.22517e-06
7.22491e-06
7.22443e-06
7.22371e-06
7.22272e-06
7.22145e-06
7.21987e-06
7.21795e-06
7.21567e-06
7.21301e-06
7.20995e-06
7.20646e-06
7.20254e-06
7.19817e-06
7.19334e-06
7.18804e-06
7.18227e-06
7.17602e-06
7.1693e-06
7.16213e-06
7.1545e-06
7.14644e-06
7.13796e-06
7.12909e-06
7.11986e-06
7.11029e-06
7.10043e-06
7.09031e-06
7.07996e-06
7.06944e-06
7.05879e-06
7.04805e-06
7.03727e-06
7.02649e-06
7.01577e-06
7.00515e-06
6.99467e-06
6.98438e-06
6.97433e-06
6.96454e-06
6.95507e-06
6.94594e-06
6.93719e-06
6.92884e-06
6.92092e-06
6.91344e-06
6.90644e-06
6.89991e-06
6.89388e-06
6.88833e-06
6.88329e-06
6.87874e-06
6.87468e-06
6.8711e-06
6.868e-06
6.86535e-06
6.86314e-06
6.86135e-06
6.85997e-06
6.85896e-06
6.85831e-06
6.858e-06
6.85798e-06
6.85825e-06
6.85877e-06
6.85952e-06
6.86047e-06
6.8616e-06
6.86288e-06
6.86428e-06
6.8658e-06
6.8674e-06
6.86906e-06
6.87077e-06
6.87251e-06
6.87427e-06
6.87602e-06
6.87775e-06
6.87946e-06
6.88114e-06
6.88277e-06
6.88435e-06
6.88587e-06
6.88733e-06
6.88873e-06
6.89005e-06
6.8913e-06
6.89248e-06
6.89359e-06
6.89462e-06
6.89559e-06
6.89648e-06
6.8973e-06
6.89806e-06
6.89875e-06
6.89939e-06
6.89996e-06
6.90047e-06
6.90094e-06
6.90135e-06
6.90172e-06
6.90204e-06
6.90233e-06
6.90257e-06
6.90278e-06
6.90295e-06
6.9031e-06
6.90322e-06
6.90331e-06
6.90339e-06
6.90344e-06
6.90348e-06
6.9035e-06
)
;

boundaryField
{
    boundary
    {
        type            empty;
        value           nonuniform 0();
    }
    inlet
    {
        type            calculated;
        value           uniform -6.93158e-06;
    }
    outlet
    {
        type            calculated;
        value           uniform 6.90352e-06;
    }
}


// ************************************************************************* //
