/*--------------------------------*- C++ -*----------------------------------*\
  =========                 |
  \\      /  F ield         | OpenFOAM: The Open Source CFD Toolbox
   \\    /   O peration     | Website:  https://openfoam.org
    \\  /    A nd           | Version:  7
     \\/     M anipulation  |
\*---------------------------------------------------------------------------*/
FoamFile
{
    version     2.0;
    format      ascii;
    class       volScalarField;
    location    "0.00032";
    object      Qdot;
}
// * * * * * * * * * * * * * * * * * * * * * * * * * * * * * * * * * * * * * //

dimensions      [1 -1 -3 0 0 0 0];

internalField   nonuniform List<scalar> 
500
(
-2.45456e-27
-1.86763e-27
-1.74367e-27
-1.71994e-27
-1.7184e-27
-1.72247e-27
-1.72883e-27
-1.73704e-27
-1.74734e-27
-1.7601e-27
-1.77576e-27
-1.79476e-27
-1.8175e-27
-1.84435e-27
-1.87554e-27
-1.91118e-27
-1.9512e-27
-1.99537e-27
-2.04321e-27
-2.09408e-27
-2.14714e-27
-2.2014e-27
-2.25579e-27
-2.3092e-27
-2.36058e-27
-2.40898e-27
-2.45363e-27
-2.49396e-27
-2.52965e-27
-2.56057e-27
-2.58684e-27
-2.60871e-27
-2.62658e-27
-2.64089e-27
-2.65215e-27
-2.66086e-27
-2.66747e-27
-2.6724e-27
-2.67603e-27
-2.67865e-27
-2.68051e-27
-2.68182e-27
-2.68272e-27
-2.68333e-27
-2.68375e-27
-2.68402e-27
-2.6842e-27
-2.68432e-27
-2.6844e-27
-2.68445e-27
-2.68448e-27
-2.6845e-27
-2.68452e-27
-2.68453e-27
-2.68455e-27
-2.68456e-27
-2.68457e-27
-2.68458e-27
-2.68459e-27
-2.6846e-27
-2.68462e-27
-2.68463e-27
-2.68465e-27
-2.68466e-27
-2.68468e-27
-2.6847e-27
-2.68471e-27
-2.68473e-27
-2.68476e-27
-2.68478e-27
-2.6848e-27
-2.68483e-27
-2.68485e-27
-2.68488e-27
-2.68491e-27
-2.68494e-27
-2.68497e-27
-2.68501e-27
-2.68504e-27
-2.68508e-27
-2.68512e-27
-2.68516e-27
-2.6852e-27
-2.68525e-27
-2.68529e-27
-2.68534e-27
-2.68539e-27
-2.68544e-27
-2.6855e-27
-2.68556e-27
-2.68562e-27
-2.68568e-27
-2.68574e-27
-2.68581e-27
-2.68588e-27
-2.68595e-27
-2.68603e-27
-2.68611e-27
-2.68619e-27
-2.68627e-27
-2.68636e-27
-2.68644e-27
-2.68654e-27
-2.68663e-27
-2.68673e-27
-2.68683e-27
-2.68693e-27
-2.68704e-27
-2.68715e-27
-2.68726e-27
-2.68737e-27
-2.68749e-27
-2.68761e-27
-2.68774e-27
-2.68787e-27
-2.688e-27
-2.68813e-27
-2.68827e-27
-2.68841e-27
-2.68855e-27
-2.6887e-27
-2.68884e-27
-2.689e-27
-2.68915e-27
-2.68931e-27
-2.68946e-27
-2.68961e-27
-2.68977e-27
-2.68993e-27
-2.69009e-27
-2.69025e-27
-2.69041e-27
-2.69057e-27
-2.69073e-27
-2.69089e-27
-2.69105e-27
-2.69121e-27
-2.69137e-27
-2.69153e-27
-2.69169e-27
-2.69186e-27
-2.69204e-27
-2.69222e-27
-2.6924e-27
-2.6926e-27
-2.6928e-27
-2.693e-27
-2.69321e-27
-2.69342e-27
-2.69363e-27
-2.69384e-27
-2.69404e-27
-2.69425e-27
-2.69445e-27
-2.69464e-27
-2.69483e-27
-2.69502e-27
-2.69519e-27
-2.69536e-27
-2.69552e-27
-2.69567e-27
-2.69582e-27
-2.69596e-27
-2.69609e-27
-2.69621e-27
-2.69632e-27
-2.69642e-27
-2.69651e-27
-2.69659e-27
-2.69666e-27
-2.69672e-27
-2.69676e-27
-2.69679e-27
-2.69681e-27
-2.69681e-27
-2.6968e-27
-2.69677e-27
-2.69673e-27
-2.69667e-27
-2.69658e-27
-2.69648e-27
-2.69636e-27
-2.69622e-27
-2.69605e-27
-2.69587e-27
-2.69566e-27
-2.69542e-27
-2.69516e-27
-2.69487e-27
-2.69455e-27
-2.69421e-27
-2.69383e-27
-2.69343e-27
-2.693e-27
-2.69253e-27
-2.69203e-27
-2.69149e-27
-2.69092e-27
-2.69032e-27
-2.68968e-27
-2.689e-27
-2.68828e-27
-2.68752e-27
-2.68673e-27
-2.68589e-27
-2.68501e-27
-2.68409e-27
-2.68313e-27
-2.68212e-27
-2.68107e-27
-2.67998e-27
-2.67884e-27
-2.67765e-27
-2.67642e-27
-2.67515e-27
-2.67383e-27
-2.67246e-27
-2.67104e-27
-2.66953e-27
-2.66773e-27
-2.66469e-27
-2.65548e-27
-2.6154e-27
-2.42199e-27
-1.4747e-27
3.13761e-27
2.53619e-26
1.31231e-25
6.29651e-25
2.94833e-24
1.36055e-23
6.19954e-23
2.79031e-22
1.2405e-21
5.44712e-21
2.36235e-20
1.01185e-19
4.28044e-19
1.78848e-18
7.3816e-18
3.01003e-17
1.21301e-16
4.83296e-16
1.90485e-15
7.43266e-15
2.87419e-14
1.10297e-13
4.20784e-13
1.59943e-12
6.07384e-12
2.31182e-11
8.86067e-11
3.42723e-10
1.34345e-09
5.35438e-09
2.17437e-08
9.00433e-08
3.80054e-07
1.63238e-06
7.11854e-06
3.14365e-05
0.000140255
0.00063084
0.00285609
0.013004
0.0595304
0.27417
1.27235
5.96655
28.4706
149.613
853.153
6284.2
47151.5
410463
3.84103e+06
3.65766e+07
3.20609e+08
2.04102e+09
6.9359e+09
1.20156e+10
1.37276e+10
1.39017e+10
1.3919e+10
1.35463e+10
1.2375e+10
1.05358e+10
8.54678e+09
6.94464e+09
5.75402e+09
4.84422e+09
4.14982e+09
3.61154e+09
3.18605e+09
2.84296e+09
2.56111e+09
2.32574e+09
2.12633e+09
1.9553e+09
1.80706e+09
1.67739e+09
1.56307e+09
1.46159e+09
1.37095e+09
1.28955e+09
1.21611e+09
1.14955e+09
1.08898e+09
1.03368e+09
9.83027e+08
9.36511e+08
8.93764e+08
8.55418e+08
8.20426e+08
7.87614e+08
7.56886e+08
7.28052e+08
7.00941e+08
6.75416e+08
6.51336e+08
6.28596e+08
6.07092e+08
5.86735e+08
5.67437e+08
5.49123e+08
5.31727e+08
5.15185e+08
4.99439e+08
4.84437e+08
4.7013e+08
4.56476e+08
4.43433e+08
4.30963e+08
4.19033e+08
4.0761e+08
3.96665e+08
3.8617e+08
3.761e+08
3.66431e+08
3.57142e+08
3.48211e+08
3.39619e+08
3.3135e+08
3.23385e+08
3.15709e+08
3.08308e+08
3.01167e+08
2.94274e+08
2.87617e+08
2.81184e+08
2.74964e+08
2.68947e+08
2.63123e+08
2.57484e+08
2.5202e+08
2.46723e+08
2.41587e+08
2.36602e+08
2.31763e+08
2.27062e+08
2.22493e+08
2.18049e+08
2.13726e+08
2.09517e+08
2.05418e+08
2.01422e+08
1.97525e+08
1.93721e+08
1.90008e+08
1.86379e+08
1.82831e+08
1.79361e+08
1.75964e+08
1.72641e+08
1.69394e+08
1.6627e+08
1.62993e+08
1.59845e+08
1.56756e+08
1.53719e+08
1.50727e+08
1.47774e+08
1.44856e+08
1.41971e+08
1.39117e+08
1.36288e+08
1.33481e+08
1.307e+08
1.27939e+08
1.25197e+08
1.22472e+08
1.19764e+08
1.17071e+08
1.14392e+08
1.11727e+08
1.09076e+08
1.06439e+08
1.03814e+08
1.01204e+08
9.86075e+07
9.60263e+07
9.34609e+07
9.09121e+07
8.83811e+07
8.5869e+07
8.33768e+07
8.09063e+07
7.84584e+07
7.60347e+07
7.36365e+07
7.1265e+07
6.89217e+07
6.66078e+07
6.43246e+07
6.20734e+07
5.98554e+07
5.76717e+07
5.55233e+07
5.34115e+07
5.13373e+07
4.93016e+07
4.73055e+07
4.53499e+07
4.34359e+07
4.15642e+07
3.97358e+07
3.79516e+07
3.62124e+07
3.45189e+07
3.2872e+07
3.12722e+07
2.97202e+07
2.82164e+07
2.67613e+07
2.53552e+07
2.39982e+07
2.26904e+07
2.14318e+07
2.0222e+07
1.90608e+07
1.79476e+07
1.68822e+07
1.58633e+07
1.48904e+07
1.39623e+07
1.30782e+07
1.22368e+07
1.14369e+07
1.06773e+07
9.95674e+06
9.27378e+06
8.6271e+06
8.01533e+06
7.43691e+06
6.89083e+06
6.37553e+06
5.88969e+06
5.432e+06
5.0012e+06
4.59605e+06
4.21553e+06
3.8581e+06
3.52287e+06
3.20875e+06
2.91468e+06
2.63965e+06
2.38272e+06
2.14294e+06
1.91926e+06
1.7112e+06
1.51759e+06
1.33775e+06
1.17093e+06
1.01639e+06
873496
741114
619304
507066
403820
308994
222042
142421
69530.5
3855.35
-57184.5
-111896
-161829
-206990
-247918
-284988
-318606
-349228
-376184
-402500
-426079
-448557
-469361
-493013
-514875
-533444
)
;

boundaryField
{
    boundary
    {
        type            empty;
    }
    inlet
    {
        type            calculated;
        value           uniform 0;
    }
    outlet
    {
        type            calculated;
        value           uniform 0;
    }
}


// ************************************************************************* //
