/*--------------------------------*- C++ -*----------------------------------*\
  =========                 |
  \\      /  F ield         | OpenFOAM: The Open Source CFD Toolbox
   \\    /   O peration     | Website:  https://openfoam.org
    \\  /    A nd           | Version:  7
     \\/     M anipulation  |
\*---------------------------------------------------------------------------*/
FoamFile
{
    version     2.0;
    format      ascii;
    class       volScalarField;
    location    "0.00032";
    object      rho;
}
// * * * * * * * * * * * * * * * * * * * * * * * * * * * * * * * * * * * * * //

dimensions      [1 -3 0 0 0 0 0];

internalField   nonuniform List<scalar> 
500
(
0.864843
0.864827
0.864809
0.864788
0.864764
0.864734
0.864697
0.864651
0.864594
0.864525
0.86444
0.864339
0.864219
0.864079
0.863919
0.86374
0.863543
0.863329
0.863104
0.862869
0.86263
0.862392
0.862158
0.861934
0.861723
0.861528
0.861351
0.861193
0.861055
0.860937
0.860838
0.860755
0.860688
0.860635
0.860593
0.86056
0.860535
0.860517
0.860503
0.860493
0.860486
0.860481
0.860478
0.860475
0.860474
0.860473
0.860472
0.860471
0.860471
0.860471
0.860471
0.860471
0.860471
0.86047
0.86047
0.86047
0.86047
0.86047
0.86047
0.86047
0.86047
0.86047
0.86047
0.86047
0.86047
0.86047
0.86047
0.86047
0.860469
0.860469
0.860469
0.860469
0.860469
0.860469
0.860469
0.860469
0.860469
0.860468
0.860468
0.860468
0.860468
0.860468
0.860468
0.860467
0.860467
0.860467
0.860467
0.860467
0.860466
0.860466
0.860466
0.860466
0.860465
0.860465
0.860465
0.860465
0.860464
0.860464
0.860464
0.860463
0.860463
0.860463
0.860462
0.860462
0.860462
0.860461
0.860461
0.860461
0.86046
0.86046
0.860459
0.860459
0.860458
0.860458
0.860457
0.860457
0.860456
0.860456
0.860455
0.860455
0.860454
0.860454
0.860453
0.860453
0.860452
0.860451
0.860451
0.86045
0.86045
0.860449
0.860448
0.860448
0.860447
0.860447
0.860446
0.860445
0.860445
0.860444
0.860444
0.860443
0.860442
0.860442
0.860441
0.86044
0.86044
0.860439
0.860438
0.860437
0.860437
0.860436
0.860435
0.860434
0.860433
0.860433
0.860432
0.860431
0.860431
0.86043
0.860429
0.860429
0.860428
0.860428
0.860427
0.860426
0.860426
0.860426
0.860425
0.860425
0.860424
0.860424
0.860424
0.860424
0.860424
0.860423
0.860423
0.860423
0.860423
0.860424
0.860424
0.860424
0.860424
0.860425
0.860425
0.860426
0.860426
0.860427
0.860428
0.860429
0.86043
0.860431
0.860432
0.860433
0.860435
0.860436
0.860438
0.860439
0.860441
0.860443
0.860445
0.860448
0.86045
0.860453
0.860455
0.860458
0.860461
0.860464
0.860467
0.860471
0.860474
0.860478
0.860482
0.860486
0.86049
0.860494
0.860499
0.860503
0.860508
0.860513
0.860519
0.860524
0.860529
0.860535
0.860541
0.860547
0.860553
0.860559
0.860566
0.860573
0.860579
0.860586
0.860593
0.860601
0.860608
0.860616
0.860623
0.860631
0.860639
0.860647
0.860655
0.860663
0.860672
0.86068
0.860689
0.860697
0.860706
0.860715
0.860724
0.860733
0.860742
0.860751
0.86076
0.860769
0.860778
0.860788
0.860797
0.860806
0.860816
0.860826
0.860835
0.860845
0.860855
0.860865
0.860875
0.860885
0.860895
0.860906
0.860917
0.860928
0.860938
0.860943
0.860925
0.860832
0.860499
0.859429
0.856151
0.846473
0.819435
0.753573
0.63561
0.500526
0.395265
0.326166
0.280439
0.248474
0.225689
0.209783
0.197999
0.18886
0.182272
0.17739
0.173452
0.170211
0.167483
0.165147
0.163116
0.161329
0.15974
0.158315
0.157027
0.155856
0.154786
0.153802
0.152894
0.152053
0.151271
0.150541
0.149858
0.149218
0.148616
0.148049
0.147514
0.147009
0.146544
0.146111
0.145695
0.145296
0.144913
0.144546
0.144192
0.143851
0.143523
0.143207
0.142901
0.142605
0.14232
0.142043
0.141776
0.141516
0.141264
0.14102
0.140783
0.140552
0.140328
0.14011
0.139898
0.139691
0.13949
0.139294
0.139102
0.138916
0.138734
0.138557
0.138383
0.138214
0.138049
0.137888
0.13773
0.137576
0.137426
0.137279
0.137136
0.136996
0.136859
0.136726
0.136595
0.136468
0.136344
0.136223
0.136105
0.135989
0.135877
0.135768
0.135661
0.135557
0.135456
0.135358
0.135262
0.135168
0.135077
0.134989
0.134902
0.134817
0.134735
0.134653
0.134573
0.134494
0.134418
0.134343
0.134269
0.134195
0.134122
0.134048
0.133974
0.133898
0.133822
0.133744
0.133664
0.133581
0.133496
0.133407
0.133314
0.133217
0.133115
0.133008
0.132896
0.132778
0.132654
0.132523
0.132385
0.132241
0.13209
0.131932
0.131767
0.131595
0.131416
0.13123
0.131039
0.130841
0.130638
0.130429
0.130217
0.13
0.12978
0.129558
0.129334
0.129109
0.128884
0.12866
0.128437
0.128216
0.127999
0.127785
0.127576
0.127372
0.127175
0.126983
0.1268
0.126623
0.126455
0.126296
0.126146
0.126004
0.125872
0.12575
0.125637
0.125533
0.12544
0.125355
0.12528
0.125213
0.125155
0.125106
0.125064
0.12503
0.125003
0.124983
0.12497
0.124962
0.124959
0.124961
0.124968
0.124978
0.124992
0.125009
0.125028
0.12505
0.125074
0.125099
0.125125
0.125151
0.125179
0.125206
0.125234
0.125261
0.125288
0.125314
0.12534
0.125365
0.125389
0.125412
0.125434
0.125455
0.125474
0.125493
0.125511
0.125527
0.125543
0.125557
0.12557
0.125582
0.125594
0.125604
0.125614
0.125622
0.12563
0.125637
0.125644
0.12565
0.125655
0.12566
0.125664
0.125668
0.125671
0.125674
0.125676
0.125678
0.12568
0.125681
0.125682
0.125683
)
;

boundaryField
{
    boundary
    {
        type            empty;
    }
    inlet
    {
        type            calculated;
        value           uniform 0.864854;
    }
    outlet
    {
        type            calculated;
        value           uniform 0.125683;
    }
}


// ************************************************************************* //
