/*--------------------------------*- C++ -*----------------------------------*\
  =========                 |
  \\      /  F ield         | OpenFOAM: The Open Source CFD Toolbox
   \\    /   O peration     | Website:  https://openfoam.org
    \\  /    A nd           | Version:  7
     \\/     M anipulation  |
\*---------------------------------------------------------------------------*/
FoamFile
{
    version     2.0;
    format      ascii;
    class       volScalarField;
    location    "0.00032";
    object      T;
}
// * * * * * * * * * * * * * * * * * * * * * * * * * * * * * * * * * * * * * //

dimensions      [0 0 0 1 0 0 0];

internalField   nonuniform List<scalar> 
500
(
300.004
300.009
300.016
300.023
300.031
300.042
300.055
300.07
300.09
300.114
300.144
300.179
300.221
300.269
300.325
300.387
300.456
300.53
300.608
300.69
300.773
300.857
300.938
301.016
301.09
301.158
301.22
301.275
301.324
301.365
301.4
301.429
301.452
301.471
301.486
301.497
301.506
301.512
301.517
301.52
301.523
301.525
301.526
301.527
301.527
301.528
301.528
301.528
301.528
301.528
301.528
301.528
301.528
301.528
301.528
301.528
301.528
301.528
301.528
301.528
301.528
301.528
301.528
301.528
301.528
301.528
301.528
301.528
301.529
301.529
301.529
301.529
301.529
301.529
301.529
301.529
301.529
301.529
301.529
301.529
301.529
301.529
301.529
301.529
301.529
301.529
301.529
301.529
301.529
301.53
301.53
301.53
301.53
301.53
301.53
301.53
301.53
301.53
301.53
301.53
301.531
301.531
301.531
301.531
301.531
301.531
301.531
301.531
301.532
301.532
301.532
301.532
301.532
301.532
301.532
301.533
301.533
301.533
301.533
301.533
301.533
301.534
301.534
301.534
301.534
301.534
301.535
301.535
301.535
301.535
301.535
301.536
301.536
301.536
301.536
301.536
301.537
301.537
301.537
301.537
301.537
301.538
301.538
301.538
301.538
301.539
301.539
301.539
301.539
301.54
301.54
301.54
301.54
301.541
301.541
301.541
301.541
301.542
301.542
301.542
301.542
301.542
301.543
301.543
301.543
301.543
301.543
301.543
301.543
301.543
301.543
301.544
301.544
301.544
301.544
301.544
301.544
301.544
301.543
301.543
301.543
301.543
301.543
301.543
301.542
301.542
301.542
301.542
301.541
301.541
301.54
301.54
301.539
301.539
301.538
301.538
301.537
301.536
301.536
301.535
301.534
301.533
301.532
301.531
301.53
301.529
301.528
301.527
301.525
301.524
301.523
301.521
301.52
301.518
301.517
301.515
301.513
301.511
301.51
301.508
301.506
301.504
301.502
301.5
301.497
301.495
301.493
301.491
301.488
301.486
301.483
301.481
301.478
301.475
301.473
301.47
301.467
301.464
301.461
301.459
301.456
301.453
301.45
301.447
301.444
301.44
301.437
301.434
301.431
301.428
301.425
301.421
301.418
301.415
301.411
301.408
301.405
301.401
301.398
301.395
301.391
301.388
301.384
301.381
301.377
301.374
301.37
301.368
301.366
301.37
301.387
301.441
301.605
302.078
303.436
307.322
318.315
347.852
415.708
533.535
683.741
838.677
986.503
1124.07
1246.54
1348.11
1434.06
1507.06
1565.21
1611.63
1651.31
1685.64
1715.78
1742.57
1766.63
1788.43
1808.32
1826.58
1843.42
1859.04
1873.58
1887.17
1899.89
1911.86
1923.14
1933.79
1943.87
1953.43
1962.52
1971.17
1979.4
1987.25
1994.53
2001.37
2007.98
2014.36
2020.53
2026.5
2032.27
2037.87
2043.29
2048.55
2053.66
2058.62
2063.44
2068.14
2072.7
2077.14
2081.47
2085.69
2089.81
2093.82
2097.74
2101.56
2105.3
2108.94
2112.51
2115.99
2119.4
2122.72
2125.98
2129.16
2132.28
2135.33
2138.3
2141.22
2144.07
2146.86
2149.58
2152.25
2154.85
2157.4
2159.88
2162.31
2164.68
2166.99
2169.24
2171.44
2173.58
2175.66
2177.69
2179.66
2181.58
2183.44
2185.25
2187
2188.7
2190.35
2191.95
2193.5
2195
2196.46
2197.88
2199.26
2200.61
2201.93
2203.2
2204.45
2205.67
2206.89
2208.09
2209.29
2210.49
2211.7
2212.92
2214.17
2215.46
2216.78
2218.15
2219.58
2221.07
2222.64
2224.29
2226.03
2227.88
2229.82
2231.88
2234.06
2236.37
2238.81
2241.38
2244.08
2246.93
2249.92
2253.05
2256.31
2259.71
2263.24
2266.9
2270.67
2274.56
2278.54
2282.62
2286.78
2291
2295.28
2299.6
2303.94
2308.3
2312.66
2317
2321.3
2325.56
2329.76
2333.89
2337.92
2341.86
2345.69
2349.39
2352.97
2356.4
2359.69
2362.83
2365.81
2368.63
2371.29
2373.79
2376.12
2378.29
2380.3
2382.15
2383.85
2385.41
2386.82
2388.09
2389.23
2390.25
2391.16
2391.96
2392.65
2393.25
2393.77
2394.21
2394.58
2394.88
2395.12
2395.32
2395.47
2395.58
2395.65
2395.7
2395.72
2395.73
2395.71
2395.69
2395.65
2395.6
2395.55
2395.49
2395.43
2395.38
2395.32
2395.26
2395.2
2395.15
2395.1
2395.06
2395.01
2394.98
2394.94
2394.91
2394.88
2394.86
2394.84
2394.82
2394.8
2394.79
2394.78
2394.77
2394.76
2394.76
2394.76
2394.76
2394.76
2394.76
2394.76
2394.76
2394.76
2394.77
2394.77
)
;

boundaryField
{
    boundary
    {
        type            empty;
    }
    inlet
    {
        type            fixedValue;
        value           uniform 300;
    }
    outlet
    {
        type            zeroGradient;
    }
}


// ************************************************************************* //
