/*--------------------------------*- C++ -*----------------------------------*\
  =========                 |
  \\      /  F ield         | OpenFOAM: The Open Source CFD Toolbox
   \\    /   O peration     | Website:  https://openfoam.org
    \\  /    A nd           | Version:  7
     \\/     M anipulation  |
\*---------------------------------------------------------------------------*/
FoamFile
{
    version     2.0;
    format      ascii;
    class       volVectorField;
    location    "0.00032";
    object      U;
}
// * * * * * * * * * * * * * * * * * * * * * * * * * * * * * * * * * * * * * //

dimensions      [0 1 -1 0 0 0 0];

internalField   nonuniform List<vector> 
500
(
(2.34892 0 0)
(2.34884 0 0)
(2.34875 0 0)
(2.34868 0 0)
(2.34861 0 0)
(2.34854 0 0)
(2.34849 0 0)
(2.34843 0 0)
(2.34839 0 0)
(2.34834 0 0)
(2.34831 0 0)
(2.34828 0 0)
(2.34826 0 0)
(2.34823 0 0)
(2.34821 0 0)
(2.34819 0 0)
(2.34816 0 0)
(2.34812 0 0)
(2.34807 0 0)
(2.348 0 0)
(2.34793 0 0)
(2.34784 0 0)
(2.34773 0 0)
(2.34762 0 0)
(2.34749 0 0)
(2.34736 0 0)
(2.34722 0 0)
(2.34708 0 0)
(2.34693 0 0)
(2.34679 0 0)
(2.34666 0 0)
(2.34653 0 0)
(2.3464 0 0)
(2.34628 0 0)
(2.34617 0 0)
(2.34606 0 0)
(2.34595 0 0)
(2.34586 0 0)
(2.34576 0 0)
(2.34567 0 0)
(2.34558 0 0)
(2.34549 0 0)
(2.3454 0 0)
(2.34532 0 0)
(2.34523 0 0)
(2.34515 0 0)
(2.34506 0 0)
(2.34498 0 0)
(2.3449 0 0)
(2.34481 0 0)
(2.34473 0 0)
(2.34465 0 0)
(2.34456 0 0)
(2.34448 0 0)
(2.3444 0 0)
(2.34431 0 0)
(2.34423 0 0)
(2.34415 0 0)
(2.34406 0 0)
(2.34398 0 0)
(2.3439 0 0)
(2.34381 0 0)
(2.34373 0 0)
(2.34365 0 0)
(2.34356 0 0)
(2.34348 0 0)
(2.3434 0 0)
(2.34331 0 0)
(2.34323 0 0)
(2.34315 0 0)
(2.34306 0 0)
(2.34298 0 0)
(2.34289 0 0)
(2.34281 0 0)
(2.34273 0 0)
(2.34264 0 0)
(2.34256 0 0)
(2.34247 0 0)
(2.34239 0 0)
(2.34231 0 0)
(2.34222 0 0)
(2.34214 0 0)
(2.34205 0 0)
(2.34197 0 0)
(2.34188 0 0)
(2.3418 0 0)
(2.34172 0 0)
(2.34163 0 0)
(2.34155 0 0)
(2.34146 0 0)
(2.34138 0 0)
(2.34129 0 0)
(2.34121 0 0)
(2.34112 0 0)
(2.34104 0 0)
(2.34096 0 0)
(2.34087 0 0)
(2.34079 0 0)
(2.3407 0 0)
(2.34062 0 0)
(2.34053 0 0)
(2.34045 0 0)
(2.34036 0 0)
(2.34028 0 0)
(2.34019 0 0)
(2.34011 0 0)
(2.34002 0 0)
(2.33994 0 0)
(2.33985 0 0)
(2.33977 0 0)
(2.33968 0 0)
(2.3396 0 0)
(2.33951 0 0)
(2.33943 0 0)
(2.33934 0 0)
(2.33925 0 0)
(2.33917 0 0)
(2.33908 0 0)
(2.339 0 0)
(2.33891 0 0)
(2.33883 0 0)
(2.33874 0 0)
(2.33866 0 0)
(2.33857 0 0)
(2.33848 0 0)
(2.3384 0 0)
(2.33832 0 0)
(2.33823 0 0)
(2.33814 0 0)
(2.33806 0 0)
(2.33797 0 0)
(2.33788 0 0)
(2.3378 0 0)
(2.33771 0 0)
(2.33763 0 0)
(2.33754 0 0)
(2.33746 0 0)
(2.33737 0 0)
(2.33728 0 0)
(2.3372 0 0)
(2.33711 0 0)
(2.33703 0 0)
(2.33694 0 0)
(2.33685 0 0)
(2.33677 0 0)
(2.33668 0 0)
(2.3366 0 0)
(2.33651 0 0)
(2.33642 0 0)
(2.33634 0 0)
(2.33625 0 0)
(2.33617 0 0)
(2.33608 0 0)
(2.33599 0 0)
(2.33591 0 0)
(2.33582 0 0)
(2.33573 0 0)
(2.33565 0 0)
(2.33556 0 0)
(2.33548 0 0)
(2.33539 0 0)
(2.3353 0 0)
(2.33522 0 0)
(2.33513 0 0)
(2.33504 0 0)
(2.33496 0 0)
(2.33487 0 0)
(2.33478 0 0)
(2.3347 0 0)
(2.33461 0 0)
(2.33452 0 0)
(2.33444 0 0)
(2.33435 0 0)
(2.33426 0 0)
(2.33418 0 0)
(2.33409 0 0)
(2.334 0 0)
(2.33392 0 0)
(2.33383 0 0)
(2.33374 0 0)
(2.33366 0 0)
(2.33357 0 0)
(2.33348 0 0)
(2.3334 0 0)
(2.33331 0 0)
(2.33322 0 0)
(2.33314 0 0)
(2.33305 0 0)
(2.33296 0 0)
(2.33288 0 0)
(2.33279 0 0)
(2.3327 0 0)
(2.33262 0 0)
(2.33253 0 0)
(2.33244 0 0)
(2.33235 0 0)
(2.33227 0 0)
(2.33218 0 0)
(2.33209 0 0)
(2.33201 0 0)
(2.33192 0 0)
(2.33183 0 0)
(2.33174 0 0)
(2.33166 0 0)
(2.33157 0 0)
(2.33148 0 0)
(2.3314 0 0)
(2.33131 0 0)
(2.33122 0 0)
(2.33113 0 0)
(2.33105 0 0)
(2.33096 0 0)
(2.33087 0 0)
(2.33078 0 0)
(2.3307 0 0)
(2.33061 0 0)
(2.33052 0 0)
(2.33043 0 0)
(2.33035 0 0)
(2.33026 0 0)
(2.33017 0 0)
(2.33009 0 0)
(2.33 0 0)
(2.32991 0 0)
(2.32982 0 0)
(2.32974 0 0)
(2.32965 0 0)
(2.32956 0 0)
(2.32947 0 0)
(2.32939 0 0)
(2.3293 0 0)
(2.32921 0 0)
(2.32912 0 0)
(2.32904 0 0)
(2.32895 0 0)
(2.32886 0 0)
(2.32878 0 0)
(2.32869 0 0)
(2.3286 0 0)
(2.32851 0 0)
(2.32843 0 0)
(2.32834 0 0)
(2.32825 0 0)
(2.32817 0 0)
(2.32808 0 0)
(2.32799 0 0)
(2.32791 0 0)
(2.32782 0 0)
(2.32773 0 0)
(2.32764 0 0)
(2.32755 0 0)
(2.32747 0 0)
(2.32739 0 0)
(2.3273 0 0)
(2.32721 0 0)
(2.32712 0 0)
(2.32704 0 0)
(2.32695 0 0)
(2.32686 0 0)
(2.32678 0 0)
(2.32669 0 0)
(2.3266 0 0)
(2.32652 0 0)
(2.32643 0 0)
(2.32634 0 0)
(2.32625 0 0)
(2.32617 0 0)
(2.32608 0 0)
(2.326 0 0)
(2.32592 0 0)
(2.32594 0 0)
(2.3262 0 0)
(2.32732 0 0)
(2.33108 0 0)
(2.34233 0 0)
(2.37273 0 0)
(2.4478 0 0)
(2.6233 0 0)
(3.00333 0 0)
(3.76664 0 0)
(4.88047 0 0)
(6.12046 0 0)
(7.29718 0 0)
(8.34283 0 0)
(9.24295 0 0)
(9.99479 0 0)
(10.6176 0 0)
(11.1349 0 0)
(11.553 0 0)
(11.8846 0 0)
(12.1565 0 0)
(12.3895 0 0)
(12.5936 0 0)
(12.7741 0 0)
(12.9352 0 0)
(13.0802 0 0)
(13.2118 0 0)
(13.3321 0 0)
(13.4426 0 0)
(13.5447 0 0)
(13.6394 0 0)
(13.7275 0 0)
(13.8099 0 0)
(13.887 0 0)
(13.9596 0 0)
(14.0279 0 0)
(14.0924 0 0)
(14.1534 0 0)
(14.2113 0 0)
(14.2663 0 0)
(14.3184 0 0)
(14.3681 0 0)
(14.4141 0 0)
(14.4571 0 0)
(14.4987 0 0)
(14.5389 0 0)
(14.5776 0 0)
(14.615 0 0)
(14.6511 0 0)
(14.686 0 0)
(14.7198 0 0)
(14.7526 0 0)
(14.7844 0 0)
(14.8152 0 0)
(14.8451 0 0)
(14.8741 0 0)
(14.9024 0 0)
(14.9298 0 0)
(14.9566 0 0)
(14.9826 0 0)
(15.0079 0 0)
(15.0326 0 0)
(15.0566 0 0)
(15.0801 0 0)
(15.103 0 0)
(15.1254 0 0)
(15.1472 0 0)
(15.1685 0 0)
(15.1894 0 0)
(15.2097 0 0)
(15.2297 0 0)
(15.2492 0 0)
(15.2682 0 0)
(15.2869 0 0)
(15.3052 0 0)
(15.3231 0 0)
(15.3406 0 0)
(15.3578 0 0)
(15.3747 0 0)
(15.3912 0 0)
(15.4074 0 0)
(15.4233 0 0)
(15.4389 0 0)
(15.4542 0 0)
(15.4692 0 0)
(15.4839 0 0)
(15.4984 0 0)
(15.5126 0 0)
(15.5265 0 0)
(15.5402 0 0)
(15.5537 0 0)
(15.5669 0 0)
(15.5799 0 0)
(15.5927 0 0)
(15.6053 0 0)
(15.6177 0 0)
(15.6299 0 0)
(15.6419 0 0)
(15.6537 0 0)
(15.6654 0 0)
(15.6769 0 0)
(15.6882 0 0)
(15.6994 0 0)
(15.7105 0 0)
(15.7215 0 0)
(15.7324 0 0)
(15.743 0 0)
(15.7534 0 0)
(15.7637 0 0)
(15.7739 0 0)
(15.7839 0 0)
(15.7939 0 0)
(15.8038 0 0)
(15.8136 0 0)
(15.8233 0 0)
(15.8329 0 0)
(15.8424 0 0)
(15.8518 0 0)
(15.8612 0 0)
(15.8704 0 0)
(15.8796 0 0)
(15.8887 0 0)
(15.8977 0 0)
(15.9067 0 0)
(15.9155 0 0)
(15.9242 0 0)
(15.9328 0 0)
(15.9413 0 0)
(15.9496 0 0)
(15.9579 0 0)
(15.9659 0 0)
(15.9738 0 0)
(15.9815 0 0)
(15.989 0 0)
(15.9963 0 0)
(16.0034 0 0)
(16.0103 0 0)
(16.0169 0 0)
(16.0232 0 0)
(16.0293 0 0)
(16.0351 0 0)
(16.0406 0 0)
(16.0458 0 0)
(16.0507 0 0)
(16.0553 0 0)
(16.0595 0 0)
(16.0635 0 0)
(16.0671 0 0)
(16.0704 0 0)
(16.0734 0 0)
(16.0761 0 0)
(16.0785 0 0)
(16.0806 0 0)
(16.0824 0 0)
(16.0839 0 0)
(16.0852 0 0)
(16.0863 0 0)
(16.0871 0 0)
(16.0877 0 0)
(16.0882 0 0)
(16.0884 0 0)
(16.0886 0 0)
(16.0886 0 0)
(16.0885 0 0)
(16.0883 0 0)
(16.088 0 0)
(16.0877 0 0)
(16.0873 0 0)
(16.087 0 0)
(16.0866 0 0)
(16.0862 0 0)
(16.0858 0 0)
(16.0855 0 0)
(16.0852 0 0)
(16.0849 0 0)
(16.0847 0 0)
(16.0846 0 0)
(16.0845 0 0)
(16.0845 0 0)
(16.0845 0 0)
(16.0846 0 0)
(16.0847 0 0)
(16.085 0 0)
(16.0852 0 0)
(16.0855 0 0)
(16.0859 0 0)
(16.0863 0 0)
(16.0868 0 0)
(16.0873 0 0)
(16.0878 0 0)
(16.0883 0 0)
(16.0889 0 0)
(16.0895 0 0)
(16.0901 0 0)
(16.0906 0 0)
(16.0912 0 0)
(16.0918 0 0)
(16.0924 0 0)
(16.0929 0 0)
(16.0934 0 0)
(16.094 0 0)
(16.0945 0 0)
(16.0949 0 0)
(16.0954 0 0)
(16.0958 0 0)
(16.0962 0 0)
(16.0965 0 0)
(16.0969 0 0)
(16.0972 0 0)
(16.0974 0 0)
(16.0977 0 0)
(16.0979 0 0)
(16.0981 0 0)
(16.0982 0 0)
(16.0984 0 0)
(16.0985 0 0)
(16.0985 0 0)
(16.0986 0 0)
(16.0986 0 0)
(16.0986 0 0)
(16.0986 0 0)
(16.0986 0 0)
(16.0986 0 0)
(16.0985 0 0)
(16.0984 0 0)
(16.0984 0 0)
(16.0983 0 0)
(16.0982 0 0)
(16.0982 0 0)
(16.0981 0 0)
)
;

boundaryField
{
    boundary
    {
        type            empty;
    }
    inlet
    {
        type            fixedValue;
        value           uniform (2.34893 0 0);
    }
    outlet
    {
        type            zeroGradient;
    }
}


// ************************************************************************* //
