/*--------------------------------*- C++ -*----------------------------------*\
  =========                 |
  \\      /  F ield         | OpenFOAM: The Open Source CFD Toolbox
   \\    /   O peration     | Website:  https://openfoam.org
    \\  /    A nd           | Version:  7
     \\/     M anipulation  |
\*---------------------------------------------------------------------------*/
FoamFile
{
    version     2.0;
    format      ascii;
    class       volScalarField;
    location    "0.00035";
    object      O;
}
// * * * * * * * * * * * * * * * * * * * * * * * * * * * * * * * * * * * * * //

dimensions      [0 0 0 0 0 0 0];

internalField   nonuniform List<scalar> 
126
(
9.28302e-46
9.28484e-46
9.28576e-46
9.28644e-46
9.28703e-46
9.28755e-46
9.288e-46
9.28837e-46
9.28864e-46
9.28881e-46
9.28888e-46
9.28886e-46
9.28875e-46
9.28858e-46
9.28839e-46
9.28821e-46
9.28809e-46
9.28807e-46
9.2882e-46
9.28853e-46
9.28907e-46
9.28984e-46
9.29086e-46
9.29209e-46
9.29352e-46
9.2951e-46
9.29679e-46
9.29855e-46
9.30033e-46
9.30209e-46
9.30378e-46
9.30539e-46
9.3069e-46
9.30829e-46
9.30955e-46
9.3107e-46
9.31173e-46
9.31265e-46
9.31347e-46
9.3142e-46
9.31485e-46
9.31542e-46
9.31593e-46
9.31637e-46
9.31675e-46
9.31708e-46
9.31734e-46
9.31755e-46
9.3177e-46
9.31779e-46
9.31781e-46
9.31777e-46
9.31766e-46
9.31748e-46
9.31722e-46
9.31688e-46
9.31647e-46
9.31596e-46
9.31537e-46
9.31468e-46
9.3139e-46
9.31301e-46
9.31202e-46
9.31092e-46
9.30971e-46
9.30838e-46
9.30692e-46
9.30534e-46
9.30363e-46
9.30179e-46
9.29981e-46
9.29769e-46
9.29542e-46
9.293e-46
9.29042e-46
9.28769e-46
9.28479e-46
9.28173e-46
9.27853e-46
9.27527e-46
9.27253e-46
9.27347e-46
9.2956e-46
9.43468e-46
1.02094e-45
1.44033e-45
3.68066e-45
1.55241e-44
7.75125e-44
3.98731e-43
2.04654e-42
1.04137e-41
5.24636e-41
2.61591e-40
1.29071e-39
6.30111e-39
3.04324e-38
1.45389e-37
6.86996e-37
3.21031e-36
1.48341e-35
6.7771e-35
3.06087e-34
1.36651e-33
6.0298e-33
2.62945e-32
1.13306e-31
4.82421e-31
2.02929e-30
8.4327e-30
3.46149e-29
1.40347e-28
5.62032e-28
2.2229e-27
8.68301e-27
3.3497e-26
1.27625e-25
4.80255e-25
1.78503e-24
6.55389e-24
2.37732e-23
8.52082e-23
3.01836e-22
1.05695e-21
3.65949e-21
1.25281e-20
)
;

boundaryField
{
    boundary
    {
        type            empty;
    }
    inlet
    {
        type            fixedValue;
        value           nonuniform 0();
    }
    outlet
    {
        type            zeroGradient;
    }
    procBoundary3to1
    {
        type            processor;
        value           uniform 4.25234e-20;
    }
    procBoundary3to2
    {
        type            processor;
        value           uniform 9.28491e-46;
    }
}


// ************************************************************************* //
