/*--------------------------------*- C++ -*----------------------------------*\
  =========                 |
  \\      /  F ield         | OpenFOAM: The Open Source CFD Toolbox
   \\    /   O peration     | Website:  https://openfoam.org
    \\  /    A nd           | Version:  7
     \\/     M anipulation  |
\*---------------------------------------------------------------------------*/
FoamFile
{
    version     2.0;
    format      ascii;
    class       volScalarField;
    location    "0.00023";
    object      H2O2;
}
// * * * * * * * * * * * * * * * * * * * * * * * * * * * * * * * * * * * * * //

dimensions      [0 0 0 0 0 0 0];

internalField   nonuniform List<scalar> 
500
(
2.01956e-52
6.5239e-52
1.30554e-51
2.16843e-51
3.2497e-51
4.55869e-51
6.10381e-51
7.89024e-51
9.91706e-51
1.21742e-50
1.46399e-50
1.72782e-50
2.00395e-50
2.28619e-50
2.56754e-50
2.84073e-50
3.0989e-50
3.33619e-50
3.54823e-50
3.73243e-50
3.888e-50
4.01576e-50
4.11783e-50
4.19721e-50
4.25733e-50
4.3017e-50
4.33364e-50
4.35607e-50
4.37145e-50
4.38176e-50
4.38852e-50
4.39285e-50
4.39557e-50
4.39724e-50
4.39824e-50
4.39884e-50
4.39918e-50
4.39937e-50
4.39948e-50
4.39953e-50
4.39956e-50
4.39958e-50
4.39958e-50
4.39958e-50
4.39958e-50
4.39958e-50
4.39959e-50
4.39959e-50
4.39959e-50
4.39959e-50
4.3996e-50
4.3996e-50
4.39961e-50
4.39962e-50
4.39963e-50
4.39964e-50
4.39965e-50
4.39967e-50
4.39969e-50
4.39971e-50
4.39973e-50
4.39976e-50
4.39978e-50
4.39981e-50
4.39984e-50
4.39988e-50
4.39992e-50
4.39996e-50
4.4e-50
4.40005e-50
4.4001e-50
4.40016e-50
4.40022e-50
4.40028e-50
4.40034e-50
4.40042e-50
4.40049e-50
4.40057e-50
4.40065e-50
4.40074e-50
4.40083e-50
4.40093e-50
4.40103e-50
4.40114e-50
4.40125e-50
4.40137e-50
4.40149e-50
4.40162e-50
4.40175e-50
4.40189e-50
4.40203e-50
4.40218e-50
4.40234e-50
4.4025e-50
4.40267e-50
4.40285e-50
4.40303e-50
4.40321e-50
4.40341e-50
4.40361e-50
4.40381e-50
4.40403e-50
4.40425e-50
4.40447e-50
4.40471e-50
4.40495e-50
4.40519e-50
4.40545e-50
4.40571e-50
4.40597e-50
4.40624e-50
4.40652e-50
4.40681e-50
4.4071e-50
4.4074e-50
4.40771e-50
4.40802e-50
4.40834e-50
4.40866e-50
4.40898e-50
4.40928e-50
4.40952e-50
4.40956e-50
4.40912e-50
4.40765e-50
4.40457e-50
4.40109e-50
4.39688e-50
4.39248e-50
4.38815e-50
4.38401e-50
4.38018e-50
4.37686e-50
4.37434e-50
4.3729e-50
4.37274e-50
4.37394e-50
4.37641e-50
4.37995e-50
4.38428e-50
4.38904e-50
4.39393e-50
4.39865e-50
4.40301e-50
4.40686e-50
4.41015e-50
4.41288e-50
4.41508e-50
4.41682e-50
4.41819e-50
4.41926e-50
4.42009e-50
4.42075e-50
4.42128e-50
4.42173e-50
4.4221e-50
4.42243e-50
4.42271e-50
4.42297e-50
4.4232e-50
4.4234e-50
4.42358e-50
4.42374e-50
4.42387e-50
4.42397e-50
4.42404e-50
4.42409e-50
4.4241e-50
4.42408e-50
4.42402e-50
4.42393e-50
4.4238e-50
4.42362e-50
4.42341e-50
4.42315e-50
4.42285e-50
4.42249e-50
4.42209e-50
4.42163e-50
4.42112e-50
4.42056e-50
4.41993e-50
4.41924e-50
4.41849e-50
4.41767e-50
4.41679e-50
4.41583e-50
4.41481e-50
4.41371e-50
4.41253e-50
4.41127e-50
4.40994e-50
4.40852e-50
4.40701e-50
4.40542e-50
4.40374e-50
4.40197e-50
4.4001e-50
4.39815e-50
4.39609e-50
4.39394e-50
4.39169e-50
4.38934e-50
4.38688e-50
4.38433e-50
4.38167e-50
4.3789e-50
4.37603e-50
4.37305e-50
4.36997e-50
4.36678e-50
4.36348e-50
4.36007e-50
4.35656e-50
4.35294e-50
4.34921e-50
4.3454e-50
4.34163e-50
4.3394e-50
4.35396e-50
4.54094e-50
6.46958e-50
2.57794e-49
2.16494e-48
2.07729e-47
2.00127e-46
1.90759e-45
1.79598e-44
1.66957e-43
1.53214e-42
1.38769e-41
1.24019e-40
1.0934e-39
9.50745e-39
8.15123e-38
6.88874e-37
5.7371e-36
4.70715e-35
3.80377e-34
3.02648e-33
2.37033e-32
1.82685e-31
1.38515e-30
1.03288e-29
7.57203e-29
5.45526e-28
3.86072e-27
2.68266e-26
1.82932e-25
1.22354e-24
8.02294e-24
5.16074e-23
3.24785e-22
2.00077e-21
1.20608e-20
7.11154e-20
4.10019e-19
2.31083e-18
1.27281e-17
6.85083e-17
3.6035e-16
1.85269e-15
9.31481e-15
4.58293e-14
2.20877e-13
1.04417e-12
4.84965e-12
2.21714e-11
9.99792e-11
4.4562e-10
1.96706e-09
8.6143e-09
3.74762e-08
1.62058e-07
6.95394e-07
2.93327e-06
1.17401e-05
3.99496e-05
9.06088e-05
0.000122621
0.000112291
6.51616e-05
2.81334e-05
1.13051e-05
5.69285e-06
4.43956e-06
4.64897e-06
5.34296e-06
5.93017e-06
6.36485e-06
6.62951e-06
6.74948e-06
6.76007e-06
6.69329e-06
6.57444e-06
6.42216e-06
6.2497e-06
6.06633e-06
5.87836e-06
5.69008e-06
5.50435e-06
5.32307e-06
5.1474e-06
4.97806e-06
4.81541e-06
4.6596e-06
4.51064e-06
4.36841e-06
4.23273e-06
4.10339e-06
3.98019e-06
3.86295e-06
3.75486e-06
3.65318e-06
3.5556e-06
3.46193e-06
3.37196e-06
3.28553e-06
3.20247e-06
3.12261e-06
3.0458e-06
2.9719e-06
2.90076e-06
2.83224e-06
2.76622e-06
2.70257e-06
2.64117e-06
2.5819e-06
2.52467e-06
2.46935e-06
2.41586e-06
2.36409e-06
2.31394e-06
2.26534e-06
2.21819e-06
2.1724e-06
2.1279e-06
2.0846e-06
2.04243e-06
2.00132e-06
1.96118e-06
1.92196e-06
1.88357e-06
1.84596e-06
1.80907e-06
1.77282e-06
1.73715e-06
1.70202e-06
1.66737e-06
1.63313e-06
1.59927e-06
1.56574e-06
1.53249e-06
1.49948e-06
1.46669e-06
1.43408e-06
1.40162e-06
1.3693e-06
1.3371e-06
1.30501e-06
1.27302e-06
1.24114e-06
1.20938e-06
1.17775e-06
1.14625e-06
1.11493e-06
1.0838e-06
1.0529e-06
1.02225e-06
9.91906e-07
9.61891e-07
9.32249e-07
9.03014e-07
8.74217e-07
8.45891e-07
8.18111e-07
7.91005e-07
7.64578e-07
7.38835e-07
7.13795e-07
6.89479e-07
6.65906e-07
6.43093e-07
6.21054e-07
5.99796e-07
5.79324e-07
5.59641e-07
5.40741e-07
5.2262e-07
5.05267e-07
4.88669e-07
4.72811e-07
4.57676e-07
4.43244e-07
4.29494e-07
4.16405e-07
4.03952e-07
3.92114e-07
3.80865e-07
3.70181e-07
3.60038e-07
3.50412e-07
3.41279e-07
3.32616e-07
3.24401e-07
3.16611e-07
3.09225e-07
3.02223e-07
2.95585e-07
2.89293e-07
2.83328e-07
2.77675e-07
2.72318e-07
2.67241e-07
2.6243e-07
2.57872e-07
2.53554e-07
2.49465e-07
2.45594e-07
2.41931e-07
2.38465e-07
2.35187e-07
2.32089e-07
2.29164e-07
2.26403e-07
2.23799e-07
2.21346e-07
2.19036e-07
2.16864e-07
2.14824e-07
2.12911e-07
2.11117e-07
2.09439e-07
2.07871e-07
2.06407e-07
2.05044e-07
2.03775e-07
2.02597e-07
2.01505e-07
2.00493e-07
1.99559e-07
1.98697e-07
1.97903e-07
1.97174e-07
1.96505e-07
1.95893e-07
1.95333e-07
1.94823e-07
1.94358e-07
1.93936e-07
1.93554e-07
1.93207e-07
1.92895e-07
1.92613e-07
1.9236e-07
1.92133e-07
1.91929e-07
1.91747e-07
1.91585e-07
1.91441e-07
1.91312e-07
1.91199e-07
1.91098e-07
1.91009e-07
1.90931e-07
1.90862e-07
1.90801e-07
1.90748e-07
1.90701e-07
1.90661e-07
1.90625e-07
1.90594e-07
1.90567e-07
1.90543e-07
1.90523e-07
1.90505e-07
1.90489e-07
1.90476e-07
1.90464e-07
1.90454e-07
1.90445e-07
1.90437e-07
1.9043e-07
1.90423e-07
1.90418e-07
1.90413e-07
1.90409e-07
1.90405e-07
1.90401e-07
1.90397e-07
1.90394e-07
1.90391e-07
1.90389e-07
1.90386e-07
1.90384e-07
1.90381e-07
1.90379e-07
1.90377e-07
1.90375e-07
1.90374e-07
)
;

boundaryField
{
    boundary
    {
        type            empty;
    }
    inlet
    {
        type            fixedValue;
        value           uniform 0;
    }
    outlet
    {
        type            zeroGradient;
    }
}


// ************************************************************************* //
