/*--------------------------------*- C++ -*----------------------------------*\
  =========                 |
  \\      /  F ield         | OpenFOAM: The Open Source CFD Toolbox
   \\    /   O peration     | Website:  https://openfoam.org
    \\  /    A nd           | Version:  7
     \\/     M anipulation  |
\*---------------------------------------------------------------------------*/
FoamFile
{
    version     2.0;
    format      ascii;
    class       volScalarField;
    location    "0.00023";
    object      O;
}
// * * * * * * * * * * * * * * * * * * * * * * * * * * * * * * * * * * * * * //

dimensions      [0 0 0 0 0 0 0];

internalField   nonuniform List<scalar> 
500
(
1.59262e-47
3.8219e-47
6.09567e-47
8.41564e-47
1.07947e-46
1.32484e-46
1.57909e-46
1.84333e-46
2.11805e-46
2.40301e-46
2.69695e-46
2.99755e-46
3.30136e-46
3.60396e-46
3.90024e-46
4.1848e-46
4.45242e-46
4.69854e-46
4.91968e-46
5.11367e-46
5.27974e-46
5.41848e-46
5.53158e-46
5.62157e-46
5.69148e-46
5.74453e-46
5.78386e-46
5.81237e-46
5.83258e-46
5.8466e-46
5.85612e-46
5.86246e-46
5.86659e-46
5.86923e-46
5.87088e-46
5.8719e-46
5.87251e-46
5.87287e-46
5.87307e-46
5.87318e-46
5.87324e-46
5.87327e-46
5.87329e-46
5.87329e-46
5.87329e-46
5.87329e-46
5.87328e-46
5.87328e-46
5.87328e-46
5.87328e-46
5.87327e-46
5.87328e-46
5.87328e-46
5.87328e-46
5.87329e-46
5.8733e-46
5.87331e-46
5.87332e-46
5.87333e-46
5.87335e-46
5.87337e-46
5.87339e-46
5.87342e-46
5.87344e-46
5.87347e-46
5.87351e-46
5.87355e-46
5.87359e-46
5.87363e-46
5.87368e-46
5.87374e-46
5.87379e-46
5.87386e-46
5.87392e-46
5.87399e-46
5.87407e-46
5.87415e-46
5.87423e-46
5.87433e-46
5.87442e-46
5.87452e-46
5.87463e-46
5.87474e-46
5.87486e-46
5.87499e-46
5.87512e-46
5.87526e-46
5.8754e-46
5.87555e-46
5.87571e-46
5.87588e-46
5.87605e-46
5.87623e-46
5.87641e-46
5.87661e-46
5.87681e-46
5.87702e-46
5.87723e-46
5.87746e-46
5.87769e-46
5.87793e-46
5.87817e-46
5.87843e-46
5.87869e-46
5.87896e-46
5.87924e-46
5.87953e-46
5.87983e-46
5.88013e-46
5.88044e-46
5.88076e-46
5.88109e-46
5.88142e-46
5.88177e-46
5.88212e-46
5.88248e-46
5.88284e-46
5.88321e-46
5.88359e-46
5.88396e-46
5.88433e-46
5.88467e-46
5.88493e-46
5.88499e-46
5.88455e-46
5.88352e-46
5.88348e-46
5.88328e-46
5.88291e-46
5.88232e-46
5.88152e-46
5.88055e-46
5.87949e-46
5.87843e-46
5.87751e-46
5.87685e-46
5.87657e-46
5.87674e-46
5.8774e-46
5.87851e-46
5.88002e-46
5.88183e-46
5.88381e-46
5.88586e-46
5.88787e-46
5.88976e-46
5.89147e-46
5.89299e-46
5.8943e-46
5.89541e-46
5.89635e-46
5.89714e-46
5.8978e-46
5.89837e-46
5.89885e-46
5.89927e-46
5.89963e-46
5.89996e-46
5.90025e-46
5.9005e-46
5.90072e-46
5.90091e-46
5.90107e-46
5.9012e-46
5.90129e-46
5.90135e-46
5.90137e-46
5.90135e-46
5.90129e-46
5.90119e-46
5.90104e-46
5.90084e-46
5.9006e-46
5.9003e-46
5.89995e-46
5.89954e-46
5.89907e-46
5.89853e-46
5.89794e-46
5.89727e-46
5.89654e-46
5.89574e-46
5.89485e-46
5.8939e-46
5.89286e-46
5.89173e-46
5.89053e-46
5.88923e-46
5.88784e-46
5.88636e-46
5.88479e-46
5.88311e-46
5.88133e-46
5.87945e-46
5.87747e-46
5.87537e-46
5.87317e-46
5.87085e-46
5.86841e-46
5.86586e-46
5.86319e-46
5.8604e-46
5.85749e-46
5.85445e-46
5.85129e-46
5.848e-46
5.84458e-46
5.84103e-46
5.83736e-46
5.83355e-46
5.82963e-46
5.82562e-46
5.82182e-46
5.82027e-46
5.8349e-46
5.96026e-46
6.831e-46
1.26618e-45
5.1141e-45
3.02168e-44
1.9216e-43
1.22518e-42
7.73973e-42
4.8348e-41
2.98505e-40
1.82112e-39
1.09762e-38
6.53423e-38
3.84127e-37
2.22945e-36
1.2772e-35
7.22041e-35
4.02717e-34
2.21548e-33
1.20187e-32
6.42776e-32
3.38815e-31
1.75977e-30
9.00377e-30
4.53685e-29
2.25078e-28
1.09912e-27
5.28172e-27
2.49698e-26
1.16105e-25
5.30856e-25
2.3861e-24
1.05411e-23
4.57589e-23
1.95152e-22
8.17519e-22
3.36812e-21
1.36108e-20
5.39908e-20
2.10283e-19
8.04216e-19
3.0205e-18
1.11432e-17
4.03927e-17
1.43926e-16
5.04396e-16
1.73984e-15
5.912e-15
1.98105e-14
6.55384e-14
2.14328e-13
6.93747e-13
2.22536e-12
7.08223e-12
2.23845e-11
7.03254e-11
2.19801e-10
6.84118e-10
2.12401e-09
6.60848e-09
2.09394e-08
7.14628e-08
3.02334e-07
1.8061e-06
1.2543e-05
6.72605e-05
0.000279623
0.00088786
0.00199563
0.00335813
0.00460357
0.00551774
0.00609602
0.00635481
0.00643212
0.00639659
0.0062948
0.00615687
0.00600137
0.00583944
0.00567755
0.00551932
0.00536666
0.00522047
0.00508107
0.00494841
0.00482228
0.00470236
0.00458828
0.00447969
0.0043762
0.00427748
0.00418319
0.00409303
0.00400674
0.00392406
0.00384481
0.00377111
0.00370138
0.00363389
0.00356849
0.00350505
0.00344345
0.0033836
0.00332539
0.00326872
0.00321352
0.00315968
0.00310715
0.00305583
0.00300566
0.00295655
0.00290846
0.0028613
0.00281501
0.00276955
0.00272484
0.00268084
0.00263749
0.00259474
0.00255255
0.00251088
0.00246969
0.00242894
0.0023886
0.00234865
0.00230905
0.00226979
0.00223084
0.00219221
0.00215387
0.00211582
0.00207807
0.00204061
0.00200345
0.00196659
0.00193006
0.00189385
0.001858
0.00182252
0.00178742
0.00175274
0.00171849
0.0016847
0.00165138
0.00161857
0.00158628
0.00155453
0.00152334
0.00149273
0.0014627
0.00143327
0.00140445
0.00137623
0.00134862
0.00132162
0.00129522
0.0012694
0.00124415
0.00121944
0.00119529
0.00117175
0.00114879
0.00112635
0.0011044
0.00108293
0.0010619
0.0010413
0.0010211
0.0010013
0.000981863
0.000962787
0.000944054
0.000925649
0.000907563
0.000889786
0.000872311
0.000855134
0.000838249
0.000821657
0.000805357
0.000789351
0.000773641
0.000758233
0.00074313
0.000728339
0.000713866
0.000699717
0.000685898
0.000672417
0.000659279
0.000646491
0.000634057
0.000621983
0.000610272
0.000598928
0.000587955
0.000577352
0.000567123
0.000557266
0.000547781
0.000538667
0.000529921
0.000521541
0.000513522
0.000505859
0.000498548
0.000491582
0.000484956
0.000478663
0.000472695
0.000467044
0.000461702
0.00045666
0.00045191
0.000447441
0.000443245
0.000439311
0.00043563
0.000432191
0.000428985
0.000426001
0.000423229
0.000420659
0.00041828
0.000416083
0.000414057
0.000412194
0.000410482
0.000408914
0.00040748
0.000406171
0.000404979
0.000403896
0.000402913
0.000402024
0.000401221
0.000400498
0.000399847
0.000399264
0.000398742
0.000398276
0.000397861
0.000397492
0.000397165
0.000396876
0.000396621
0.000396396
0.000396199
0.000396027
0.000395877
0.000395746
0.000395632
0.000395535
0.00039545
0.000395378
0.000395316
0.000395263
0.000395218
0.000395181
0.000395149
0.000395123
0.000395101
0.000395084
0.000395069
0.000395058
0.000395049
0.000395042
0.000395037
0.000395033
0.000395031
0.00039503
0.00039503
0.00039503
0.000395031
0.000395032
0.000395034
0.000395036
0.000395039
0.000395041
0.000395044
0.000395046
0.000395049
0.000395051
0.000395052
)
;

boundaryField
{
    boundary
    {
        type            empty;
    }
    inlet
    {
        type            fixedValue;
        value           uniform 0;
    }
    outlet
    {
        type            zeroGradient;
    }
}


// ************************************************************************* //
