/*--------------------------------*- C++ -*----------------------------------*\
  =========                 |
  \\      /  F ield         | OpenFOAM: The Open Source CFD Toolbox
   \\    /   O peration     | Website:  https://openfoam.org
    \\  /    A nd           | Version:  7
     \\/     M anipulation  |
\*---------------------------------------------------------------------------*/
FoamFile
{
    version     2.0;
    format      ascii;
    class       surfaceScalarField;
    location    "0.00023";
    object      phi;
}
// * * * * * * * * * * * * * * * * * * * * * * * * * * * * * * * * * * * * * //

dimensions      [1 0 -1 0 0 0 0];

internalField   nonuniform List<scalar> 
499
(
6.9283e-06
6.92759e-06
6.92685e-06
6.92604e-06
6.92512e-06
6.92407e-06
6.92283e-06
6.92139e-06
6.91971e-06
6.9178e-06
6.91566e-06
6.91331e-06
6.91078e-06
6.90813e-06
6.9054e-06
6.90267e-06
6.9e-06
6.89744e-06
6.89506e-06
6.89287e-06
6.89091e-06
6.88918e-06
6.88767e-06
6.88637e-06
6.88525e-06
6.88429e-06
6.88346e-06
6.88274e-06
6.88209e-06
6.88151e-06
6.88097e-06
6.88047e-06
6.87998e-06
6.87951e-06
6.87906e-06
6.8786e-06
6.87816e-06
6.87771e-06
6.87727e-06
6.87682e-06
6.87638e-06
6.87594e-06
6.8755e-06
6.87505e-06
6.87461e-06
6.87417e-06
6.87372e-06
6.87328e-06
6.87284e-06
6.87239e-06
6.87195e-06
6.8715e-06
6.87106e-06
6.87061e-06
6.87017e-06
6.86972e-06
6.86928e-06
6.86883e-06
6.86838e-06
6.86793e-06
6.86749e-06
6.86704e-06
6.86659e-06
6.86614e-06
6.86569e-06
6.86524e-06
6.86479e-06
6.86434e-06
6.86389e-06
6.86344e-06
6.86299e-06
6.86254e-06
6.86208e-06
6.86163e-06
6.86118e-06
6.86072e-06
6.86027e-06
6.85981e-06
6.85936e-06
6.8589e-06
6.85845e-06
6.85799e-06
6.85753e-06
6.85708e-06
6.85662e-06
6.85616e-06
6.8557e-06
6.85524e-06
6.85478e-06
6.85432e-06
6.85386e-06
6.8534e-06
6.85293e-06
6.85247e-06
6.85201e-06
6.85154e-06
6.85108e-06
6.85061e-06
6.85015e-06
6.84968e-06
6.84922e-06
6.84875e-06
6.84828e-06
6.84781e-06
6.84735e-06
6.84688e-06
6.84641e-06
6.84594e-06
6.84547e-06
6.845e-06
6.84452e-06
6.84405e-06
6.84358e-06
6.84311e-06
6.84263e-06
6.84216e-06
6.84168e-06
6.84121e-06
6.84073e-06
6.84026e-06
6.83978e-06
6.8393e-06
6.83883e-06
6.83835e-06
6.83787e-06
6.83739e-06
6.83691e-06
6.83644e-06
6.83596e-06
6.83548e-06
6.835e-06
6.83452e-06
6.83404e-06
6.83356e-06
6.83308e-06
6.83259e-06
6.83211e-06
6.83163e-06
6.83115e-06
6.83066e-06
6.83018e-06
6.82969e-06
6.82921e-06
6.82872e-06
6.82823e-06
6.82775e-06
6.82726e-06
6.82678e-06
6.82629e-06
6.8258e-06
6.82532e-06
6.82483e-06
6.82434e-06
6.82386e-06
6.82337e-06
6.82289e-06
6.8224e-06
6.82191e-06
6.82143e-06
6.82094e-06
6.82045e-06
6.81997e-06
6.81948e-06
6.819e-06
6.81851e-06
6.81802e-06
6.81754e-06
6.81705e-06
6.81657e-06
6.81608e-06
6.8156e-06
6.81512e-06
6.81463e-06
6.81415e-06
6.81367e-06
6.81318e-06
6.8127e-06
6.81222e-06
6.81174e-06
6.81126e-06
6.81078e-06
6.8103e-06
6.80982e-06
6.80934e-06
6.80886e-06
6.80839e-06
6.80791e-06
6.80744e-06
6.80696e-06
6.80649e-06
6.80602e-06
6.80554e-06
6.80507e-06
6.8046e-06
6.80413e-06
6.80367e-06
6.8032e-06
6.80273e-06
6.80227e-06
6.80181e-06
6.80134e-06
6.80088e-06
6.80042e-06
6.79996e-06
6.7995e-06
6.79905e-06
6.79859e-06
6.79814e-06
6.79768e-06
6.79723e-06
6.79678e-06
6.79633e-06
6.79589e-06
6.79544e-06
6.79499e-06
6.79455e-06
6.79411e-06
6.79367e-06
6.79323e-06
6.79279e-06
6.79235e-06
6.79191e-06
6.79148e-06
6.79104e-06
6.79061e-06
6.79018e-06
6.78975e-06
6.78932e-06
6.78889e-06
6.78847e-06
6.78804e-06
6.78761e-06
6.78719e-06
6.78677e-06
6.78634e-06
6.78592e-06
6.7855e-06
6.78508e-06
6.78466e-06
6.78425e-06
6.78383e-06
6.78341e-06
6.78299e-06
6.78258e-06
6.78216e-06
6.78175e-06
6.78133e-06
6.78092e-06
6.78051e-06
6.7801e-06
6.77968e-06
6.77927e-06
6.77886e-06
6.77845e-06
6.77804e-06
6.77764e-06
6.77723e-06
6.77682e-06
6.77642e-06
6.77601e-06
6.77561e-06
6.77521e-06
6.77481e-06
6.77441e-06
6.77401e-06
6.77361e-06
6.77321e-06
6.77281e-06
6.77242e-06
6.77203e-06
6.77167e-06
6.77135e-06
6.77121e-06
6.77155e-06
6.7733e-06
6.77908e-06
6.79574e-06
6.83687e-06
6.91015e-06
6.99075e-06
7.05065e-06
7.08905e-06
7.11427e-06
7.13172e-06
7.1438e-06
7.15142e-06
7.15686e-06
7.16157e-06
7.16555e-06
7.16863e-06
7.17111e-06
7.17316e-06
7.17489e-06
7.17637e-06
7.17765e-06
7.17878e-06
7.17977e-06
7.18065e-06
7.18145e-06
7.18216e-06
7.1828e-06
7.18338e-06
7.18391e-06
7.18438e-06
7.18482e-06
7.18522e-06
7.18559e-06
7.18592e-06
7.18623e-06
7.18652e-06
7.18679e-06
7.18704e-06
7.18726e-06
7.18747e-06
7.18768e-06
7.18789e-06
7.18809e-06
7.1883e-06
7.18851e-06
7.18873e-06
7.18897e-06
7.18922e-06
7.18949e-06
7.18979e-06
7.19012e-06
7.19047e-06
7.19087e-06
7.1913e-06
7.19178e-06
7.19231e-06
7.19288e-06
7.19351e-06
7.19419e-06
7.19493e-06
7.19572e-06
7.19657e-06
7.19747e-06
7.19843e-06
7.19943e-06
7.20048e-06
7.20156e-06
7.20267e-06
7.2038e-06
7.20493e-06
7.20606e-06
7.20716e-06
7.20821e-06
7.2092e-06
7.2101e-06
7.21088e-06
7.21152e-06
7.21198e-06
7.21223e-06
7.21224e-06
7.21196e-06
7.21137e-06
7.21042e-06
7.20907e-06
7.20729e-06
7.20503e-06
7.20226e-06
7.19893e-06
7.19502e-06
7.1905e-06
7.18533e-06
7.17949e-06
7.17297e-06
7.16575e-06
7.15782e-06
7.14919e-06
7.13986e-06
7.12984e-06
7.11916e-06
7.10783e-06
7.0959e-06
7.08339e-06
7.07035e-06
7.05684e-06
7.0429e-06
7.02861e-06
7.01402e-06
6.9992e-06
6.98421e-06
6.96914e-06
6.95405e-06
6.93901e-06
6.9241e-06
6.90938e-06
6.89492e-06
6.88079e-06
6.86703e-06
6.85372e-06
6.8409e-06
6.8286e-06
6.81689e-06
6.80578e-06
6.79531e-06
6.78549e-06
6.77636e-06
6.7679e-06
6.76015e-06
6.75308e-06
6.7467e-06
6.741e-06
6.73597e-06
6.73157e-06
6.7278e-06
6.72462e-06
6.72201e-06
6.71993e-06
6.71836e-06
6.71725e-06
6.71658e-06
6.71629e-06
6.71637e-06
6.71677e-06
6.71746e-06
6.71839e-06
6.71954e-06
6.72088e-06
6.72237e-06
6.72399e-06
6.7257e-06
6.72748e-06
6.72931e-06
6.73117e-06
6.73304e-06
6.7349e-06
6.73673e-06
6.73853e-06
6.74028e-06
6.74197e-06
6.7436e-06
6.74516e-06
6.74664e-06
6.74804e-06
6.74936e-06
6.7506e-06
6.75176e-06
6.75283e-06
6.75383e-06
6.75474e-06
6.75557e-06
6.75634e-06
6.75703e-06
6.75765e-06
6.7582e-06
6.7587e-06
6.75914e-06
6.75952e-06
6.75985e-06
6.76014e-06
6.76038e-06
6.76058e-06
6.76074e-06
6.76087e-06
6.76096e-06
6.76103e-06
6.76107e-06
6.76109e-06
6.76109e-06
6.76106e-06
6.76102e-06
6.76097e-06
6.7609e-06
6.76081e-06
6.76072e-06
6.76061e-06
6.7605e-06
6.76038e-06
6.76025e-06
6.76011e-06
6.75997e-06
6.75983e-06
6.75968e-06
6.75952e-06
6.75936e-06
6.75921e-06
6.75904e-06
6.75888e-06
6.75871e-06
6.75854e-06
6.75837e-06
6.7582e-06
6.75803e-06
6.75786e-06
6.75768e-06
6.75751e-06
6.75733e-06
6.75716e-06
6.75698e-06
6.7568e-06
6.75663e-06
6.75645e-06
6.75627e-06
6.75609e-06
6.75591e-06
6.75574e-06
6.75556e-06
)
;

boundaryField
{
    boundary
    {
        type            empty;
        value           nonuniform 0();
    }
    inlet
    {
        type            calculated;
        value           uniform -6.92896e-06;
    }
    outlet
    {
        type            calculated;
        value           uniform 6.75538e-06;
    }
}


// ************************************************************************* //
