/*--------------------------------*- C++ -*----------------------------------*\
  =========                 |
  \\      /  F ield         | OpenFOAM: The Open Source CFD Toolbox
   \\    /   O peration     | Website:  https://openfoam.org
    \\  /    A nd           | Version:  7
     \\/     M anipulation  |
\*---------------------------------------------------------------------------*/
FoamFile
{
    version     2.0;
    format      ascii;
    class       volScalarField;
    location    "0.00023";
    object      rho;
}
// * * * * * * * * * * * * * * * * * * * * * * * * * * * * * * * * * * * * * //

dimensions      [1 -3 0 0 0 0 0];

internalField   nonuniform List<scalar> 
500
(
0.864504
0.864467
0.864422
0.864366
0.864295
0.864204
0.864088
0.863946
0.863774
0.863575
0.863348
0.863099
0.862831
0.862552
0.862269
0.861989
0.861721
0.86147
0.861243
0.861041
0.860868
0.860722
0.860603
0.860508
0.860434
0.860378
0.860336
0.860305
0.860284
0.860269
0.860258
0.860251
0.860247
0.860244
0.860242
0.860241
0.86024
0.86024
0.86024
0.860239
0.860239
0.860239
0.860239
0.860239
0.860239
0.860239
0.860239
0.860239
0.860239
0.860239
0.860239
0.860239
0.860239
0.860239
0.860239
0.860239
0.860238
0.860238
0.860238
0.860238
0.860238
0.860238
0.860238
0.860238
0.860238
0.860238
0.860237
0.860237
0.860237
0.860237
0.860237
0.860237
0.860237
0.860236
0.860236
0.860236
0.860236
0.860236
0.860235
0.860235
0.860235
0.860235
0.860235
0.860234
0.860234
0.860234
0.860234
0.860233
0.860233
0.860233
0.860232
0.860232
0.860232
0.860231
0.860231
0.860231
0.86023
0.86023
0.860229
0.860229
0.860229
0.860228
0.860228
0.860227
0.860227
0.860226
0.860226
0.860225
0.860225
0.860224
0.860224
0.860223
0.860222
0.860222
0.860221
0.860221
0.86022
0.860219
0.860219
0.860218
0.860217
0.860217
0.860216
0.860215
0.860215
0.860214
0.860213
0.860213
0.860212
0.860211
0.860211
0.86021
0.86021
0.860209
0.860208
0.860208
0.860207
0.860206
0.860205
0.860204
0.860204
0.860203
0.860202
0.860201
0.8602
0.860199
0.860198
0.860197
0.860197
0.860196
0.860195
0.860194
0.860194
0.860193
0.860192
0.860192
0.860191
0.86019
0.86019
0.860189
0.860189
0.860188
0.860188
0.860188
0.860187
0.860187
0.860187
0.860186
0.860186
0.860186
0.860186
0.860186
0.860186
0.860186
0.860187
0.860187
0.860187
0.860188
0.860188
0.860189
0.86019
0.86019
0.860191
0.860192
0.860193
0.860195
0.860196
0.860197
0.860199
0.8602
0.860202
0.860204
0.860206
0.860208
0.860211
0.860213
0.860216
0.860218
0.860221
0.860224
0.860227
0.860231
0.860234
0.860238
0.860241
0.860245
0.860249
0.860254
0.860258
0.860263
0.860268
0.860273
0.860278
0.860283
0.860288
0.860294
0.8603
0.860306
0.860312
0.860318
0.860325
0.860331
0.860338
0.860345
0.860352
0.860359
0.860366
0.860374
0.860381
0.860389
0.860397
0.860405
0.860413
0.860421
0.860429
0.860438
0.860446
0.860455
0.860463
0.860472
0.860481
0.86049
0.860499
0.860508
0.860517
0.860526
0.860535
0.860544
0.860553
0.860562
0.860572
0.860581
0.860591
0.8606
0.86061
0.86062
0.860629
0.860639
0.860649
0.860659
0.860669
0.86068
0.86069
0.8607
0.860711
0.860722
0.860733
0.860745
0.860757
0.860766
0.860765
0.860721
0.860539
0.859915
0.857941
0.851962
0.834634
0.788841
0.692467
0.557465
0.43581
0.352308
0.298009
0.260911
0.234572
0.21611
0.202512
0.192113
0.184727
0.179313
0.175002
0.171491
0.168562
0.166072
0.16392
0.162035
0.160366
0.158875
0.157531
0.156312
0.155199
0.154179
0.153239
0.152369
0.151561
0.150808
0.150104
0.149445
0.148825
0.148242
0.147693
0.147174
0.146698
0.146254
0.145829
0.145421
0.145031
0.144656
0.144296
0.143951
0.143619
0.143299
0.142991
0.142695
0.14241
0.142134
0.141869
0.141614
0.141367
0.14113
0.140901
0.14068
0.140466
0.14026
0.140062
0.13987
0.139685
0.139507
0.139334
0.139167
0.139005
0.138848
0.138696
0.138547
0.138403
0.138261
0.138122
0.137985
0.13785
0.137715
0.137581
0.137446
0.13731
0.137172
0.137031
0.136886
0.136738
0.136585
0.136425
0.13626
0.136087
0.135907
0.135718
0.135521
0.135315
0.135098
0.134873
0.134637
0.134391
0.134136
0.133871
0.133596
0.133313
0.13302
0.132719
0.132411
0.1321
0.131784
0.131465
0.131143
0.13082
0.130497
0.130175
0.129855
0.129538
0.129227
0.128921
0.128622
0.128332
0.12805
0.127778
0.127517
0.127268
0.127031
0.126806
0.126594
0.126396
0.126211
0.126039
0.125882
0.125738
0.125607
0.125489
0.125384
0.125292
0.125211
0.125142
0.125083
0.125035
0.124996
0.124966
0.124944
0.12493
0.124923
0.124921
0.124926
0.124935
0.124948
0.124965
0.124985
0.125008
0.125033
0.125059
0.125087
0.125115
0.125144
0.125173
0.125202
0.125231
0.125259
0.125286
0.125313
0.125338
0.125362
0.125386
0.125408
0.125428
0.125448
0.125466
0.125483
0.125499
0.125514
0.125528
0.12554
0.125552
0.125562
0.125572
0.12558
0.125588
0.125595
0.125601
0.125607
0.125612
0.125616
0.12562
0.125624
0.125627
0.125629
0.125632
0.125634
0.125635
0.125637
0.125638
0.125639
0.12564
0.12564
0.125641
0.125641
0.125641
0.125641
0.125641
0.125641
0.125641
0.125641
0.125641
0.125641
0.12564
0.12564
0.12564
0.125639
0.125639
0.125639
0.125638
0.125638
0.125638
0.125637
0.125637
0.125636
0.125636
0.125635
0.125635
0.125635
0.125634
0.125634
0.125633
0.125633
0.125633
0.125632
0.125632
0.125632
)
;

boundaryField
{
    boundary
    {
        type            empty;
    }
    inlet
    {
        type            calculated;
        value           uniform 0.864527;
    }
    outlet
    {
        type            calculated;
        value           uniform 0.125632;
    }
}


// ************************************************************************* //
