/*--------------------------------*- C++ -*----------------------------------*\
  =========                 |
  \\      /  F ield         | OpenFOAM: The Open Source CFD Toolbox
   \\    /   O peration     | Website:  https://openfoam.org
    \\  /    A nd           | Version:  7
     \\/     M anipulation  |
\*---------------------------------------------------------------------------*/
FoamFile
{
    version     2.0;
    format      ascii;
    class       volScalarField;
    location    "0.00023";
    object      T;
}
// * * * * * * * * * * * * * * * * * * * * * * * * * * * * * * * * * * * * * //

dimensions      [0 0 0 1 0 0 0];

internalField   nonuniform List<scalar> 
500
(
300.008
300.021
300.037
300.056
300.08
300.112
300.152
300.202
300.262
300.331
300.41
300.497
300.59
300.687
300.786
300.883
300.977
301.065
301.144
301.215
301.275
301.326
301.368
301.401
301.427
301.447
301.462
301.472
301.48
301.485
301.489
301.491
301.493
301.494
301.494
301.495
301.495
301.495
301.495
301.495
301.495
301.495
301.495
301.495
301.495
301.495
301.495
301.495
301.495
301.495
301.495
301.495
301.495
301.495
301.495
301.495
301.496
301.496
301.496
301.496
301.496
301.496
301.496
301.496
301.496
301.496
301.496
301.496
301.496
301.496
301.496
301.496
301.496
301.496
301.496
301.496
301.496
301.496
301.496
301.496
301.496
301.496
301.497
301.497
301.497
301.497
301.497
301.497
301.497
301.497
301.497
301.497
301.497
301.497
301.498
301.498
301.498
301.498
301.498
301.498
301.498
301.498
301.499
301.499
301.499
301.499
301.499
301.499
301.499
301.5
301.5
301.5
301.5
301.5
301.5
301.501
301.501
301.501
301.501
301.501
301.502
301.502
301.502
301.502
301.502
301.503
301.503
301.503
301.503
301.503
301.503
301.504
301.504
301.504
301.504
301.504
301.505
301.505
301.505
301.505
301.506
301.506
301.506
301.506
301.507
301.507
301.507
301.507
301.508
301.508
301.508
301.508
301.508
301.509
301.509
301.509
301.509
301.509
301.509
301.51
301.51
301.51
301.51
301.51
301.51
301.51
301.51
301.51
301.51
301.51
301.51
301.51
301.51
301.51
301.51
301.509
301.509
301.509
301.509
301.508
301.508
301.508
301.507
301.507
301.507
301.506
301.506
301.505
301.504
301.504
301.503
301.502
301.502
301.501
301.5
301.499
301.498
301.497
301.496
301.495
301.493
301.492
301.491
301.49
301.488
301.487
301.485
301.484
301.482
301.48
301.479
301.477
301.475
301.473
301.471
301.469
301.467
301.465
301.462
301.46
301.458
301.455
301.453
301.45
301.448
301.445
301.443
301.44
301.437
301.434
301.431
301.429
301.426
301.423
301.42
301.417
301.414
301.411
301.407
301.404
301.401
301.398
301.395
301.392
301.388
301.385
301.382
301.378
301.375
301.372
301.368
301.365
301.362
301.358
301.355
301.351
301.348
301.344
301.34
301.337
301.333
301.33
301.326
301.322
301.318
301.315
301.311
301.307
301.305
301.305
301.313
301.343
301.44
301.728
302.568
304.993
311.949
331.327
379.949
476.52
616.626
772.105
923.579
1065.91
1195.41
1305.43
1399.41
1479.08
1542.11
1592.15
1634.56
1671
1702.81
1730.94
1756.1
1778.82
1799.49
1818.43
1835.86
1852
1866.99
1880.98
1894.08
1906.37
1917.95
1928.87
1939.19
1948.97
1958.26
1967.08
1975.47
1983.45
1990.84
1997.78
2004.47
2010.91
2017.12
2023.12
2028.9
2034.48
2039.88
2045.09
2050.12
2054.99
2059.69
2064.23
2068.63
2072.87
2076.97
2080.94
2084.76
2088.46
2092.03
2095.47
2098.8
2102.01
2105.1
2108.09
2110.97
2113.76
2116.45
2119.05
2121.57
2124.02
2126.39
2128.71
2130.98
2133.2
2135.39
2137.56
2139.72
2141.88
2144.06
2146.26
2148.51
2150.8
2153.17
2155.62
2158.16
2160.81
2163.58
2166.49
2169.55
2172.76
2176.14
2179.7
2183.44
2187.37
2191.49
2195.8
2200.31
2205.02
2209.91
2215
2220.28
2225.71
2231.26
2236.94
2242.75
2248.65
2254.62
2260.66
2266.74
2272.84
2278.94
2285.01
2291.04
2297
2302.88
2308.64
2314.28
2319.78
2325.11
2330.27
2335.24
2340.01
2344.57
2348.91
2353.02
2356.91
2360.57
2364
2367.2
2370.17
2372.92
2375.45
2377.77
2379.89
2381.81
2383.55
2385.11
2386.51
2387.76
2388.86
2389.83
2390.67
2391.41
2392.04
2392.59
2393.05
2393.44
2393.76
2394.02
2394.24
2394.41
2394.55
2394.65
2394.73
2394.79
2394.82
2394.85
2394.86
2394.86
2394.85
2394.84
2394.83
2394.81
2394.79
2394.77
2394.76
2394.74
2394.72
2394.71
2394.69
2394.68
2394.67
2394.67
2394.66
2394.66
2394.66
2394.65
2394.65
2394.66
2394.66
2394.66
2394.67
2394.67
2394.68
2394.69
2394.69
2394.7
2394.71
2394.72
2394.72
2394.73
2394.74
2394.75
2394.76
2394.77
2394.78
2394.78
2394.79
2394.8
2394.81
2394.82
2394.83
2394.84
2394.84
2394.85
2394.86
2394.87
2394.88
2394.89
2394.89
2394.9
2394.91
2394.92
2394.92
2394.93
2394.94
2394.95
2394.95
2394.96
2394.97
2394.98
2394.98
2394.99
2394.99
2395
2395
)
;

boundaryField
{
    boundary
    {
        type            empty;
    }
    inlet
    {
        type            fixedValue;
        value           uniform 300;
    }
    outlet
    {
        type            zeroGradient;
    }
}


// ************************************************************************* //
