/*--------------------------------*- C++ -*----------------------------------*\
  =========                 |
  \\      /  F ield         | OpenFOAM: The Open Source CFD Toolbox
   \\    /   O peration     | Website:  https://openfoam.org
    \\  /    A nd           | Version:  7
     \\/     M anipulation  |
\*---------------------------------------------------------------------------*/
FoamFile
{
    version     2.0;
    format      ascii;
    class       volVectorField;
    location    "0.00023";
    object      U;
}
// * * * * * * * * * * * * * * * * * * * * * * * * * * * * * * * * * * * * * //

dimensions      [0 1 -1 0 0 0 0];

internalField   nonuniform List<vector> 
500
(
(2.34891 0 0)
(2.34879 0 0)
(2.34864 0 0)
(2.34852 0 0)
(2.34842 0 0)
(2.34834 0 0)
(2.34827 0 0)
(2.34821 0 0)
(2.34815 0 0)
(2.34808 0 0)
(2.34801 0 0)
(2.34792 0 0)
(2.34782 0 0)
(2.34769 0 0)
(2.34754 0 0)
(2.34737 0 0)
(2.34718 0 0)
(2.34697 0 0)
(2.34674 0 0)
(2.34651 0 0)
(2.34628 0 0)
(2.34605 0 0)
(2.34582 0 0)
(2.3456 0 0)
(2.34539 0 0)
(2.3452 0 0)
(2.34501 0 0)
(2.34483 0 0)
(2.34466 0 0)
(2.34449 0 0)
(2.34433 0 0)
(2.34417 0 0)
(2.34401 0 0)
(2.34386 0 0)
(2.34371 0 0)
(2.34356 0 0)
(2.34341 0 0)
(2.34325 0 0)
(2.3431 0 0)
(2.34295 0 0)
(2.3428 0 0)
(2.34265 0 0)
(2.3425 0 0)
(2.34235 0 0)
(2.3422 0 0)
(2.34205 0 0)
(2.3419 0 0)
(2.34175 0 0)
(2.3416 0 0)
(2.34145 0 0)
(2.34129 0 0)
(2.34114 0 0)
(2.34099 0 0)
(2.34084 0 0)
(2.34069 0 0)
(2.34054 0 0)
(2.34038 0 0)
(2.34023 0 0)
(2.34008 0 0)
(2.33993 0 0)
(2.33978 0 0)
(2.33962 0 0)
(2.33947 0 0)
(2.33932 0 0)
(2.33917 0 0)
(2.33901 0 0)
(2.33886 0 0)
(2.33871 0 0)
(2.33855 0 0)
(2.3384 0 0)
(2.33825 0 0)
(2.33809 0 0)
(2.33794 0 0)
(2.33779 0 0)
(2.33763 0 0)
(2.33748 0 0)
(2.33732 0 0)
(2.33717 0 0)
(2.33702 0 0)
(2.33686 0 0)
(2.33671 0 0)
(2.33655 0 0)
(2.3364 0 0)
(2.33624 0 0)
(2.33609 0 0)
(2.33593 0 0)
(2.33578 0 0)
(2.33562 0 0)
(2.33546 0 0)
(2.33531 0 0)
(2.33515 0 0)
(2.33499 0 0)
(2.33484 0 0)
(2.33468 0 0)
(2.33452 0 0)
(2.33437 0 0)
(2.33421 0 0)
(2.33405 0 0)
(2.3339 0 0)
(2.33374 0 0)
(2.33358 0 0)
(2.33342 0 0)
(2.33326 0 0)
(2.33311 0 0)
(2.33295 0 0)
(2.33279 0 0)
(2.33263 0 0)
(2.33247 0 0)
(2.33231 0 0)
(2.33215 0 0)
(2.332 0 0)
(2.33184 0 0)
(2.33168 0 0)
(2.33152 0 0)
(2.33136 0 0)
(2.3312 0 0)
(2.33104 0 0)
(2.33088 0 0)
(2.33072 0 0)
(2.33055 0 0)
(2.33039 0 0)
(2.33023 0 0)
(2.33007 0 0)
(2.32991 0 0)
(2.32974 0 0)
(2.32958 0 0)
(2.32943 0 0)
(2.32927 0 0)
(2.32911 0 0)
(2.32894 0 0)
(2.32878 0 0)
(2.32862 0 0)
(2.32846 0 0)
(2.3283 0 0)
(2.32814 0 0)
(2.32797 0 0)
(2.32781 0 0)
(2.32765 0 0)
(2.32749 0 0)
(2.32733 0 0)
(2.32716 0 0)
(2.327 0 0)
(2.32684 0 0)
(2.32668 0 0)
(2.32651 0 0)
(2.32635 0 0)
(2.32619 0 0)
(2.32602 0 0)
(2.32586 0 0)
(2.3257 0 0)
(2.32553 0 0)
(2.32537 0 0)
(2.3252 0 0)
(2.32504 0 0)
(2.32488 0 0)
(2.32471 0 0)
(2.32455 0 0)
(2.32439 0 0)
(2.32422 0 0)
(2.32406 0 0)
(2.32389 0 0)
(2.32373 0 0)
(2.32356 0 0)
(2.3234 0 0)
(2.32323 0 0)
(2.32307 0 0)
(2.3229 0 0)
(2.32274 0 0)
(2.32258 0 0)
(2.32241 0 0)
(2.32225 0 0)
(2.32208 0 0)
(2.32192 0 0)
(2.32175 0 0)
(2.32158 0 0)
(2.32142 0 0)
(2.32125 0 0)
(2.32109 0 0)
(2.32092 0 0)
(2.32076 0 0)
(2.32059 0 0)
(2.32043 0 0)
(2.32026 0 0)
(2.3201 0 0)
(2.31993 0 0)
(2.31976 0 0)
(2.3196 0 0)
(2.31943 0 0)
(2.31927 0 0)
(2.3191 0 0)
(2.31894 0 0)
(2.31877 0 0)
(2.3186 0 0)
(2.31844 0 0)
(2.31827 0 0)
(2.3181 0 0)
(2.31794 0 0)
(2.31777 0 0)
(2.31761 0 0)
(2.31744 0 0)
(2.31727 0 0)
(2.31711 0 0)
(2.31694 0 0)
(2.31677 0 0)
(2.31661 0 0)
(2.31644 0 0)
(2.31628 0 0)
(2.31611 0 0)
(2.31594 0 0)
(2.31578 0 0)
(2.31561 0 0)
(2.31544 0 0)
(2.31528 0 0)
(2.31511 0 0)
(2.31494 0 0)
(2.31478 0 0)
(2.31461 0 0)
(2.31444 0 0)
(2.31428 0 0)
(2.31411 0 0)
(2.31394 0 0)
(2.31378 0 0)
(2.31361 0 0)
(2.31344 0 0)
(2.31328 0 0)
(2.31311 0 0)
(2.31294 0 0)
(2.31278 0 0)
(2.31261 0 0)
(2.31244 0 0)
(2.31228 0 0)
(2.31211 0 0)
(2.31195 0 0)
(2.31178 0 0)
(2.31161 0 0)
(2.31145 0 0)
(2.31128 0 0)
(2.31111 0 0)
(2.31095 0 0)
(2.31078 0 0)
(2.31062 0 0)
(2.31045 0 0)
(2.31028 0 0)
(2.31012 0 0)
(2.30995 0 0)
(2.30979 0 0)
(2.30962 0 0)
(2.30945 0 0)
(2.30929 0 0)
(2.30912 0 0)
(2.30895 0 0)
(2.30878 0 0)
(2.30863 0 0)
(2.30847 0 0)
(2.3083 0 0)
(2.30813 0 0)
(2.30797 0 0)
(2.3078 0 0)
(2.30764 0 0)
(2.30747 0 0)
(2.30731 0 0)
(2.30714 0 0)
(2.30698 0 0)
(2.30682 0 0)
(2.30665 0 0)
(2.30649 0 0)
(2.30632 0 0)
(2.30615 0 0)
(2.30599 0 0)
(2.30584 0 0)
(2.3057 0 0)
(2.30575 0 0)
(2.30625 0 0)
(2.30834 0 0)
(2.3152 0 0)
(2.33488 0 0)
(2.38564 0 0)
(2.50714 0 0)
(2.7826 0 0)
(3.36157 0 0)
(4.3472 0 0)
(5.56195 0 0)
(6.77911 0 0)
(7.88206 0 0)
(8.84142 0 0)
(9.65356 0 0)
(10.3338 0 0)
(10.9003 0 0)
(11.3564 0 0)
(11.7157 0 0)
(12.0078 0 0)
(12.2563 0 0)
(12.4724 0 0)
(12.6625 0 0)
(12.8314 0 0)
(12.983 0 0)
(13.1201 0 0)
(13.245 0 0)
(13.3596 0 0)
(13.4653 0 0)
(13.5631 0 0)
(13.6541 0 0)
(13.7389 0 0)
(13.8184 0 0)
(13.8929 0 0)
(13.9631 0 0)
(14.0293 0 0)
(14.0919 0 0)
(14.1512 0 0)
(14.2075 0 0)
(14.2609 0 0)
(14.3116 0 0)
(14.3587 0 0)
(14.4026 0 0)
(14.445 0 0)
(14.4859 0 0)
(14.5254 0 0)
(14.5634 0 0)
(14.6001 0 0)
(14.6356 0 0)
(14.67 0 0)
(14.7032 0 0)
(14.7354 0 0)
(14.7665 0 0)
(14.7968 0 0)
(14.8261 0 0)
(14.8546 0 0)
(14.8823 0 0)
(14.9091 0 0)
(14.9353 0 0)
(14.9607 0 0)
(14.9855 0 0)
(15.0096 0 0)
(15.0331 0 0)
(15.056 0 0)
(15.0784 0 0)
(15.1002 0 0)
(15.1215 0 0)
(15.1423 0 0)
(15.1626 0 0)
(15.1825 0 0)
(15.202 0 0)
(15.2211 0 0)
(15.2398 0 0)
(15.2581 0 0)
(15.2761 0 0)
(15.2938 0 0)
(15.3111 0 0)
(15.3282 0 0)
(15.345 0 0)
(15.3615 0 0)
(15.3778 0 0)
(15.3938 0 0)
(15.4096 0 0)
(15.4252 0 0)
(15.4405 0 0)
(15.4556 0 0)
(15.4706 0 0)
(15.4853 0 0)
(15.4998 0 0)
(15.514 0 0)
(15.528 0 0)
(15.5418 0 0)
(15.5554 0 0)
(15.5686 0 0)
(15.5816 0 0)
(15.5943 0 0)
(15.6066 0 0)
(15.6186 0 0)
(15.6303 0 0)
(15.6416 0 0)
(15.6525 0 0)
(15.663 0 0)
(15.6732 0 0)
(15.6831 0 0)
(15.6925 0 0)
(15.7012 0 0)
(15.7091 0 0)
(15.7165 0 0)
(15.7236 0 0)
(15.7301 0 0)
(15.736 0 0)
(15.7413 0 0)
(15.7461 0 0)
(15.7504 0 0)
(15.7542 0 0)
(15.7575 0 0)
(15.7603 0 0)
(15.7626 0 0)
(15.7645 0 0)
(15.766 0 0)
(15.7671 0 0)
(15.7679 0 0)
(15.7684 0 0)
(15.7685 0 0)
(15.7685 0 0)
(15.7682 0 0)
(15.7677 0 0)
(15.7671 0 0)
(15.7664 0 0)
(15.7656 0 0)
(15.7647 0 0)
(15.7638 0 0)
(15.7629 0 0)
(15.762 0 0)
(15.7611 0 0)
(15.7603 0 0)
(15.7595 0 0)
(15.7589 0 0)
(15.7583 0 0)
(15.7578 0 0)
(15.7574 0 0)
(15.7572 0 0)
(15.757 0 0)
(15.7569 0 0)
(15.757 0 0)
(15.7571 0 0)
(15.7573 0 0)
(15.7576 0 0)
(15.758 0 0)
(15.7585 0 0)
(15.759 0 0)
(15.7596 0 0)
(15.7603 0 0)
(15.7609 0 0)
(15.7616 0 0)
(15.7623 0 0)
(15.7631 0 0)
(15.7638 0 0)
(15.7645 0 0)
(15.7652 0 0)
(15.7659 0 0)
(15.7666 0 0)
(15.7673 0 0)
(15.7679 0 0)
(15.7685 0 0)
(15.7691 0 0)
(15.7696 0 0)
(15.7701 0 0)
(15.7706 0 0)
(15.771 0 0)
(15.7714 0 0)
(15.7717 0 0)
(15.772 0 0)
(15.7722 0 0)
(15.7725 0 0)
(15.7726 0 0)
(15.7728 0 0)
(15.7729 0 0)
(15.773 0 0)
(15.773 0 0)
(15.773 0 0)
(15.773 0 0)
(15.7729 0 0)
(15.7729 0 0)
(15.7728 0 0)
(15.7727 0 0)
(15.7725 0 0)
(15.7724 0 0)
(15.7722 0 0)
(15.772 0 0)
(15.7718 0 0)
(15.7716 0 0)
(15.7713 0 0)
(15.7711 0 0)
(15.7708 0 0)
(15.7705 0 0)
(15.7703 0 0)
(15.77 0 0)
(15.7697 0 0)
(15.7694 0 0)
(15.7691 0 0)
(15.7688 0 0)
(15.7685 0 0)
(15.7681 0 0)
(15.7678 0 0)
(15.7675 0 0)
(15.7672 0 0)
(15.7668 0 0)
(15.7665 0 0)
(15.7661 0 0)
(15.7658 0 0)
(15.7655 0 0)
(15.7651 0 0)
(15.7648 0 0)
(15.7644 0 0)
(15.7641 0 0)
(15.7637 0 0)
(15.7634 0 0)
(15.763 0 0)
(15.7626 0 0)
(15.7623 0 0)
(15.7619 0 0)
(15.7616 0 0)
(15.7612 0 0)
(15.7608 0 0)
(15.7605 0 0)
(15.7601 0 0)
(15.7597 0 0)
(15.7592 0 0)
)
;

boundaryField
{
    boundary
    {
        type            empty;
    }
    inlet
    {
        type            fixedValue;
        value           uniform (2.34893 0 0);
    }
    outlet
    {
        type            zeroGradient;
    }
}


// ************************************************************************* //
