/*--------------------------------*- C++ -*----------------------------------*\
  =========                 |
  \\      /  F ield         | OpenFOAM: The Open Source CFD Toolbox
   \\    /   O peration     | Website:  https://openfoam.org
    \\  /    A nd           | Version:  7
     \\/     M anipulation  |
\*---------------------------------------------------------------------------*/
FoamFile
{
    version     2.0;
    format      ascii;
    class       volScalarField;
    location    "0.00076";
    object      OH;
}
// * * * * * * * * * * * * * * * * * * * * * * * * * * * * * * * * * * * * * //

dimensions      [0 0 0 0 0 0 0];

internalField   nonuniform List<scalar> 
125
(
9.38173e-48
1.82779e-47
2.43502e-47
2.84483e-47
3.1201e-47
3.30436e-47
3.42715e-47
3.50844e-47
3.56174e-47
3.59623e-47
3.61818e-47
3.63193e-47
3.64045e-47
3.64583e-47
3.64952e-47
3.65251e-47
3.65548e-47
3.65887e-47
3.66298e-47
3.66795e-47
3.6739e-47
3.68084e-47
3.68881e-47
3.69781e-47
3.70785e-47
3.71899e-47
3.73127e-47
3.74481e-47
3.75974e-47
3.77622e-47
3.79447e-47
3.81472e-47
3.83725e-47
3.86235e-47
3.89035e-47
3.92158e-47
3.95637e-47
3.99506e-47
4.03798e-47
4.08544e-47
4.1377e-47
4.19499e-47
4.25749e-47
4.32529e-47
4.39845e-47
4.47689e-47
4.56048e-47
4.64897e-47
4.742e-47
4.83914e-47
4.93984e-47
5.04344e-47
5.14924e-47
5.25643e-47
5.36418e-47
5.47163e-47
5.57789e-47
5.68211e-47
5.78347e-47
5.88121e-47
5.97467e-47
6.06326e-47
6.14651e-47
6.22408e-47
6.29574e-47
6.36136e-47
6.42096e-47
6.47462e-47
6.52253e-47
6.56496e-47
6.60222e-47
6.63468e-47
6.66274e-47
6.68679e-47
6.70725e-47
6.72453e-47
6.739e-47
6.75104e-47
6.76097e-47
6.76912e-47
6.77575e-47
6.7811e-47
6.7854e-47
6.78883e-47
6.79155e-47
6.7937e-47
6.79538e-47
6.79669e-47
6.79771e-47
6.79851e-47
6.79912e-47
6.7996e-47
6.79997e-47
6.80027e-47
6.8005e-47
6.8007e-47
6.80086e-47
6.80099e-47
6.80112e-47
6.80123e-47
6.80134e-47
6.80144e-47
6.80154e-47
6.80164e-47
6.80175e-47
6.80186e-47
6.80197e-47
6.80208e-47
6.8022e-47
6.80232e-47
6.80245e-47
6.80259e-47
6.80273e-47
6.80288e-47
6.80303e-47
6.80319e-47
6.80335e-47
6.80353e-47
6.8037e-47
6.80389e-47
6.80409e-47
6.80429e-47
6.80448e-47
6.80462e-47
6.80457e-47
)
;

boundaryField
{
    boundary
    {
        type            empty;
    }
    inlet
    {
        type            fixedValue;
        value           uniform 0;
    }
    outlet
    {
        type            zeroGradient;
    }
    procBoundary2to3
    {
        type            processor;
        value           uniform 6.8044e-47;
    }
}


// ************************************************************************* //
