/*--------------------------------*- C++ -*----------------------------------*\
  =========                 |
  \\      /  F ield         | OpenFOAM: The Open Source CFD Toolbox
   \\    /   O peration     | Website:  https://openfoam.org
    \\  /    A nd           | Version:  7
     \\/     M anipulation  |
\*---------------------------------------------------------------------------*/
FoamFile
{
    version     2.0;
    format      ascii;
    class       volScalarField;
    location    "8e-05";
    object      H2O2;
}
// * * * * * * * * * * * * * * * * * * * * * * * * * * * * * * * * * * * * * //

dimensions      [0 0 0 0 0 0 0];

internalField   nonuniform List<scalar> 
125
(
1.73684e-30
2.24384e-29
2.82081e-28
3.47901e-27
4.20705e-26
4.98401e-25
5.77928e-24
6.55318e-23
7.25908e-22
7.84692e-21
8.26824e-20
8.482e-19
8.46038e-18
8.19366e-17
7.69305e-16
6.99067e-15
6.13649e-14
5.19245e-13
4.22476e-12
3.29572e-11
2.45662e-10
1.74268e-09
1.17089e-08
7.40842e-08
4.3785e-07
2.37989e-06
1.14153e-05
4.30049e-05
9.95697e-05
0.000132607
0.000118789
6.81187e-05
2.95302e-05
1.20522e-05
6.08451e-06
4.62167e-06
4.71374e-06
5.23871e-06
5.76841e-06
6.15952e-06
6.38879e-06
6.47754e-06
6.45797e-06
6.3599e-06
6.20709e-06
6.01703e-06
5.80192e-06
5.57027e-06
5.32781e-06
5.0784e-06
4.8247e-06
4.56869e-06
4.31193e-06
4.05587e-06
3.80193e-06
3.55162e-06
3.30649e-06
3.06813e-06
2.83814e-06
2.61803e-06
2.40919e-06
2.21869e-06
2.0427e-06
1.87792e-06
1.7246e-06
1.58274e-06
1.45218e-06
1.33256e-06
1.22341e-06
1.12417e-06
1.03417e-06
9.52738e-07
8.79187e-07
8.12829e-07
7.53003e-07
6.99084e-07
6.50487e-07
6.06671e-07
5.67145e-07
5.31461e-07
4.99217e-07
4.7005e-07
4.43641e-07
4.19702e-07
3.9798e-07
3.7825e-07
3.60313e-07
3.43993e-07
3.29135e-07
3.15603e-07
3.03273e-07
2.92037e-07
2.818e-07
2.72475e-07
2.63985e-07
2.56261e-07
2.49241e-07
2.42866e-07
2.37085e-07
2.3185e-07
2.27118e-07
2.22846e-07
2.18998e-07
2.15539e-07
2.12435e-07
2.09656e-07
2.07173e-07
2.0496e-07
2.02992e-07
2.01246e-07
1.997e-07
1.98335e-07
1.97132e-07
1.96075e-07
1.95148e-07
1.94337e-07
1.93629e-07
1.93011e-07
1.92474e-07
1.92008e-07
1.91604e-07
1.91254e-07
1.90949e-07
1.90678e-07
1.90414e-07
)
;

boundaryField
{
    boundary
    {
        type            empty;
    }
    inlet
    {
        type            fixedValue;
        value           nonuniform 0();
    }
    outlet
    {
        type            zeroGradient;
    }
    procBoundary1to0
    {
        type            processor;
        value           uniform 1.90197e-07;
    }
    procBoundary1to3
    {
        type            processor;
        value           uniform 1.02377e-31;
    }
}


// ************************************************************************* //
