/*--------------------------------*- C++ -*----------------------------------*\
  =========                 |
  \\      /  F ield         | OpenFOAM: The Open Source CFD Toolbox
   \\    /   O peration     | Website:  https://openfoam.org
    \\  /    A nd           | Version:  7
     \\/     M anipulation  |
\*---------------------------------------------------------------------------*/
FoamFile
{
    version     2.0;
    format      ascii;
    class       volScalarField;
    location    "8e-05";
    object      HO2;
}
// * * * * * * * * * * * * * * * * * * * * * * * * * * * * * * * * * * * * * //

dimensions      [0 0 0 0 0 0 0];

internalField   nonuniform List<scalar> 
125
(
1.45109e-24
8.2154e-24
4.62589e-23
2.61442e-22
1.48612e-21
8.50893e-21
4.91609e-20
2.87225e-19
1.70099e-18
1.02333e-17
6.26378e-17
3.90184e-16
2.46962e-15
1.58248e-14
1.02093e-13
6.5859e-13
4.21618e-12
2.65848e-11
1.63941e-10
9.82496e-10
5.69051e-09
3.1667e-08
1.68354e-07
8.47698e-07
4.00717e-06
1.74819e-05
6.76032e-05
0.000211672
0.000440343
0.000516669
0.000452538
0.000342738
0.000244114
0.000171307
0.000119659
8.32733e-05
5.8375e-05
4.19423e-05
3.13086e-05
2.44132e-05
1.98493e-05
1.67249e-05
1.44948e-05
1.28302e-05
1.15324e-05
1.04801e-05
9.59793e-06
8.83788e-06
8.1688e-06
7.56996e-06
7.02728e-06
6.53106e-06
6.07449e-06
5.65272e-06
5.2623e-06
4.90069e-06
4.56598e-06
4.25676e-06
3.97185e-06
3.71035e-06
3.47148e-06
3.26103e-06
3.0724e-06
2.9009e-06
2.74589e-06
2.60667e-06
2.48247e-06
2.37242e-06
2.27563e-06
2.19112e-06
2.11787e-06
2.05482e-06
2.00091e-06
1.95509e-06
1.91634e-06
1.88369e-06
1.85625e-06
1.83318e-06
1.81376e-06
1.79736e-06
1.78345e-06
1.77157e-06
1.76137e-06
1.75255e-06
1.74492e-06
1.73828e-06
1.73253e-06
1.72758e-06
1.72335e-06
1.71979e-06
1.71687e-06
1.71453e-06
1.71275e-06
1.71148e-06
1.71068e-06
1.7103e-06
1.7103e-06
1.71063e-06
1.71124e-06
1.71208e-06
1.71311e-06
1.71428e-06
1.71555e-06
1.71689e-06
1.71826e-06
1.71964e-06
1.72099e-06
1.72232e-06
1.72359e-06
1.72479e-06
1.72593e-06
1.72699e-06
1.72797e-06
1.72887e-06
1.72969e-06
1.73044e-06
1.73112e-06
1.73173e-06
1.73228e-06
1.73277e-06
1.73323e-06
1.73366e-06
1.73407e-06
1.73448e-06
1.73485e-06
)
;

boundaryField
{
    boundary
    {
        type            empty;
    }
    inlet
    {
        type            fixedValue;
        value           nonuniform 0();
    }
    outlet
    {
        type            zeroGradient;
    }
    procBoundary1to0
    {
        type            processor;
        value           uniform 1.73519e-06;
    }
    procBoundary1to3
    {
        type            processor;
        value           uniform 2.48024e-25;
    }
}


// ************************************************************************* //
