/*--------------------------------*- C++ -*----------------------------------*\
  =========                 |
  \\      /  F ield         | OpenFOAM: The Open Source CFD Toolbox
   \\    /   O peration     | Website:  https://openfoam.org
    \\  /    A nd           | Version:  7
     \\/     M anipulation  |
\*---------------------------------------------------------------------------*/
FoamFile
{
    version     2.0;
    format      ascii;
    class       volScalarField;
    location    "8e-05";
    object      p;
}
// * * * * * * * * * * * * * * * * * * * * * * * * * * * * * * * * * * * * * //

dimensions      [1 -1 -2 0 0 0 0];

internalField   nonuniform List<scalar> 
125
(
102874
102874
102873
102873
102873
102872
102872
102871
102871
102870
102870
102870
102869
102869
102868
102868
102867
102867
102866
102866
102865
102865
102864
102864
102863
102863
102862
102862
102861
102859
102858
102855
102853
102850
102848
102846
102844
102843
102842
102841
102840
102839
102838
102838
102837
102837
102836
102836
102836
102835
102835
102834
102834
102834
102834
102833
102833
102833
102832
102832
102832
102832
102831
102831
102831
102831
102830
102830
102830
102830
102829
102829
102829
102829
102829
102828
102828
102828
102828
102827
102827
102827
102827
102826
102826
102826
102826
102825
102825
102825
102825
102824
102824
102824
102824
102823
102823
102823
102823
102822
102822
102822
102822
102821
102821
102821
102820
102820
102820
102820
102819
102819
102819
102818
102818
102818
102818
102817
102817
102817
102816
102816
102816
102815
102815
)
;

boundaryField
{
    boundary
    {
        type            empty;
    }
    inlet
    {
        type            zeroGradient;
    }
    outlet
    {
        type            waveTransmissive;
        gamma           1.4;
        value           nonuniform 0();
    }
    procBoundary1to0
    {
        type            processor;
        value           uniform 102815;
    }
    procBoundary1to3
    {
        type            processor;
        value           uniform 102875;
    }
}


// ************************************************************************* //
