/*--------------------------------*- C++ -*----------------------------------*\
  =========                 |
  \\      /  F ield         | OpenFOAM: The Open Source CFD Toolbox
   \\    /   O peration     | Website:  https://openfoam.org
    \\  /    A nd           | Version:  7
     \\/     M anipulation  |
\*---------------------------------------------------------------------------*/
FoamFile
{
    version     2.0;
    format      ascii;
    class       surfaceScalarField;
    location    "8e-05";
    object      phi;
}
// * * * * * * * * * * * * * * * * * * * * * * * * * * * * * * * * * * * * * //

dimensions      [1 0 -1 0 0 0 0];

internalField   nonuniform List<scalar> 
124
(
6.84312e-06
6.84022e-06
6.83726e-06
6.83424e-06
6.83117e-06
6.82804e-06
6.82485e-06
6.82162e-06
6.81832e-06
6.81498e-06
6.81158e-06
6.80812e-06
6.80461e-06
6.80105e-06
6.79744e-06
6.79377e-06
6.79004e-06
6.78627e-06
6.78244e-06
6.77855e-06
6.77462e-06
6.77069e-06
6.76699e-06
6.76432e-06
6.7652e-06
6.77639e-06
6.81179e-06
6.88411e-06
6.97229e-06
7.03379e-06
7.0631e-06
7.07506e-06
7.0798e-06
7.0816e-06
7.08221e-06
7.08249e-06
7.08284e-06
7.08341e-06
7.0842e-06
7.08515e-06
7.0861e-06
7.08688e-06
7.08725e-06
7.08697e-06
7.08573e-06
7.08318e-06
7.07894e-06
7.0726e-06
7.06373e-06
7.05193e-06
7.03682e-06
7.01812e-06
6.99558e-06
6.96909e-06
6.93863e-06
6.90428e-06
6.86626e-06
6.82487e-06
6.7805e-06
6.73361e-06
6.68473e-06
6.6374e-06
6.58906e-06
6.5402e-06
6.49127e-06
6.44272e-06
6.39497e-06
6.34842e-06
6.30341e-06
6.26026e-06
6.21922e-06
6.1805e-06
6.14427e-06
6.11066e-06
6.07974e-06
6.05154e-06
6.02605e-06
6.00325e-06
5.98306e-06
5.96538e-06
5.95009e-06
5.93706e-06
5.92613e-06
5.91714e-06
5.90992e-06
5.90429e-06
5.90009e-06
5.89713e-06
5.89526e-06
5.89432e-06
5.89415e-06
5.89463e-06
5.89561e-06
5.897e-06
5.89867e-06
5.90056e-06
5.90256e-06
5.90462e-06
5.90669e-06
5.9087e-06
5.91063e-06
5.91244e-06
5.91412e-06
5.91565e-06
5.917e-06
5.91819e-06
5.91921e-06
5.92005e-06
5.92072e-06
5.92123e-06
5.92159e-06
5.92179e-06
5.92186e-06
5.92179e-06
5.92161e-06
5.92131e-06
5.92091e-06
5.92041e-06
5.91983e-06
5.91916e-06
5.91843e-06
5.91763e-06
5.91678e-06
5.91589e-06
)
;

boundaryField
{
    boundary
    {
        type            empty;
        value           nonuniform 0();
    }
    inlet
    {
        type            calculated;
        value           nonuniform 0();
    }
    outlet
    {
        type            calculated;
        value           nonuniform 0();
    }
    procBoundary1to0
    {
        type            processor;
        value           uniform 5.91499e-06;
    }
    procBoundary1to3
    {
        type            processor;
        value           uniform -6.84595e-06;
    }
}


// ************************************************************************* //
