/*--------------------------------*- C++ -*----------------------------------*\
  =========                 |
  \\      /  F ield         | OpenFOAM: The Open Source CFD Toolbox
   \\    /   O peration     | Website:  https://openfoam.org
    \\  /    A nd           | Version:  7
     \\/     M anipulation  |
\*---------------------------------------------------------------------------*/
FoamFile
{
    version     2.0;
    format      ascii;
    class       volScalarField;
    location    "8e-05";
    object      Qdot;
}
// * * * * * * * * * * * * * * * * * * * * * * * * * * * * * * * * * * * * * //

dimensions      [1 -1 -3 0 0 0 0];

internalField   nonuniform List<scalar> 
125
(
5.89548e-15
4.189e-14
2.96472e-13
2.08553e-12
1.45569e-11
1.00647e-10
6.88162e-10
4.64579e-09
3.09224e-08
2.02656e-07
1.30622e-06
8.27215e-06
5.14322e-05
0.000313786
0.00187808
0.0110287
0.0635816
0.36033
2.01183
11.1044
65.7813
417.372
3140.72
23867.6
193556
1.70557e+06
1.56565e+07
1.39554e+08
1.02525e+09
4.53419e+09
1.01977e+10
1.31869e+10
1.36449e+10
1.36388e+10
1.34467e+10
1.25112e+10
1.08409e+10
8.98078e+09
7.33604e+09
6.02463e+09
5.01674e+09
4.24456e+09
3.64536e+09
3.17126e+09
2.78802e+09
2.47174e+09
2.2056e+09
1.97784e+09
1.78003e+09
1.60605e+09
1.45146e+09
1.31294e+09
1.18801e+09
1.07481e+09
9.71897e+08
8.78146e+08
7.92674e+08
7.14764e+08
6.43787e+08
5.7926e+08
5.20795e+08
4.69295e+08
4.23206e+08
3.81101e+08
3.42806e+08
3.08013e+08
2.76444e+08
2.47843e+08
2.21963e+08
1.9857e+08
1.77445e+08
1.58385e+08
1.41202e+08
1.25722e+08
1.11785e+08
9.92481e+07
8.79792e+07
7.78593e+07
6.87804e+07
6.06446e+07
5.33633e+07
4.68555e+07
4.10477e+07
3.5874e+07
3.12711e+07
2.71842e+07
2.35623e+07
2.03586e+07
1.7532e+07
1.50399e+07
1.28507e+07
1.09311e+07
9.25335e+06
7.78948e+06
6.51479e+06
5.40809e+06
4.45054e+06
3.62396e+06
2.91288e+06
2.30497e+06
1.78393e+06
1.34017e+06
963624
645524
378031
154129
-32289.9
-186034
-312678
-416857
-498965
-565413
-617681
-657726
-688357
-710542
-725749
-735876
-742021
-746489
-750644
-761324
-786958
-850570
-993788
)
;

boundaryField
{
    boundary
    {
        type            empty;
    }
    inlet
    {
        type            calculated;
        value           nonuniform 0();
    }
    outlet
    {
        type            calculated;
        value           nonuniform 0();
    }
    procBoundary1to0
    {
        type            processor;
        value           uniform 0;
    }
    procBoundary1to3
    {
        type            processor;
        value           uniform 0;
    }
}


// ************************************************************************* //
