/*--------------------------------*- C++ -*----------------------------------*\
  =========                 |
  \\      /  F ield         | OpenFOAM: The Open Source CFD Toolbox
   \\    /   O peration     | Website:  https://openfoam.org
    \\  /    A nd           | Version:  7
     \\/     M anipulation  |
\*---------------------------------------------------------------------------*/
FoamFile
{
    version     2.0;
    format      ascii;
    class       volScalarField;
    location    "8e-05";
    object      T;
}
// * * * * * * * * * * * * * * * * * * * * * * * * * * * * * * * * * * * * * //

dimensions      [0 0 0 1 0 0 0];

internalField   nonuniform List<scalar> 
125
(
301.13
301.126
301.122
301.118
301.114
301.11
301.106
301.102
301.097
301.093
301.088
301.083
301.078
301.073
301.068
301.063
301.058
301.052
301.047
301.042
301.038
301.042
301.072
301.204
301.708
303.502
309.561
328.389
377.953
476.865
619.167
775.927
927.965
1070.34
1199.52
1310.56
1401.63
1474.97
1534.25
1582.89
1623.54
1658.13
1688.1
1714.49
1738.11
1759.61
1779.49
1798.2
1816.11
1833.52
1850.7
1867.88
1885.24
1902.91
1920.99
1939.54
1958.58
1978.08
1998
2018.24
2038.7
2058.68
2078.29
2097.91
2117.41
2136.67
2155.58
2174.02
2191.89
2209.12
2225.6
2241.29
2256.11
2270.04
2283.05
2295.12
2306.25
2316.46
2325.76
2334.19
2341.78
2348.58
2354.63
2359.98
2364.7
2368.83
2372.42
2375.54
2378.23
2380.54
2382.51
2384.19
2385.62
2386.82
2387.84
2388.7
2389.42
2390.02
2390.53
2390.96
2391.32
2391.62
2391.88
2392.1
2392.29
2392.45
2392.59
2392.71
2392.81
2392.91
2392.99
2393.06
2393.12
2393.18
2393.23
2393.28
2393.32
2393.36
2393.4
2393.43
2393.46
2393.49
2393.53
2393.57
2393.63
)
;

boundaryField
{
    boundary
    {
        type            empty;
    }
    inlet
    {
        type            fixedValue;
        value           nonuniform 0();
    }
    outlet
    {
        type            zeroGradient;
    }
    procBoundary1to0
    {
        type            processor;
        value           uniform 2393.66;
    }
    procBoundary1to3
    {
        type            processor;
        value           uniform 301.134;
    }
}


// ************************************************************************* //
