/*--------------------------------*- C++ -*----------------------------------*\
  =========                 |
  \\      /  F ield         | OpenFOAM: The Open Source CFD Toolbox
   \\    /   O peration     | Website:  https://openfoam.org
    \\  /    A nd           | Version:  7
     \\/     M anipulation  |
\*---------------------------------------------------------------------------*/
FoamFile
{
    version     2.0;
    format      ascii;
    class       volVectorField;
    location    "8e-05";
    object      U;
}
// * * * * * * * * * * * * * * * * * * * * * * * * * * * * * * * * * * * * * //

dimensions      [0 1 -1 0 0 0 0];

internalField   nonuniform List<vector> 
125
(
(2.33434 0 0)
(2.3334 0 0)
(2.33241 0 0)
(2.33134 0 0)
(2.33026 0 0)
(2.32918 0 0)
(2.32809 0 0)
(2.32696 0 0)
(2.32582 0 0)
(2.32467 0 0)
(2.3235 0 0)
(2.3223 0 0)
(2.32108 0 0)
(2.31985 0 0)
(2.3186 0 0)
(2.31733 0 0)
(2.31605 0 0)
(2.31474 0 0)
(2.3134 0 0)
(2.31205 0 0)
(2.31069 0 0)
(2.30935 0 0)
(2.3081 0 0)
(2.30775 0 0)
(2.31121 0 0)
(2.32689 0 0)
(2.37645 0 0)
(2.50392 0 0)
(2.79463 0 0)
(3.40131 0 0)
(4.40599 0 0)
(5.61952 0 0)
(6.81874 0 0)
(7.8967 0 0)
(8.83459 0 0)
(9.63058 0 0)
(10.2841 0 0)
(10.8076 0 0)
(11.2257 0 0)
(11.5652 0 0)
(11.847 0 0)
(12.086 0 0)
(12.2922 0 0)
(12.4728 0 0)
(12.633 0 0)
(12.7765 0 0)
(12.9064 0 0)
(13.0247 0 0)
(13.1331 0 0)
(13.2329 0 0)
(13.325 0 0)
(13.41 0 0)
(13.4884 0 0)
(13.5605 0 0)
(13.6266 0 0)
(13.6866 0 0)
(13.7409 0 0)
(13.7893 0 0)
(13.832 0 0)
(13.8689 0 0)
(13.9001 0 0)
(13.9255 0 0)
(13.9463 0 0)
(13.9633 0 0)
(13.9765 0 0)
(13.9859 0 0)
(13.9919 0 0)
(13.9948 0 0)
(13.9948 0 0)
(13.9925 0 0)
(13.988 0 0)
(13.9819 0 0)
(13.9744 0 0)
(13.9658 0 0)
(13.9565 0 0)
(13.9468 0 0)
(13.937 0 0)
(13.9272 0 0)
(13.9176 0 0)
(13.9085 0 0)
(13.9 0 0)
(13.8921 0 0)
(13.885 0 0)
(13.8786 0 0)
(13.8731 0 0)
(13.8683 0 0)
(13.8643 0 0)
(13.861 0 0)
(13.8584 0 0)
(13.8564 0 0)
(13.855 0 0)
(13.854 0 0)
(13.8533 0 0)
(13.8532 0 0)
(13.8532 0 0)
(13.8533 0 0)
(13.8537 0 0)
(13.8541 0 0)
(13.8546 0 0)
(13.855 0 0)
(13.8554 0 0)
(13.8558 0 0)
(13.856 0 0)
(13.8561 0 0)
(13.8561 0 0)
(13.8559 0 0)
(13.8556 0 0)
(13.8552 0 0)
(13.8545 0 0)
(13.8538 0 0)
(13.8528 0 0)
(13.8518 0 0)
(13.8505 0 0)
(13.8492 0 0)
(13.8477 0 0)
(13.8461 0 0)
(13.8443 0 0)
(13.8425 0 0)
(13.8406 0 0)
(13.8385 0 0)
(13.8364 0 0)
(13.8342 0 0)
(13.8319 0 0)
(13.8298 0 0)
(13.8273 0 0)
)
;

boundaryField
{
    boundary
    {
        type            empty;
    }
    inlet
    {
        type            fixedValue;
        value           nonuniform 0();
    }
    outlet
    {
        type            zeroGradient;
    }
    procBoundary1to0
    {
        type            processor;
        value           uniform (13.8254 0 0);
    }
    procBoundary1to3
    {
        type            processor;
        value           uniform (2.33534 0 0);
    }
}


// ************************************************************************* //
