/*--------------------------------*- C++ -*----------------------------------*\
  =========                 |
  \\      /  F ield         | OpenFOAM: The Open Source CFD Toolbox
   \\    /   O peration     | Website:  https://openfoam.org
    \\  /    A nd           | Version:  7
     \\/     M anipulation  |
\*---------------------------------------------------------------------------*/
FoamFile
{
    version     2.0;
    format      ascii;
    class       volScalarField;
    location    "0.00095";
    object      HO2;
}
// * * * * * * * * * * * * * * * * * * * * * * * * * * * * * * * * * * * * * //

dimensions      [0 0 0 0 0 0 0];

internalField   nonuniform List<scalar> 
125
(
1.65909e-18
6.95134e-18
2.91072e-17
1.21956e-16
5.11365e-16
2.1456e-15
9.00746e-15
3.78303e-14
1.58932e-13
6.67841e-13
2.80659e-12
1.17947e-11
4.95629e-11
2.0823e-10
8.74587e-10
3.67173e-09
1.54047e-08
6.45409e-08
2.69598e-07
1.11816e-06
4.56657e-06
1.8042e-05
6.61726e-05
0.000204918
0.000434579
0.000520563
0.000455384
0.000343568
0.000244172
0.000171303
0.00011994
8.40953e-05
5.99831e-05
4.14095e-05
3.11e-05
2.4493e-05
2.01725e-05
1.72552e-05
1.52044e-05
1.36994e-05
1.25479e-05
1.16336e-05
1.08844e-05
1.02546e-05
9.71417e-06
9.24299e-06
8.82684e-06
8.45551e-06
8.12138e-06
7.81864e-06
7.54271e-06
7.28996e-06
7.05742e-06
6.84265e-06
6.64361e-06
6.45857e-06
6.28606e-06
6.12485e-06
5.97387e-06
5.83225e-06
5.69926e-06
5.57806e-06
5.46504e-06
5.35744e-06
5.25488e-06
5.15701e-06
5.0635e-06
4.97408e-06
4.88849e-06
4.80648e-06
4.72785e-06
4.65239e-06
4.57994e-06
4.51031e-06
4.44335e-06
4.37892e-06
4.31689e-06
4.25713e-06
4.19952e-06
4.14396e-06
4.09035e-06
4.03858e-06
3.98857e-06
3.94024e-06
3.8935e-06
3.84829e-06
3.80452e-06
3.76214e-06
3.72109e-06
3.68129e-06
3.64271e-06
3.60528e-06
3.56896e-06
3.5337e-06
3.49945e-06
3.46618e-06
3.43384e-06
3.4024e-06
3.37182e-06
3.34207e-06
3.31311e-06
3.28492e-06
3.25747e-06
3.23072e-06
3.20466e-06
3.17927e-06
3.1545e-06
3.13035e-06
3.1068e-06
3.08381e-06
3.06138e-06
3.03949e-06
3.01811e-06
2.99723e-06
2.97684e-06
2.95692e-06
2.93745e-06
2.91842e-06
2.89982e-06
2.88164e-06
2.86386e-06
2.84648e-06
2.82948e-06
2.81287e-06
2.79662e-06
)
;

boundaryField
{
    boundary
    {
        type            empty;
    }
    inlet
    {
        type            fixedValue;
        value           nonuniform 0();
    }
    outlet
    {
        type            zeroGradient;
    }
    procBoundary1to0
    {
        type            processor;
        value           uniform 2.78072e-06;
    }
    procBoundary1to3
    {
        type            processor;
        value           uniform 3.95399e-19;
    }
}


// ************************************************************************* //
