/*--------------------------------*- C++ -*----------------------------------*\
  =========                 |
  \\      /  F ield         | OpenFOAM: The Open Source CFD Toolbox
   \\    /   O peration     | Website:  https://openfoam.org
    \\  /    A nd           | Version:  7
     \\/     M anipulation  |
\*---------------------------------------------------------------------------*/
FoamFile
{
    version     2.0;
    format      ascii;
    class       volVectorField;
    location    "0.00095";
    object      U;
}
// * * * * * * * * * * * * * * * * * * * * * * * * * * * * * * * * * * * * * //

dimensions      [0 1 -1 0 0 0 0];

internalField   nonuniform List<vector> 
125
(
(2.35071 0 0)
(2.35071 0 0)
(2.35071 0 0)
(2.3507 0 0)
(2.3507 0 0)
(2.3507 0 0)
(2.3507 0 0)
(2.3507 0 0)
(2.35069 0 0)
(2.35069 0 0)
(2.35069 0 0)
(2.35068 0 0)
(2.35068 0 0)
(2.35067 0 0)
(2.35067 0 0)
(2.35068 0 0)
(2.35073 0 0)
(2.35094 0 0)
(2.35169 0 0)
(2.35411 0 0)
(2.36143 0 0)
(2.3818 0 0)
(2.43348 0 0)
(2.55614 0 0)
(2.83278 0 0)
(3.41302 0 0)
(4.39804 0 0)
(5.61186 0 0)
(6.82844 0 0)
(7.93119 0 0)
(8.8908 0 0)
(9.70397 0 0)
(10.3862 0 0)
(10.9543 0 0)
(11.4112 0 0)
(11.7711 0 0)
(12.0639 0 0)
(12.3128 0 0)
(12.5293 0 0)
(12.7198 0 0)
(12.8891 0 0)
(13.0409 0 0)
(13.1783 0 0)
(13.3035 0 0)
(13.4183 0 0)
(13.5242 0 0)
(13.6222 0 0)
(13.7133 0 0)
(13.7983 0 0)
(13.8779 0 0)
(13.9526 0 0)
(14.0229 0 0)
(14.0893 0 0)
(14.152 0 0)
(14.2115 0 0)
(14.268 0 0)
(14.3217 0 0)
(14.3728 0 0)
(14.4215 0 0)
(14.468 0 0)
(14.5124 0 0)
(14.5537 0 0)
(14.5924 0 0)
(14.63 0 0)
(14.6664 0 0)
(14.7015 0 0)
(14.7355 0 0)
(14.7685 0 0)
(14.8004 0 0)
(14.8314 0 0)
(14.8615 0 0)
(14.8907 0 0)
(14.9191 0 0)
(14.9467 0 0)
(14.9736 0 0)
(14.9998 0 0)
(15.0252 0 0)
(15.0501 0 0)
(15.0743 0 0)
(15.0979 0 0)
(15.1209 0 0)
(15.1434 0 0)
(15.1653 0 0)
(15.1867 0 0)
(15.2077 0 0)
(15.2282 0 0)
(15.2482 0 0)
(15.2678 0 0)
(15.287 0 0)
(15.3058 0 0)
(15.3242 0 0)
(15.3422 0 0)
(15.3599 0 0)
(15.3772 0 0)
(15.3942 0 0)
(15.4108 0 0)
(15.4271 0 0)
(15.4432 0 0)
(15.4589 0 0)
(15.4743 0 0)
(15.4895 0 0)
(15.5044 0 0)
(15.519 0 0)
(15.5334 0 0)
(15.5475 0 0)
(15.5614 0 0)
(15.575 0 0)
(15.5884 0 0)
(15.6016 0 0)
(15.6146 0 0)
(15.6274 0 0)
(15.64 0 0)
(15.6523 0 0)
(15.6645 0 0)
(15.6765 0 0)
(15.6883 0 0)
(15.7 0 0)
(15.7114 0 0)
(15.7227 0 0)
(15.7338 0 0)
(15.7448 0 0)
(15.7556 0 0)
(15.7662 0 0)
(15.7767 0 0)
(15.787 0 0)
)
;

boundaryField
{
    boundary
    {
        type            empty;
    }
    inlet
    {
        type            fixedValue;
        value           nonuniform 0();
    }
    outlet
    {
        type            zeroGradient;
    }
    procBoundary1to0
    {
        type            processor;
        value           uniform (15.7971 0 0);
    }
    procBoundary1to3
    {
        type            processor;
        value           uniform (2.35071 0 0);
    }
}


// ************************************************************************* //
