/*--------------------------------*- C++ -*----------------------------------*\
  =========                 |
  \\      /  F ield         | OpenFOAM: The Open Source CFD Toolbox
   \\    /   O peration     | Website:  https://openfoam.org
    \\  /    A nd           | Version:  7
     \\/     M anipulation  |
\*---------------------------------------------------------------------------*/
FoamFile
{
    version     2.0;
    format      ascii;
    class       volScalarField;
    location    "0.00098";
    object      H;
}
// * * * * * * * * * * * * * * * * * * * * * * * * * * * * * * * * * * * * * //

dimensions      [0 0 0 0 0 0 0];

internalField   nonuniform List<scalar> 
500
(
1.48585e-41
2.01272e-41
2.12642e-41
2.15112e-41
2.15674e-41
2.15832e-41
2.15908e-41
2.15968e-41
2.16023e-41
2.16074e-41
2.16118e-41
2.16154e-41
2.16178e-41
2.1619e-41
2.16186e-41
2.16164e-41
2.16123e-41
2.16061e-41
2.15978e-41
2.15872e-41
2.15745e-41
2.15598e-41
2.15434e-41
2.15257e-41
2.1507e-41
2.14878e-41
2.14688e-41
2.14504e-41
2.14333e-41
2.1418e-41
2.14051e-41
2.13952e-41
2.13887e-41
2.1386e-41
2.13876e-41
2.13939e-41
2.14052e-41
2.14218e-41
2.14442e-41
2.14727e-41
2.15076e-41
2.15495e-41
2.15987e-41
2.1656e-41
2.17218e-41
2.1797e-41
2.18822e-41
2.19783e-41
2.20861e-41
2.22066e-41
2.23405e-41
2.24889e-41
2.26526e-41
2.28324e-41
2.3029e-41
2.3243e-41
2.3475e-41
2.37252e-41
2.39938e-41
2.42806e-41
2.45855e-41
2.49077e-41
2.52465e-41
2.56008e-41
2.59693e-41
2.63503e-41
2.6742e-41
2.71424e-41
2.75491e-41
2.79599e-41
2.83721e-41
2.87831e-41
2.91905e-41
2.95916e-41
2.99841e-41
3.03655e-41
3.07337e-41
3.1087e-41
3.14236e-41
3.17422e-41
3.20419e-41
3.23218e-41
3.25815e-41
3.28209e-41
3.30402e-41
3.32398e-41
3.34202e-41
3.35823e-41
3.37271e-41
3.38554e-41
3.39686e-41
3.40678e-41
3.41542e-41
3.4229e-41
3.42934e-41
3.43485e-41
3.43954e-41
3.4435e-41
3.44684e-41
3.44963e-41
3.45195e-41
3.45388e-41
3.45546e-41
3.45677e-41
3.45783e-41
3.45869e-41
3.45939e-41
3.45996e-41
3.46041e-41
3.46078e-41
3.46108e-41
3.46132e-41
3.46151e-41
3.46167e-41
3.4618e-41
3.46192e-41
3.46201e-41
3.46209e-41
3.46217e-41
3.46223e-41
3.4623e-41
3.46236e-41
3.46241e-41
3.46247e-41
3.4625e-41
3.46253e-41
3.46261e-41
3.46266e-41
3.46271e-41
3.46276e-41
3.46282e-41
3.46288e-41
3.46296e-41
3.46305e-41
3.46314e-41
3.46325e-41
3.46336e-41
3.46348e-41
3.46361e-41
3.46375e-41
3.4639e-41
3.46405e-41
3.46421e-41
3.46437e-41
3.46454e-41
3.4647e-41
3.46486e-41
3.46502e-41
3.46518e-41
3.46533e-41
3.46548e-41
3.46562e-41
3.46575e-41
3.46588e-41
3.466e-41
3.46612e-41
3.46624e-41
3.46636e-41
3.46648e-41
3.4666e-41
3.46672e-41
3.46686e-41
3.46699e-41
3.46714e-41
3.46729e-41
3.46745e-41
3.46762e-41
3.46779e-41
3.46797e-41
3.46816e-41
3.46835e-41
3.46855e-41
3.46875e-41
3.46896e-41
3.46917e-41
3.46939e-41
3.46961e-41
3.46983e-41
3.47005e-41
3.47028e-41
3.47051e-41
3.47074e-41
3.47097e-41
3.4712e-41
3.47144e-41
3.47168e-41
3.47192e-41
3.47216e-41
3.47241e-41
3.47265e-41
3.4729e-41
3.47314e-41
3.47339e-41
3.47364e-41
3.47389e-41
3.47413e-41
3.47438e-41
3.47462e-41
3.47486e-41
3.47509e-41
3.47533e-41
3.47555e-41
3.47578e-41
3.476e-41
3.47621e-41
3.47642e-41
3.47665e-41
3.47694e-41
3.47746e-41
3.47869e-41
3.48218e-41
3.49282e-41
3.52581e-41
3.62864e-41
3.94918e-41
4.94722e-41
8.05024e-41
1.7684e-40
4.75526e-40
1.40042e-39
4.26111e-39
1.31e-38
4.03837e-38
1.24529e-37
3.83835e-37
1.18233e-36
3.63948e-36
1.1196e-35
3.44204e-35
1.05759e-34
3.24776e-34
9.96838e-34
3.05811e-33
9.37752e-33
2.87441e-32
8.80773e-32
2.69822e-31
8.26508e-31
2.53199e-30
7.75976e-30
2.38008e-29
7.31065e-29
2.25074e-28
6.9542e-28
2.16021e-27
6.76322e-27
2.14131e-26
6.88617e-26
2.26145e-25
7.63025e-25
2.66091e-24
9.69012e-24
3.65901e-23
1.43497e-22
5.83167e-22
2.44361e-21
1.04965e-20
4.59701e-20
2.04378e-19
9.19598e-19
4.18075e-18
1.9201e-17
8.92077e-17
4.20565e-16
2.02198e-15
9.98159e-15
5.10065e-14
2.71981e-13
1.60644e-12
1.15074e-11
1.05244e-10
1.00924e-09
9.43018e-09
8.77645e-08
7.76679e-07
6.01951e-06
3.56542e-05
0.000137103
0.000336993
0.000623115
0.000970903
0.00132908
0.00162672
0.00181974
0.00191248
0.00192393
0.00188788
0.00182636
0.00175351
0.00167763
0.00160325
0.00153258
0.00146656
0.00140541
0.00134898
0.00129695
0.00124895
0.00120458
0.00116349
0.00112534
0.00108982
0.00105668
0.00102567
0.000996598
0.000969274
0.000943542
0.000919263
0.000896313
0.000874583
0.000853975
0.000834402
0.000815787
0.000798579
0.000782524
0.000767092
0.000752248
0.000737959
0.000724192
0.000710918
0.000698112
0.000685747
0.000673799
0.000662249
0.000651075
0.000640258
0.000629781
0.000619628
0.000609783
0.000600232
0.000590962
0.00058196
0.000573214
0.000564712
0.000556446
0.000548404
0.000540577
0.000532957
0.000525535
0.000518304
0.000511256
0.000504384
0.000497681
0.000491141
0.000484759
0.000478527
0.000472442
0.000466498
0.000460689
0.000455011
0.00044946
0.000444032
0.000438722
0.000433526
0.000428441
0.000423464
0.00041859
0.000413817
0.000409141
0.00040456
0.00040007
0.000395669
0.000391355
0.000387124
0.000382975
0.000378905
0.000374912
0.000370995
0.00036715
0.000363376
0.000359671
0.000356035
0.000352465
0.00034896
0.000345519
0.00034214
0.000338824
0.000335556
0.000332331
0.00032916
0.000326042
0.000322976
0.00031996
0.000316992
0.000314073
0.000311201
0.000308374
0.000305592
0.000302853
0.000300157
0.000297503
0.000294889
0.000292316
0.000289781
0.000287284
0.000284824
0.000282401
0.000280014
0.000277661
0.000275343
0.000273058
0.000270806
0.000268586
0.000266398
0.00026424
0.000262113
0.000260015
0.000257946
0.000255906
0.000253894
0.000251909
0.000249951
0.000248019
0.000246113
0.000244233
0.000242377
0.000240546
0.000238739
0.000236955
0.000235194
0.000233456
0.000231741
0.000230047
0.000228375
0.000226724
0.000225093
0.000223484
0.000221894
0.000220323
0.000218773
0.000217241
0.000215728
0.000214233
0.000212756
0.000211298
0.000209856
0.000208432
0.000207025
0.000205635
0.000204261
0.000202903
0.000201562
0.000200236
0.000198925
0.000197629
0.000196349
0.000195083
0.000193832
0.000192595
0.000191373
0.000190164
0.000188969
0.000187787
0.000186619
0.000185464
0.000184321
0.000183192
0.000182075
0.00018097
0.000179878
0.000178798
0.000177729
0.000176672
0.000175627
0.000174593
0.000173571
0.00017256
0.000171559
0.00017057
0.000169591
0.000168623
0.000167665
0.000166717
0.00016578
0.000164853
0.000163935
0.000163028
0.000162131
0.000161243
0.000160365
0.000159496
0.000158637
0.000157788
0.000156949
0.000156119
0.0001553
0.00015449
0.000153691
0.000152904
0.000152129
0.000151367
0.00015062
0.00014989
0.000149182
0.000148499
0.000147848
0.00014724
0.000146689
0.000146216
0.000145852
0.000145641
)
;

boundaryField
{
    boundary
    {
        type            empty;
    }
    inlet
    {
        type            fixedValue;
        value           uniform 0;
    }
    outlet
    {
        type            zeroGradient;
    }
}


// ************************************************************************* //
