/*--------------------------------*- C++ -*----------------------------------*\
  =========                 |
  \\      /  F ield         | OpenFOAM: The Open Source CFD Toolbox
   \\    /   O peration     | Website:  https://openfoam.org
    \\  /    A nd           | Version:  7
     \\/     M anipulation  |
\*---------------------------------------------------------------------------*/
FoamFile
{
    version     2.0;
    format      ascii;
    class       volScalarField;
    location    "0.00098";
    object      H2;
}
// * * * * * * * * * * * * * * * * * * * * * * * * * * * * * * * * * * * * * //

dimensions      [0 0 0 0 0 0 0];

internalField   nonuniform List<scalar> 
500
(
0.0285116
0.0285116
0.0285116
0.0285116
0.0285116
0.0285116
0.0285116
0.0285116
0.0285116
0.0285116
0.0285116
0.0285116
0.0285116
0.0285116
0.0285116
0.0285116
0.0285116
0.0285116
0.0285116
0.0285116
0.0285116
0.0285116
0.0285116
0.0285116
0.0285116
0.0285116
0.0285116
0.0285116
0.0285116
0.0285116
0.0285116
0.0285116
0.0285116
0.0285116
0.0285116
0.0285116
0.0285116
0.0285116
0.0285116
0.0285116
0.0285116
0.0285116
0.0285116
0.0285116
0.0285116
0.0285116
0.0285116
0.0285116
0.0285116
0.0285116
0.0285116
0.0285116
0.0285116
0.0285116
0.0285116
0.0285116
0.0285116
0.0285116
0.0285116
0.0285116
0.0285116
0.0285116
0.0285116
0.0285116
0.0285116
0.0285116
0.0285116
0.0285116
0.0285116
0.0285116
0.0285116
0.0285116
0.0285116
0.0285116
0.0285116
0.0285116
0.0285116
0.0285116
0.0285116
0.0285116
0.0285116
0.0285116
0.0285116
0.0285116
0.0285116
0.0285116
0.0285116
0.0285116
0.0285116
0.0285116
0.0285116
0.0285116
0.0285116
0.0285116
0.0285116
0.0285116
0.0285116
0.0285116
0.0285116
0.0285116
0.0285116
0.0285116
0.0285116
0.0285116
0.0285116
0.0285116
0.0285116
0.0285116
0.0285116
0.0285116
0.0285116
0.0285116
0.0285116
0.0285116
0.0285116
0.0285116
0.0285116
0.0285116
0.0285116
0.0285116
0.0285116
0.0285116
0.0285116
0.0285116
0.0285116
0.0285116
0.0285116
0.0285116
0.0285116
0.0285116
0.0285116
0.0285116
0.0285116
0.0285116
0.0285116
0.0285116
0.0285116
0.0285116
0.0285116
0.0285116
0.0285116
0.0285116
0.0285116
0.0285116
0.0285116
0.0285116
0.0285116
0.0285116
0.0285116
0.0285116
0.0285116
0.0285116
0.0285116
0.0285116
0.0285116
0.0285116
0.0285116
0.0285116
0.0285116
0.0285116
0.0285116
0.0285116
0.0285116
0.0285116
0.0285116
0.0285116
0.0285116
0.0285116
0.0285116
0.0285116
0.0285116
0.0285116
0.0285116
0.0285116
0.0285116
0.0285116
0.0285116
0.0285116
0.0285116
0.0285116
0.0285116
0.0285116
0.0285116
0.0285116
0.0285116
0.0285116
0.0285116
0.0285116
0.0285116
0.0285116
0.0285116
0.0285116
0.0285116
0.0285116
0.0285116
0.0285116
0.0285116
0.0285116
0.0285116
0.0285116
0.0285116
0.0285116
0.0285116
0.0285116
0.0285116
0.0285116
0.0285116
0.0285116
0.0285116
0.0285116
0.0285116
0.0285116
0.0285116
0.0285116
0.0285116
0.0285116
0.0285116
0.0285116
0.0285116
0.0285116
0.0285116
0.0285116
0.0285116
0.0285116
0.0285116
0.0285116
0.0285116
0.0285116
0.0285116
0.0285116
0.0285116
0.0285116
0.0285116
0.0285116
0.0285116
0.0285116
0.0285116
0.0285116
0.0285116
0.0285116
0.0285116
0.0285116
0.0285116
0.0285116
0.0285116
0.0285116
0.0285116
0.0285116
0.0285116
0.0285116
0.0285116
0.0285116
0.0285116
0.0285116
0.0285116
0.0285116
0.0285116
0.0285116
0.0285116
0.0285116
0.0285115
0.0285115
0.0285114
0.0285113
0.0285109
0.0285103
0.0285088
0.0285058
0.0284996
0.0284866
0.0284594
0.028403
0.0282863
0.0280478
0.0275759
0.0267057
0.0252724
0.0232346
0.0207485
0.017938
0.0149009
0.011897
0.00929948
0.00733976
0.00589895
0.00503809
0.00450209
0.00417216
0.00396809
0.00383916
0.00375441
0.00369537
0.00365115
0.00361543
0.00358453
0.00355638
0.00352979
0.00350412
0.00347903
0.00345433
0.00342996
0.00340588
0.00338208
0.00335858
0.00333539
0.00331253
0.00329
0.00326782
0.00324599
0.00322451
0.0032034
0.00318265
0.00316288
0.0031439
0.00312518
0.00310673
0.00308853
0.00307059
0.00305289
0.00303545
0.00301825
0.0030013
0.00298458
0.00296811
0.00295186
0.00293585
0.00292006
0.0029045
0.00288915
0.00287402
0.00285909
0.00284437
0.00282985
0.00281553
0.0028014
0.00278746
0.00277369
0.00276011
0.0027467
0.00273346
0.00272039
0.00270747
0.00269472
0.00268212
0.00266967
0.00265736
0.0026452
0.00263318
0.00262129
0.00260954
0.00259792
0.00258643
0.00257507
0.00256383
0.00255271
0.00254171
0.00253082
0.00252006
0.0025094
0.00249886
0.00248842
0.0024781
0.00246788
0.00245776
0.00244775
0.00243784
0.00242803
0.00241832
0.00240871
0.0023992
0.00238978
0.00238046
0.00237124
0.00236212
0.00235309
0.00234416
0.00233529
0.00232645
0.00231769
0.00230902
0.00230042
0.0022919
0.00228345
0.00227508
0.00226678
0.00225855
0.0022504
0.00224231
0.0022343
0.00222635
0.00221847
0.00221065
0.0022029
0.00219521
0.00218758
0.00218002
0.00217251
0.00216507
0.00215768
0.00215035
0.00214308
0.00213587
0.00212871
0.00212161
0.00211456
0.00210757
0.00210063
0.00209374
0.00208691
0.00208013
0.0020734
0.00206672
0.00206009
0.00205351
0.00204698
0.0020405
0.00203407
0.00202769
0.00202136
0.00201507
0.00200884
0.00200265
0.00199651
0.00199041
0.00198437
0.00197837
0.00197241
0.0019665
0.00196064
0.00195482
0.00194905
0.00194332
0.00193763
0.00193199
0.0019264
0.00192084
0.00191533
0.00190986
0.00190443
0.00189905
0.0018937
0.0018884
0.00188314
0.00187791
0.00187273
0.00186758
0.00186247
0.0018574
0.00185237
0.00184738
0.00184242
0.0018375
0.00183261
0.00182776
0.00182294
0.00181816
0.00181342
0.00180871
0.00180403
0.00179938
0.00179477
0.00179019
0.00178564
0.00178113
0.00177665
0.0017722
0.00176778
0.00176339
0.00175903
0.00175471
0.00175041
0.00174615
0.00174191
0.00173771
0.00173354
0.0017294
0.00172528
0.0017212
0.00171715
0.00171314
0.00170915
0.0017052
0.00170128
0.0016974
0.00169356
0.00168976
0.001686
0.00168229
0.00167864
0.00167506
0.00167156
0.00166815
0.00166487
0.00166174
0.0016588
0.0016561
0.00165372
0.00165175
0.00165028
0.00164945
)
;

boundaryField
{
    boundary
    {
        type            empty;
    }
    inlet
    {
        type            fixedValue;
        value           uniform 0.0285116;
    }
    outlet
    {
        type            zeroGradient;
    }
}


// ************************************************************************* //
