/*--------------------------------*- C++ -*----------------------------------*\
  =========                 |
  \\      /  F ield         | OpenFOAM: The Open Source CFD Toolbox
   \\    /   O peration     | Website:  https://openfoam.org
    \\  /    A nd           | Version:  7
     \\/     M anipulation  |
\*---------------------------------------------------------------------------*/
FoamFile
{
    version     2.0;
    format      ascii;
    class       volScalarField;
    location    "0.00098";
    object      H2O;
}
// * * * * * * * * * * * * * * * * * * * * * * * * * * * * * * * * * * * * * //

dimensions      [0 0 0 0 0 0 0];

internalField   nonuniform List<scalar> 
500
(
7.88293e-48
2.27805e-47
4.09891e-47
6.1439e-47
8.3407e-47
1.06406e-46
1.30106e-46
1.54285e-46
1.78792e-46
2.03522e-46
2.28404e-46
2.53386e-46
2.78431e-46
3.03509e-46
3.28598e-46
3.53678e-46
3.78735e-46
4.03756e-46
4.28734e-46
4.53663e-46
4.78544e-46
5.03381e-46
5.28183e-46
5.52963e-46
5.77739e-46
6.02533e-46
6.2737e-46
6.52278e-46
6.77284e-46
7.02421e-46
7.27717e-46
7.53204e-46
7.7891e-46
8.04867e-46
8.31104e-46
8.57651e-46
8.84541e-46
9.11808e-46
9.39491e-46
9.67632e-46
9.96281e-46
1.02549e-45
1.05533e-45
1.08587e-45
1.11718e-45
1.14936e-45
1.18251e-45
1.21671e-45
1.25208e-45
1.28873e-45
1.32675e-45
1.36627e-45
1.40736e-45
1.45012e-45
1.49462e-45
1.5409e-45
1.58901e-45
1.63893e-45
1.69065e-45
1.7441e-45
1.7992e-45
1.85581e-45
1.91377e-45
1.97288e-45
2.03292e-45
2.09362e-45
2.1547e-45
2.21586e-45
2.27678e-45
2.33714e-45
2.3966e-45
2.45486e-45
2.51159e-45
2.56651e-45
2.61936e-45
2.66991e-45
2.71795e-45
2.76332e-45
2.80591e-45
2.84562e-45
2.88242e-45
2.91631e-45
2.9473e-45
2.97548e-45
3.00092e-45
3.02375e-45
3.04411e-45
3.06214e-45
3.07801e-45
3.09189e-45
3.10396e-45
3.11438e-45
3.12333e-45
3.13096e-45
3.13743e-45
3.14288e-45
3.14745e-45
3.15125e-45
3.1544e-45
3.15699e-45
3.15911e-45
3.16083e-45
3.16223e-45
3.16336e-45
3.16426e-45
3.16498e-45
3.16556e-45
3.16602e-45
3.16638e-45
3.16666e-45
3.16689e-45
3.16707e-45
3.16722e-45
3.16734e-45
3.16744e-45
3.16752e-45
3.1676e-45
3.16766e-45
3.16772e-45
3.16777e-45
3.16781e-45
3.16783e-45
3.16774e-45
3.16727e-45
3.16541e-45
3.16197e-45
3.16203e-45
3.16209e-45
3.16215e-45
3.16221e-45
3.16228e-45
3.16235e-45
3.16243e-45
3.16251e-45
3.16259e-45
3.16268e-45
3.16278e-45
3.16288e-45
3.16299e-45
3.1631e-45
3.16322e-45
3.16334e-45
3.16347e-45
3.16361e-45
3.16374e-45
3.16389e-45
3.16404e-45
3.16419e-45
3.16434e-45
3.16451e-45
3.16467e-45
3.16485e-45
3.16503e-45
3.16523e-45
3.16544e-45
3.16567e-45
3.16592e-45
3.16618e-45
3.16648e-45
3.16679e-45
3.16713e-45
3.16749e-45
3.16788e-45
3.16829e-45
3.16873e-45
3.16917e-45
3.16964e-45
3.17011e-45
3.17059e-45
3.17106e-45
3.17154e-45
3.172e-45
3.17246e-45
3.17289e-45
3.17331e-45
3.17371e-45
3.17408e-45
3.17444e-45
3.17477e-45
3.17508e-45
3.17537e-45
3.17565e-45
3.17592e-45
3.17617e-45
3.17642e-45
3.17666e-45
3.1769e-45
3.17715e-45
3.17739e-45
3.17765e-45
3.17791e-45
3.17819e-45
3.1785e-45
3.17889e-45
3.17952e-45
3.18093e-45
3.18492e-45
3.19745e-45
3.23813e-45
3.37131e-45
3.80753e-45
5.23325e-45
9.88072e-45
2.49913e-44
7.40097e-44
2.32731e-43
7.45992e-43
2.40464e-42
7.76529e-42
2.51085e-41
8.13378e-41
2.64257e-40
8.62169e-40
2.82904e-39
9.35128e-39
3.119e-38
1.05143e-37
3.58765e-37
1.24056e-36
4.35057e-36
1.54785e-35
5.58575e-35
2.04323e-34
7.56813e-34
2.83486e-33
1.07233e-32
4.09024e-32
1.57105e-31
6.06871e-31
2.35496e-30
9.17119e-30
3.58154e-29
1.40158e-28
5.49317e-28
2.15521e-27
8.46167e-27
3.32348e-26
1.30557e-25
5.12863e-25
2.01437e-24
7.90995e-24
3.10516e-23
1.2186e-22
4.78093e-22
1.8752e-21
7.35352e-21
2.88324e-20
1.13042e-19
4.43205e-19
1.73784e-18
6.81527e-18
2.68807e-17
1.05755e-16
4.15416e-16
1.63172e-15
6.41134e-15
2.52014e-14
9.91009e-14
3.89852e-13
1.53419e-12
6.03947e-12
2.37818e-11
9.36696e-11
3.69019e-10
1.45406e-09
5.73035e-09
2.25855e-08
8.90218e-08
3.50846e-07
1.3822e-06
5.4403e-06
2.13642e-05
8.34152e-05
0.000320726
0.00118375
0.00395355
0.0108689
0.0231542
0.0394698
0.0592602
0.0829111
0.108848
0.133144
0.152368
0.169176
0.179149
0.18585
0.190388
0.193546
0.195835
0.197576
0.198967
0.200131
0.201141
0.202044
0.202868
0.203631
0.204346
0.20502
0.205659
0.206267
0.206848
0.207404
0.207937
0.208449
0.208941
0.209415
0.209872
0.210312
0.210738
0.211148
0.211545
0.211917
0.212272
0.212617
0.212955
0.213284
0.213606
0.21392
0.214228
0.214529
0.214824
0.215112
0.215395
0.215672
0.215943
0.21621
0.216472
0.216728
0.21698
0.217228
0.217471
0.217711
0.217946
0.218177
0.218404
0.218628
0.218848
0.219064
0.219277
0.219487
0.219694
0.219897
0.220097
0.220294
0.220488
0.22068
0.220868
0.221054
0.221237
0.221417
0.221595
0.22177
0.221943
0.222114
0.222282
0.222448
0.222612
0.222773
0.222932
0.22309
0.223245
0.223398
0.22355
0.223699
0.223847
0.223992
0.224137
0.224279
0.224419
0.224558
0.224696
0.224832
0.224966
0.225098
0.225229
0.225359
0.225487
0.225614
0.22574
0.225864
0.225987
0.226109
0.226229
0.226348
0.226466
0.226582
0.226697
0.226811
0.226924
0.227036
0.227147
0.227256
0.227364
0.227471
0.227578
0.227683
0.227787
0.22789
0.227991
0.228092
0.228192
0.228291
0.228389
0.228486
0.228582
0.228678
0.228772
0.228865
0.228958
0.22905
0.22914
0.22923
0.22932
0.229408
0.229496
0.229583
0.229669
0.229754
0.229839
0.229923
0.230006
0.230088
0.23017
0.230251
0.230332
0.230412
0.230491
0.23057
0.230648
0.230725
0.230802
0.230879
0.230954
0.231029
0.231104
0.231178
0.231252
0.231325
0.231397
0.231469
0.23154
0.231611
0.231681
0.231751
0.231821
0.231889
0.231958
0.232026
0.232093
0.23216
0.232226
0.232292
0.232357
0.232422
0.232487
0.232551
0.232614
0.232677
0.23274
0.232802
0.232863
0.232925
0.232985
0.233046
0.233105
0.233165
0.233224
0.233282
0.23334
0.233398
0.233455
0.233512
0.233568
0.233624
0.23368
0.233735
0.23379
0.233844
0.233898
0.233952
0.234005
0.234058
0.23411
0.234162
0.234214
0.234265
0.234316
0.234367
0.234417
0.234466
0.234516
0.234564
0.234613
0.23466
0.234706
0.23475
0.23479
0.234825
0.234848
)
;

boundaryField
{
    boundary
    {
        type            empty;
    }
    inlet
    {
        type            fixedValue;
        value           uniform 0;
    }
    outlet
    {
        type            zeroGradient;
    }
}


// ************************************************************************* //
