/*--------------------------------*- C++ -*----------------------------------*\
  =========                 |
  \\      /  F ield         | OpenFOAM: The Open Source CFD Toolbox
   \\    /   O peration     | Website:  https://openfoam.org
    \\  /    A nd           | Version:  7
     \\/     M anipulation  |
\*---------------------------------------------------------------------------*/
FoamFile
{
    version     2.0;
    format      ascii;
    class       volScalarField;
    location    "0.00098";
    object      H2O2;
}
// * * * * * * * * * * * * * * * * * * * * * * * * * * * * * * * * * * * * * //

dimensions      [0 0 0 0 0 0 0];

internalField   nonuniform List<scalar> 
500
(
1.99274e-52
6.4026e-52
1.27295e-51
2.09754e-51
3.11414e-51
4.32278e-51
5.72344e-51
7.31598e-51
9.1002e-51
1.10757e-50
1.32421e-50
1.55987e-50
1.81446e-50
2.08789e-50
2.38004e-50
2.69078e-50
3.01999e-50
3.36755e-50
3.73335e-50
4.11733e-50
4.51945e-50
4.93974e-50
5.37828e-50
5.83521e-50
6.31076e-50
6.80522e-50
7.31893e-50
7.85231e-50
8.40583e-50
8.97998e-50
9.57534e-50
1.01925e-49
1.0832e-49
1.14946e-49
1.2181e-49
1.28919e-49
1.36283e-49
1.4391e-49
1.51811e-49
1.59999e-49
1.68488e-49
1.77294e-49
1.86434e-49
1.9593e-49
2.05803e-49
2.1608e-49
2.26786e-49
2.3795e-49
2.49603e-49
2.61773e-49
2.74491e-49
2.87786e-49
3.01683e-49
3.16205e-49
3.31371e-49
3.4719e-49
3.63668e-49
3.808e-49
3.98571e-49
4.16956e-49
4.35919e-49
4.55409e-49
4.75368e-49
4.95722e-49
5.16389e-49
5.37274e-49
5.58277e-49
5.79289e-49
6.00196e-49
6.20883e-49
6.41236e-49
6.61141e-49
6.8049e-49
6.99183e-49
7.1713e-49
7.34251e-49
7.50478e-49
7.65759e-49
7.80054e-49
7.9334e-49
8.05606e-49
8.16854e-49
8.27102e-49
8.36376e-49
8.44712e-49
8.52157e-49
8.58761e-49
8.64581e-49
8.69676e-49
8.74108e-49
8.77937e-49
8.81226e-49
8.84031e-49
8.86409e-49
8.88413e-49
8.9009e-49
8.91486e-49
8.9264e-49
8.9359e-49
8.94366e-49
8.94996e-49
8.95506e-49
8.95916e-49
8.96244e-49
8.96506e-49
8.96713e-49
8.96877e-49
8.97007e-49
8.97109e-49
8.9719e-49
8.97253e-49
8.97304e-49
8.97345e-49
8.97379e-49
8.97406e-49
8.9743e-49
8.97451e-49
8.97469e-49
8.97486e-49
8.97501e-49
8.97513e-49
8.97513e-49
8.97468e-49
8.97242e-49
8.96312e-49
8.94469e-49
8.94487e-49
8.94505e-49
8.94524e-49
8.94543e-49
8.94564e-49
8.94586e-49
8.9461e-49
8.94635e-49
8.94661e-49
8.94688e-49
8.94718e-49
8.94748e-49
8.94781e-49
8.94815e-49
8.94851e-49
8.94888e-49
8.94927e-49
8.94968e-49
8.9501e-49
8.95053e-49
8.95097e-49
8.95143e-49
8.9519e-49
8.95239e-49
8.9529e-49
8.95344e-49
8.95401e-49
8.95462e-49
8.95528e-49
8.956e-49
8.95678e-49
8.95764e-49
8.95858e-49
8.95961e-49
8.96073e-49
8.96194e-49
8.96324e-49
8.96463e-49
8.9661e-49
8.96763e-49
8.96922e-49
8.97084e-49
8.97247e-49
8.9741e-49
8.9757e-49
8.97727e-49
8.97878e-49
8.98022e-49
8.98157e-49
8.98285e-49
8.98403e-49
8.98513e-49
8.98616e-49
8.98711e-49
8.98801e-49
8.98887e-49
8.98971e-49
8.99054e-49
8.99139e-49
8.99226e-49
8.99317e-49
8.99414e-49
8.99517e-49
8.99626e-49
8.99743e-49
8.99867e-49
8.99997e-49
9.00133e-49
9.00274e-49
9.0042e-49
9.0057e-49
9.00729e-49
9.00919e-49
9.01253e-49
9.02245e-49
9.0624e-49
9.23857e-49
1.00297e-48
1.35853e-48
2.95155e-48
1.00623e-47
4.16834e-47
1.8179e-46
8.00425e-46
3.52297e-45
1.54673e-44
6.7715e-44
2.95633e-43
1.28731e-42
5.59185e-42
2.42352e-41
1.04818e-40
4.52476e-40
1.94985e-39
8.38924e-39
3.60433e-38
1.54656e-37
6.62832e-37
2.83782e-36
1.21382e-35
5.18735e-35
2.21508e-34
9.45164e-34
4.0301e-33
1.71722e-32
7.31205e-32
3.11143e-31
1.32307e-30
5.62218e-30
2.38737e-29
1.01304e-28
4.29554e-28
1.82012e-27
7.7069e-27
3.26114e-26
1.37908e-25
5.82869e-25
2.46231e-24
1.0398e-23
4.38968e-23
1.85286e-22
7.82034e-22
3.30085e-21
1.39343e-20
5.8836e-20
2.49943e-19
1.05882e-18
4.47876e-18
1.89462e-17
8.01791e-17
3.39471e-16
1.43796e-15
6.09376e-15
2.58347e-14
1.09569e-13
4.64859e-13
1.97285e-12
8.37515e-12
3.55636e-11
1.51049e-10
6.41657e-10
2.72597e-09
1.15795e-08
4.91618e-08
2.08368e-07
8.78416e-07
3.63691e-06
1.41741e-05
4.59036e-05
9.59622e-05
0.000123782
0.000106677
5.91055e-05
2.50056e-05
1.01746e-05
5.38798e-06
4.422e-06
4.71954e-06
5.42759e-06
5.99991e-06
6.41339e-06
6.65843e-06
6.76272e-06
6.7616e-06
6.68642e-06
6.56171e-06
6.40542e-06
6.23028e-06
6.04518e-06
5.85616e-06
5.66733e-06
5.48143e-06
5.30024e-06
5.12489e-06
4.95604e-06
4.79401e-06
4.63894e-06
4.49081e-06
4.34947e-06
4.21472e-06
4.08632e-06
3.96402e-06
3.84753e-06
3.7366e-06
3.63099e-06
3.53051e-06
3.43784e-06
3.35064e-06
3.26691e-06
3.18646e-06
3.10914e-06
3.03479e-06
2.96326e-06
2.89442e-06
2.82813e-06
2.76428e-06
2.70275e-06
2.64342e-06
2.58619e-06
2.53096e-06
2.47765e-06
2.42615e-06
2.3764e-06
2.3283e-06
2.28179e-06
2.2368e-06
2.19325e-06
2.15109e-06
2.11026e-06
2.0707e-06
2.03235e-06
1.99517e-06
1.95911e-06
1.92412e-06
1.89016e-06
1.8572e-06
1.82518e-06
1.79407e-06
1.76384e-06
1.73446e-06
1.70589e-06
1.6781e-06
1.65106e-06
1.62475e-06
1.59913e-06
1.57419e-06
1.54989e-06
1.52622e-06
1.50316e-06
1.48067e-06
1.45874e-06
1.43736e-06
1.4165e-06
1.39614e-06
1.37628e-06
1.35688e-06
1.33794e-06
1.31944e-06
1.30137e-06
1.28371e-06
1.26645e-06
1.24958e-06
1.23308e-06
1.21695e-06
1.20117e-06
1.18574e-06
1.17065e-06
1.15589e-06
1.14146e-06
1.12735e-06
1.11352e-06
1.09992e-06
1.08659e-06
1.07353e-06
1.06073e-06
1.04818e-06
1.03588e-06
1.02382e-06
1.012e-06
1.0004e-06
9.89028e-07
9.77872e-07
9.66926e-07
9.56186e-07
9.45646e-07
9.353e-07
9.25146e-07
9.15176e-07
9.05387e-07
8.95775e-07
8.86335e-07
8.77062e-07
8.67953e-07
8.59004e-07
8.50211e-07
8.4157e-07
8.33078e-07
8.24731e-07
8.16526e-07
8.0846e-07
8.00528e-07
7.92728e-07
7.85058e-07
7.77514e-07
7.70092e-07
7.62791e-07
7.55608e-07
7.4854e-07
7.41584e-07
7.34737e-07
7.27999e-07
7.21365e-07
7.14833e-07
7.08402e-07
7.02069e-07
6.95833e-07
6.8969e-07
6.83639e-07
6.77678e-07
6.71805e-07
6.66018e-07
6.60315e-07
6.54695e-07
6.49156e-07
6.43697e-07
6.38315e-07
6.33009e-07
6.27778e-07
6.2262e-07
6.17534e-07
6.12518e-07
6.07571e-07
6.02692e-07
5.9788e-07
5.93132e-07
5.88449e-07
5.8383e-07
5.79271e-07
5.74774e-07
5.70337e-07
5.65958e-07
5.61637e-07
5.57372e-07
5.53164e-07
5.4901e-07
5.44911e-07
5.40864e-07
5.3687e-07
5.32927e-07
5.29035e-07
5.25192e-07
5.21399e-07
5.17654e-07
5.13956e-07
5.10304e-07
5.06699e-07
5.03138e-07
4.99623e-07
4.96151e-07
4.92722e-07
4.89335e-07
4.85991e-07
4.82687e-07
4.79424e-07
4.76201e-07
4.73017e-07
4.69872e-07
4.66766e-07
4.63697e-07
4.60665e-07
4.57669e-07
4.5471e-07
4.51786e-07
4.48897e-07
4.46043e-07
4.43223e-07
4.40438e-07
4.37686e-07
4.34968e-07
4.32284e-07
4.29632e-07
4.27016e-07
4.24433e-07
4.21887e-07
4.1938e-07
4.16914e-07
4.14495e-07
4.12131e-07
4.09834e-07
4.07627e-07
4.05546e-07
4.03655e-07
4.02072e-07
4.01034e-07
)
;

boundaryField
{
    boundary
    {
        type            empty;
    }
    inlet
    {
        type            fixedValue;
        value           uniform 0;
    }
    outlet
    {
        type            zeroGradient;
    }
}


// ************************************************************************* //
