/*--------------------------------*- C++ -*----------------------------------*\
  =========                 |
  \\      /  F ield         | OpenFOAM: The Open Source CFD Toolbox
   \\    /   O peration     | Website:  https://openfoam.org
    \\  /    A nd           | Version:  7
     \\/     M anipulation  |
\*---------------------------------------------------------------------------*/
FoamFile
{
    version     2.0;
    format      ascii;
    class       volScalarField;
    location    "0.00098";
    object      HO2;
}
// * * * * * * * * * * * * * * * * * * * * * * * * * * * * * * * * * * * * * //

dimensions      [0 0 0 0 0 0 0];

internalField   nonuniform List<scalar> 
500
(
5.59228e-38
1.2727e-37
1.98893e-37
2.70595e-37
3.42336e-37
4.14105e-37
4.85893e-37
5.57692e-37
6.29491e-37
7.01279e-37
7.73044e-37
8.44769e-37
9.16437e-37
9.88026e-37
1.05951e-36
1.13088e-36
1.2021e-36
1.27315e-36
1.34403e-36
1.41472e-36
1.48523e-36
1.55557e-36
1.62576e-36
1.69583e-36
1.76583e-36
1.8358e-36
1.90581e-36
1.97591e-36
2.04618e-36
2.11668e-36
2.18748e-36
2.25866e-36
2.33026e-36
2.40237e-36
2.47504e-36
2.54833e-36
2.62231e-36
2.69706e-36
2.77264e-36
2.84914e-36
2.92666e-36
3.00532e-36
3.08523e-36
3.16654e-36
3.24942e-36
3.33403e-36
3.42057e-36
3.50923e-36
3.60022e-36
3.69376e-36
3.79004e-36
3.88927e-36
3.99161e-36
4.09722e-36
4.2062e-36
4.31864e-36
4.43453e-36
4.55386e-36
4.67649e-36
4.80227e-36
4.93093e-36
5.06216e-36
5.19556e-36
5.33066e-36
5.46693e-36
5.60379e-36
5.7406e-36
5.87671e-36
6.01143e-36
6.14407e-36
6.27395e-36
6.40042e-36
6.52286e-36
6.64071e-36
6.75345e-36
6.86066e-36
6.96199e-36
7.05716e-36
7.14599e-36
7.22839e-36
7.30432e-36
7.37386e-36
7.43715e-36
7.49436e-36
7.54577e-36
7.59166e-36
7.63237e-36
7.66825e-36
7.69968e-36
7.72703e-36
7.75069e-36
7.77103e-36
7.7884e-36
7.80315e-36
7.8156e-36
7.82604e-36
7.83475e-36
7.84197e-36
7.84792e-36
7.85279e-36
7.85677e-36
7.85999e-36
7.86259e-36
7.86468e-36
7.86634e-36
7.86767e-36
7.86872e-36
7.86956e-36
7.87022e-36
7.87074e-36
7.87116e-36
7.87149e-36
7.87175e-36
7.87197e-36
7.87215e-36
7.87231e-36
7.87244e-36
7.87256e-36
7.87267e-36
7.87277e-36
7.87285e-36
7.87288e-36
7.87271e-36
7.87174e-36
7.86766e-36
7.85959e-36
7.8597e-36
7.85981e-36
7.85993e-36
7.86005e-36
7.86018e-36
7.86032e-36
7.86047e-36
7.86063e-36
7.86079e-36
7.86097e-36
7.86116e-36
7.86135e-36
7.86156e-36
7.86178e-36
7.86201e-36
7.86225e-36
7.8625e-36
7.86276e-36
7.86303e-36
7.8633e-36
7.86358e-36
7.86387e-36
7.86416e-36
7.86446e-36
7.86476e-36
7.86507e-36
7.8654e-36
7.86575e-36
7.86611e-36
7.8665e-36
7.86692e-36
7.86738e-36
7.86787e-36
7.86841e-36
7.86899e-36
7.86961e-36
7.87028e-36
7.87098e-36
7.87172e-36
7.87249e-36
7.87329e-36
7.8741e-36
7.87492e-36
7.87573e-36
7.87654e-36
7.87733e-36
7.87809e-36
7.87882e-36
7.87951e-36
7.88017e-36
7.88079e-36
7.88137e-36
7.88192e-36
7.88245e-36
7.88295e-36
7.88345e-36
7.88393e-36
7.88442e-36
7.88493e-36
7.88545e-36
7.88599e-36
7.88657e-36
7.88717e-36
7.88782e-36
7.88849e-36
7.8892e-36
7.88995e-36
7.89072e-36
7.89151e-36
7.89232e-36
7.89315e-36
7.89398e-36
7.89481e-36
7.89563e-36
7.89644e-36
7.89723e-36
7.89801e-36
7.89875e-36
7.89946e-36
7.90014e-36
7.90078e-36
7.90139e-36
7.90197e-36
7.90254e-36
7.90318e-36
7.90412e-36
7.90612e-36
7.91153e-36
7.92774e-36
7.97777e-36
8.13346e-36
8.61847e-36
1.01282e-35
1.48225e-35
2.94027e-35
7.46495e-35
2.14979e-34
6.50073e-34
1.99924e-33
6.18529e-33
1.91892e-32
5.9667e-32
1.86048e-31
5.82356e-31
1.8326e-30
5.80869e-30
1.85874e-29
6.0208e-29
1.98007e-28
6.63171e-28
2.26835e-27
7.94119e-27
2.84892e-26
1.04737e-25
3.94124e-25
1.51479e-24
5.93016e-24
2.35769e-23
9.49223e-23
3.86004e-22
1.58202e-21
6.52314e-21
2.7022e-20
1.12337e-19
4.68287e-19
1.9676e-18
8.25472e-18
3.46084e-17
1.45183e-16
6.09472e-16
2.56004e-15
1.07582e-14
4.52243e-14
1.90151e-13
7.99602e-13
3.36247e-12
1.41388e-11
5.94416e-11
2.49827e-10
1.04951e-09
4.4059e-09
1.84776e-08
7.73501e-08
3.22667e-07
1.33513e-06
5.42901e-06
2.12926e-05
7.69491e-05
0.000230704
0.000457556
0.000517979
0.000442545
0.000330038
0.000233805
0.000163955
0.000114744
8.04678e-05
5.75264e-05
3.98992e-05
3.01369e-05
2.38713e-05
1.97596e-05
1.69699e-05
1.49981e-05
1.35431e-05
1.24241e-05
1.15316e-05
1.07976e-05
1.01787e-05
9.64649e-06
9.18155e-06
8.77034e-06
8.40302e-06
8.07222e-06
7.77232e-06
7.49886e-06
7.24832e-06
7.01779e-06
6.80489e-06
6.6076e-06
6.42423e-06
6.25336e-06
6.09373e-06
5.94432e-06
5.80424e-06
5.67277e-06
5.55303e-06
5.44144e-06
5.33525e-06
5.23408e-06
5.13758e-06
5.04542e-06
4.95731e-06
4.87299e-06
4.79221e-06
4.71475e-06
4.64042e-06
4.56902e-06
4.50038e-06
4.43434e-06
4.37077e-06
4.30952e-06
4.25047e-06
4.19351e-06
4.13852e-06
4.08542e-06
4.0341e-06
3.98448e-06
3.93648e-06
3.89003e-06
3.84505e-06
3.80149e-06
3.75927e-06
3.71835e-06
3.67867e-06
3.64017e-06
3.60281e-06
3.56654e-06
3.53132e-06
3.49711e-06
3.46387e-06
3.43156e-06
3.40015e-06
3.36959e-06
3.33987e-06
3.31095e-06
3.28279e-06
3.25538e-06
3.22867e-06
3.20266e-06
3.17731e-06
3.1526e-06
3.12851e-06
3.10501e-06
3.08209e-06
3.05972e-06
3.03789e-06
3.01658e-06
2.99577e-06
2.97544e-06
2.95558e-06
2.93617e-06
2.91721e-06
2.89867e-06
2.88054e-06
2.86281e-06
2.84547e-06
2.82852e-06
2.81194e-06
2.79572e-06
2.77984e-06
2.76425e-06
2.74899e-06
2.73404e-06
2.7194e-06
2.70505e-06
2.691e-06
2.67723e-06
2.66373e-06
2.65051e-06
2.63754e-06
2.62483e-06
2.61237e-06
2.60015e-06
2.58817e-06
2.57642e-06
2.56489e-06
2.55359e-06
2.5425e-06
2.53162e-06
2.52095e-06
2.51047e-06
2.5002e-06
2.49011e-06
2.48021e-06
2.4705e-06
2.46096e-06
2.45159e-06
2.4424e-06
2.43337e-06
2.4245e-06
2.41579e-06
2.40724e-06
2.39883e-06
2.39057e-06
2.38245e-06
2.37447e-06
2.36663e-06
2.35892e-06
2.35133e-06
2.34387e-06
2.33653e-06
2.32931e-06
2.3222e-06
2.3152e-06
2.30831e-06
2.30153e-06
2.29485e-06
2.28827e-06
2.28179e-06
2.2754e-06
2.2691e-06
2.26289e-06
2.25677e-06
2.25073e-06
2.24478e-06
2.2389e-06
2.23311e-06
2.22739e-06
2.22175e-06
2.21619e-06
2.21069e-06
2.20527e-06
2.19992e-06
2.19463e-06
2.18941e-06
2.18426e-06
2.17918e-06
2.17416e-06
2.1692e-06
2.1643e-06
2.15947e-06
2.1547e-06
2.14999e-06
2.14533e-06
2.14074e-06
2.1362e-06
2.13172e-06
2.12729e-06
2.12292e-06
2.11861e-06
2.11435e-06
2.11014e-06
2.10598e-06
2.10188e-06
2.09782e-06
2.09382e-06
2.08987e-06
2.08596e-06
2.0821e-06
2.0783e-06
2.07453e-06
2.07082e-06
2.06715e-06
2.06352e-06
2.05994e-06
2.0564e-06
2.05291e-06
2.04946e-06
2.04605e-06
2.04268e-06
2.03935e-06
2.03606e-06
2.03282e-06
2.0296e-06
2.02643e-06
2.0233e-06
2.02019e-06
2.01713e-06
2.0141e-06
2.0111e-06
2.00814e-06
2.00521e-06
2.00231e-06
1.99945e-06
1.99661e-06
1.99381e-06
1.99105e-06
1.98834e-06
1.98569e-06
1.98313e-06
1.98074e-06
1.97864e-06
1.97717e-06
)
;

boundaryField
{
    boundary
    {
        type            empty;
    }
    inlet
    {
        type            fixedValue;
        value           uniform 0;
    }
    outlet
    {
        type            zeroGradient;
    }
}


// ************************************************************************* //
