/*--------------------------------*- C++ -*----------------------------------*\
  =========                 |
  \\      /  F ield         | OpenFOAM: The Open Source CFD Toolbox
   \\    /   O peration     | Website:  https://openfoam.org
    \\  /    A nd           | Version:  7
     \\/     M anipulation  |
\*---------------------------------------------------------------------------*/
FoamFile
{
    version     2.0;
    format      ascii;
    class       volScalarField;
    location    "0.00098";
    object      O;
}
// * * * * * * * * * * * * * * * * * * * * * * * * * * * * * * * * * * * * * //

dimensions      [0 0 0 0 0 0 0];

internalField   nonuniform List<scalar> 
500
(
1.57726e-47
3.76314e-47
5.96167e-47
8.16188e-47
1.03614e-46
1.25597e-46
1.47563e-46
1.69509e-46
1.91431e-46
2.13323e-46
2.35181e-46
2.56997e-46
2.78766e-46
3.0048e-46
3.22131e-46
3.43711e-46
3.65213e-46
3.86633e-46
4.07966e-46
4.29211e-46
4.5037e-46
4.7145e-46
4.92458e-46
5.13409e-46
5.34318e-46
5.55204e-46
5.7609e-46
5.96998e-46
6.17956e-46
6.38988e-46
6.60122e-46
6.81385e-46
7.02804e-46
7.24407e-46
7.46221e-46
7.68274e-46
7.90598e-46
8.13223e-46
8.36184e-46
8.59521e-46
8.83276e-46
9.07496e-46
9.32234e-46
9.5755e-46
9.83505e-46
1.01017e-45
1.03762e-45
1.06593e-45
1.09517e-45
1.12544e-45
1.1568e-45
1.18932e-45
1.22308e-45
1.25814e-45
1.29453e-45
1.3323e-45
1.37145e-45
1.41198e-45
1.45387e-45
1.49706e-45
1.54149e-45
1.58705e-45
1.63363e-45
1.68106e-45
1.72919e-45
1.77783e-45
1.82675e-45
1.87575e-45
1.92458e-45
1.973e-45
2.02078e-45
2.06768e-45
2.11345e-45
2.15789e-45
2.20079e-45
2.24196e-45
2.28126e-45
2.31854e-45
2.3537e-45
2.38667e-45
2.4174e-45
2.44586e-45
2.47207e-45
2.49606e-45
2.51788e-45
2.53761e-45
2.55534e-45
2.57119e-45
2.58525e-45
2.59767e-45
2.60856e-45
2.61806e-45
2.62629e-45
2.63339e-45
2.63947e-45
2.64465e-45
2.64904e-45
2.65273e-45
2.65582e-45
2.6584e-45
2.66053e-45
2.66229e-45
2.66373e-45
2.6649e-45
2.66585e-45
2.66662e-45
2.66724e-45
2.66774e-45
2.66814e-45
2.66845e-45
2.66871e-45
2.66891e-45
2.66908e-45
2.66921e-45
2.66932e-45
2.66941e-45
2.66949e-45
2.66955e-45
2.66961e-45
2.66965e-45
2.66968e-45
2.66965e-45
2.66947e-45
2.66887e-45
2.66706e-45
2.66443e-45
2.66448e-45
2.66453e-45
2.66459e-45
2.66464e-45
2.6647e-45
2.66476e-45
2.66483e-45
2.6649e-45
2.66497e-45
2.66505e-45
2.66514e-45
2.66523e-45
2.66532e-45
2.66542e-45
2.66553e-45
2.66564e-45
2.66575e-45
2.66588e-45
2.66601e-45
2.66614e-45
2.66629e-45
2.66644e-45
2.6666e-45
2.66676e-45
2.66694e-45
2.66713e-45
2.66734e-45
2.66755e-45
2.66779e-45
2.66803e-45
2.6683e-45
2.66858e-45
2.66889e-45
2.6692e-45
2.66954e-45
2.66989e-45
2.67025e-45
2.67062e-45
2.671e-45
2.67139e-45
2.67178e-45
2.67216e-45
2.67254e-45
2.67292e-45
2.67329e-45
2.67364e-45
2.67398e-45
2.67432e-45
2.67463e-45
2.67493e-45
2.67522e-45
2.6755e-45
2.67577e-45
2.67602e-45
2.67626e-45
2.6765e-45
2.67673e-45
2.67696e-45
2.67718e-45
2.67741e-45
2.67763e-45
2.67787e-45
2.67814e-45
2.67853e-45
2.67931e-45
2.68139e-45
2.68782e-45
2.70875e-45
2.77787e-45
3.00634e-45
3.75978e-45
6.23561e-45
1.43406e-44
4.07726e-44
1.26651e-43
4.04659e-43
1.30145e-42
4.18442e-42
1.34218e-41
4.29257e-41
1.36872e-40
4.35145e-40
1.37949e-39
4.36145e-39
1.37539e-38
4.32676e-38
1.35801e-37
4.25313e-37
1.32935e-36
4.14717e-36
1.29154e-35
4.01572e-35
1.24673e-34
3.86534e-34
1.1969e-33
3.70197e-33
1.14381e-32
3.53067e-32
1.08889e-31
3.35552e-31
1.03328e-30
3.17962e-30
9.77811e-30
3.00518e-29
9.23072e-29
2.83373e-28
8.69456e-28
2.66629e-27
8.17233e-27
2.50361e-26
7.66615e-26
2.34632e-25
7.17805e-25
2.19507e-24
6.71017e-24
2.05059e-23
6.26485e-23
1.91361e-22
5.84436e-22
1.7848e-21
5.45053e-21
1.66461e-20
5.08429e-20
1.55316e-19
4.7455e-19
1.4569e-18
4.46619e-18
1.36692e-17
4.18239e-17
1.27983e-16
3.91725e-16
1.19926e-15
3.67243e-15
1.12484e-14
3.44603e-14
1.05592e-13
3.23615e-13
9.91969e-13
3.04113e-12
9.32441e-12
2.85912e-11
8.76658e-11
2.68768e-10
8.23969e-10
2.52827e-09
7.79971e-09
2.4651e-08
8.52092e-08
3.74439e-07
2.31942e-06
1.58177e-05
8.12234e-05
0.000328499
0.000999288
0.00215707
0.00352472
0.00473909
0.00561276
0.00615093
0.00638429
0.00644492
0.00639888
0.00629061
0.00614866
0.00599064
0.00582708
0.00566407
0.00550504
0.00535177
0.00520512
0.00506536
0.00493246
0.0048062
0.00468628
0.00457234
0.00446403
0.00436098
0.00426287
0.00416936
0.00408015
0.00399496
0.00391353
0.00383563
0.00376104
0.00368958
0.00362108
0.00355741
0.00349722
0.00343901
0.00338266
0.00332807
0.00327515
0.00322383
0.00317402
0.00312565
0.00307865
0.00303297
0.00298854
0.00294532
0.00290324
0.00286226
0.00282233
0.00278342
0.00274548
0.00270848
0.00267238
0.00263715
0.00260275
0.00256916
0.00253635
0.00250429
0.00247296
0.00244234
0.00241239
0.00238311
0.00235446
0.00232644
0.00229901
0.00227217
0.00224589
0.00222016
0.00219496
0.00217028
0.00214609
0.00212239
0.00209916
0.00207639
0.00205406
0.00203216
0.00201068
0.00198961
0.00196893
0.00194863
0.0019287
0.00190914
0.00188993
0.00187107
0.00185253
0.00183433
0.00181643
0.00179885
0.00178157
0.00176458
0.00174787
0.00173145
0.0017153
0.00169942
0.0016838
0.00166844
0.00165334
0.00163846
0.00162378
0.00160932
0.00159508
0.00158107
0.00156727
0.00155367
0.00154029
0.0015271
0.00151411
0.00150132
0.00148871
0.00147629
0.00146405
0.00145199
0.0014401
0.00142839
0.00141684
0.00140546
0.00139423
0.00138317
0.00137226
0.00136151
0.0013509
0.00134044
0.00133012
0.00131995
0.00130991
0.00130001
0.00129024
0.00128061
0.0012711
0.00126171
0.00125245
0.00124331
0.00123429
0.00122538
0.00121659
0.0012079
0.00119933
0.00119086
0.0011825
0.00117424
0.00116607
0.00115801
0.00115005
0.00114217
0.0011344
0.00112671
0.00111911
0.0011116
0.00110417
0.00109683
0.00108957
0.0010824
0.0010753
0.00106828
0.00106134
0.00105448
0.00104769
0.00104098
0.00103434
0.00102777
0.00102127
0.00101484
0.00100848
0.00100219
0.000995969
0.000989813
0.000983722
0.000977696
0.000971735
0.000965837
0.000960002
0.000954228
0.000948516
0.000942864
0.000937273
0.00093174
0.000926265
0.000920849
0.000915489
0.000910186
0.000904939
0.000899747
0.000894609
0.000889525
0.000884494
0.000879515
0.000874589
0.000869714
0.00086489
0.000860116
0.000855391
0.000850716
0.000846089
0.00084151
0.000836979
0.000832495
0.000828057
0.000823665
0.000819319
0.000815017
0.000810761
0.000806549
0.000802382
0.000798258
0.000794179
0.000790144
0.000786154
0.00078221
0.000778312
0.000774464
0.000770669
0.00076693
0.000763256
0.000759656
0.000756148
0.000752755
0.000749517
0.000746494
0.000743788
0.000741572
0.00074016
)
;

boundaryField
{
    boundary
    {
        type            empty;
    }
    inlet
    {
        type            fixedValue;
        value           uniform 0;
    }
    outlet
    {
        type            zeroGradient;
    }
}


// ************************************************************************* //
