/*--------------------------------*- C++ -*----------------------------------*\
  =========                 |
  \\      /  F ield         | OpenFOAM: The Open Source CFD Toolbox
   \\    /   O peration     | Website:  https://openfoam.org
    \\  /    A nd           | Version:  7
     \\/     M anipulation  |
\*---------------------------------------------------------------------------*/
FoamFile
{
    version     2.0;
    format      ascii;
    class       volScalarField;
    location    "0.00098";
    object      OH;
}
// * * * * * * * * * * * * * * * * * * * * * * * * * * * * * * * * * * * * * //

dimensions      [0 0 0 0 0 0 0];

internalField   nonuniform List<scalar> 
500
(
9.38215e-48
1.82825e-47
2.43674e-47
2.8489e-47
3.12774e-47
3.31675e-47
3.44538e-47
3.53341e-47
3.59413e-47
3.63644e-47
3.66631e-47
3.68774e-47
3.70338e-47
3.71503e-47
3.72386e-47
3.73063e-47
3.73587e-47
3.73991e-47
3.74297e-47
3.74523e-47
3.7468e-47
3.7478e-47
3.74834e-47
3.74851e-47
3.74843e-47
3.74822e-47
3.74801e-47
3.74793e-47
3.7481e-47
3.74866e-47
3.74971e-47
3.75138e-47
3.75378e-47
3.75699e-47
3.76112e-47
3.76623e-47
3.77242e-47
3.77975e-47
3.7883e-47
3.79817e-47
3.80942e-47
3.82217e-47
3.83653e-47
3.85262e-47
3.87059e-47
3.8906e-47
3.91281e-47
3.93742e-47
3.96463e-47
3.99463e-47
4.02764e-47
4.06388e-47
4.10354e-47
4.14681e-47
4.19388e-47
4.24489e-47
4.29998e-47
4.35921e-47
4.42265e-47
4.49028e-47
4.56206e-47
4.63787e-47
4.71753e-47
4.80082e-47
4.88745e-47
4.97704e-47
5.06919e-47
5.16343e-47
5.25925e-47
5.35609e-47
5.45336e-47
5.55046e-47
5.64678e-47
5.74173e-47
5.83471e-47
5.92518e-47
6.01262e-47
6.09658e-47
6.17665e-47
6.25252e-47
6.32393e-47
6.39068e-47
6.45267e-47
6.50985e-47
6.56225e-47
6.60996e-47
6.65311e-47
6.69189e-47
6.72652e-47
6.75724e-47
6.78433e-47
6.80807e-47
6.82874e-47
6.84664e-47
6.86204e-47
6.87521e-47
6.88641e-47
6.89588e-47
6.90385e-47
6.91051e-47
6.91605e-47
6.92063e-47
6.92441e-47
6.9275e-47
6.93002e-47
6.93207e-47
6.93373e-47
6.93507e-47
6.93615e-47
6.93701e-47
6.93771e-47
6.93827e-47
6.93873e-47
6.9391e-47
6.93941e-47
6.93967e-47
6.93989e-47
6.94008e-47
6.94025e-47
6.94041e-47
6.94055e-47
6.94067e-47
6.94076e-47
6.94077e-47
6.94055e-47
6.94017e-47
6.94029e-47
6.9404e-47
6.9405e-47
6.94062e-47
6.94075e-47
6.94091e-47
6.94109e-47
6.9413e-47
6.94152e-47
6.94177e-47
6.94204e-47
6.94232e-47
6.94263e-47
6.94295e-47
6.94329e-47
6.94365e-47
6.94402e-47
6.9444e-47
6.94479e-47
6.94518e-47
6.94557e-47
6.94595e-47
6.94633e-47
6.94669e-47
6.94704e-47
6.94738e-47
6.94771e-47
6.94803e-47
6.94835e-47
6.94865e-47
6.94896e-47
6.94927e-47
6.94959e-47
6.94991e-47
6.95025e-47
6.9506e-47
6.95097e-47
6.95136e-47
6.95176e-47
6.95218e-47
6.95262e-47
6.95307e-47
6.95354e-47
6.95402e-47
6.95452e-47
6.95502e-47
6.95553e-47
6.95605e-47
6.95658e-47
6.95711e-47
6.95765e-47
6.95819e-47
6.95873e-47
6.95928e-47
6.95983e-47
6.96039e-47
6.96094e-47
6.96151e-47
6.96207e-47
6.96264e-47
6.96322e-47
6.9638e-47
6.96438e-47
6.965e-47
6.96568e-47
6.96659e-47
6.96827e-47
6.9725e-47
6.98521e-47
7.02595e-47
7.15906e-47
7.59533e-47
9.02255e-47
1.36767e-46
2.87996e-46
7.77629e-46
2.35733e-45
7.43646e-45
2.37131e-44
7.57077e-44
2.41292e-43
7.67076e-43
2.43195e-42
7.68971e-42
2.42522e-41
7.63015e-41
2.39506e-40
7.50173e-40
2.34492e-39
7.31604e-39
2.27858e-38
7.08512e-38
2.1998e-37
6.82059e-37
2.1121e-36
6.53296e-36
2.01859e-35
6.23119e-35
1.92183e-34
5.92256e-34
1.82383e-33
5.61262e-33
1.72613e-32
5.30547e-32
1.62981e-31
5.00409e-31
1.53571e-30
4.71091e-30
1.44458e-29
4.42851e-29
1.35739e-28
4.16063e-28
1.27567e-27
3.91388e-27
1.2023e-26
3.7009e-26
1.14288e-25
3.54668e-25
1.10863e-24
3.50171e-24
1.12236e-23
3.66948e-23
1.2311e-22
4.26404e-22
1.53241e-21
5.7627e-21
2.24736e-20
9.07399e-20
3.77902e-19
1.61407e-18
7.02922e-18
3.10551e-17
1.38625e-16
6.23307e-16
2.81668e-15
1.27717e-14
5.80428e-14
2.64169e-13
1.20339e-12
5.48466e-12
2.50027e-11
1.13983e-10
5.2523e-10
2.44537e-09
1.14638e-08
5.42408e-08
2.64752e-07
1.41675e-06
8.94903e-06
6.0823e-05
0.000294816
0.000652808
0.000844511
0.00103445
0.00151341
0.00242856
0.00369206
0.00507401
0.00652937
0.00764809
0.00854422
0.00924724
0.00979465
0.0102219
0.0105579
0.0108245
0.0110379
0.0112099
0.0113493
0.0114625
0.0115546
0.0116291
0.0116892
0.011737
0.0117744
0.011803
0.0118241
0.0118386
0.0118474
0.0118513
0.0118509
0.0118467
0.0118392
0.0118287
0.0118157
0.0118004
0.0117837
0.0117658
0.0117464
0.0117258
0.0117039
0.011681
0.011657
0.0116321
0.0116064
0.0115799
0.0115528
0.011525
0.0114966
0.0114678
0.0114385
0.0114087
0.0113786
0.0113481
0.0113174
0.0112863
0.0112551
0.0112236
0.011192
0.0111602
0.0111283
0.0110963
0.0110642
0.0110321
0.011
0.0109678
0.0109356
0.0109034
0.0108713
0.0108392
0.0108072
0.0107752
0.0107433
0.0107115
0.0106798
0.0106482
0.0106166
0.0105852
0.0105539
0.0105227
0.0104916
0.0104607
0.0104298
0.0103991
0.0103686
0.0103381
0.0103078
0.0102777
0.0102476
0.0102177
0.010188
0.0101584
0.0101289
0.0100996
0.0100704
0.0100414
0.0100125
0.00998378
0.00995518
0.00992674
0.00989841
0.00987018
0.0098421
0.00981417
0.00978639
0.00975876
0.00973128
0.00970394
0.00967676
0.00964973
0.00962285
0.00959613
0.00956955
0.00954313
0.00951686
0.00949074
0.00946478
0.00943898
0.00941332
0.00938782
0.00936248
0.00933729
0.00931225
0.00928736
0.00926263
0.00923805
0.00921362
0.00918934
0.00916521
0.00914123
0.00911739
0.0090937
0.00907016
0.00904675
0.00902349
0.00900037
0.00897738
0.00895453
0.00893181
0.00890922
0.00888677
0.00886444
0.00884223
0.00882015
0.00879819
0.00877635
0.00875463
0.00873302
0.00871153
0.00869015
0.00866888
0.00864772
0.00862667
0.00860573
0.00858489
0.00856416
0.00854354
0.00852302
0.0085026
0.00848229
0.00846208
0.00844197
0.00842197
0.00840207
0.00838227
0.00836257
0.00834297
0.00832348
0.00830409
0.0082848
0.00826562
0.00824654
0.00822757
0.00820869
0.00818992
0.00817126
0.0081527
0.00813424
0.00811589
0.00809764
0.00807949
0.00806145
0.00804352
0.00802568
0.00800796
0.00799033
0.00797281
0.00795539
0.00793808
0.00792087
0.00790376
0.00788676
0.00786986
0.00785306
0.00783637
0.00781978
0.00780329
0.0077869
0.00777061
0.00775443
0.00773835
0.00772238
0.0077065
0.00769073
0.00767507
0.00765951
0.00764406
0.00762871
0.00761348
0.00759837
0.00758337
0.00756851
0.0075538
0.00753924
0.00752487
0.00751072
0.00749685
0.00748333
0.00747028
0.00745787
0.00744636
0.00743618
0.00742795
0.00742278
)
;

boundaryField
{
    boundary
    {
        type            empty;
    }
    inlet
    {
        type            fixedValue;
        value           uniform 0;
    }
    outlet
    {
        type            zeroGradient;
    }
}


// ************************************************************************* //
