/*--------------------------------*- C++ -*----------------------------------*\
  =========                 |
  \\      /  F ield         | OpenFOAM: The Open Source CFD Toolbox
   \\    /   O peration     | Website:  https://openfoam.org
    \\  /    A nd           | Version:  7
     \\/     M anipulation  |
\*---------------------------------------------------------------------------*/
FoamFile
{
    version     2.0;
    format      ascii;
    class       surfaceScalarField;
    location    "0.00098";
    object      phi;
}
// * * * * * * * * * * * * * * * * * * * * * * * * * * * * * * * * * * * * * //

dimensions      [1 0 -1 0 0 0 0];

internalField   nonuniform List<scalar> 
499
(
6.93085e-06
6.93077e-06
6.9307e-06
6.93062e-06
6.93053e-06
6.93045e-06
6.93035e-06
6.93026e-06
6.93017e-06
6.93008e-06
6.92998e-06
6.9299e-06
6.92981e-06
6.92973e-06
6.92965e-06
6.92958e-06
6.92952e-06
6.92946e-06
6.92941e-06
6.92937e-06
6.92934e-06
6.92931e-06
6.92929e-06
6.92928e-06
6.92927e-06
6.92926e-06
6.92926e-06
6.92925e-06
6.92924e-06
6.92922e-06
6.9292e-06
6.92917e-06
6.92913e-06
6.92907e-06
6.92901e-06
6.92892e-06
6.92882e-06
6.92871e-06
6.92857e-06
6.92841e-06
6.92823e-06
6.92803e-06
6.92781e-06
6.92756e-06
6.92728e-06
6.92698e-06
6.92664e-06
6.92627e-06
6.92586e-06
6.92541e-06
6.92493e-06
6.92439e-06
6.92382e-06
6.92319e-06
6.92252e-06
6.9218e-06
6.92102e-06
6.9202e-06
6.91933e-06
6.91841e-06
6.91744e-06
6.91643e-06
6.91538e-06
6.9143e-06
6.91319e-06
6.91205e-06
6.9109e-06
6.90973e-06
6.90856e-06
6.90739e-06
6.90623e-06
6.90509e-06
6.90397e-06
6.90287e-06
6.90181e-06
6.90078e-06
6.89979e-06
6.89885e-06
6.89796e-06
6.89712e-06
6.89633e-06
6.89559e-06
6.89491e-06
6.89427e-06
6.89369e-06
6.89315e-06
6.89266e-06
6.89222e-06
6.89181e-06
6.89145e-06
6.89112e-06
6.89083e-06
6.89056e-06
6.89032e-06
6.89011e-06
6.88992e-06
6.88975e-06
6.88959e-06
6.88945e-06
6.88932e-06
6.88921e-06
6.8891e-06
6.889e-06
6.88891e-06
6.88882e-06
6.88874e-06
6.88867e-06
6.88859e-06
6.88852e-06
6.88845e-06
6.88839e-06
6.88832e-06
6.88826e-06
6.8882e-06
6.88813e-06
6.88807e-06
6.88801e-06
6.88795e-06
6.88789e-06
6.88783e-06
6.88777e-06
6.88772e-06
6.88766e-06
6.8876e-06
6.88754e-06
6.88748e-06
6.88742e-06
6.88737e-06
6.88731e-06
6.88725e-06
6.8872e-06
6.88714e-06
6.88708e-06
6.88703e-06
6.88697e-06
6.88691e-06
6.88686e-06
6.8868e-06
6.88674e-06
6.88669e-06
6.88663e-06
6.88657e-06
6.88652e-06
6.88646e-06
6.88641e-06
6.88635e-06
6.88629e-06
6.88624e-06
6.88618e-06
6.88613e-06
6.88607e-06
6.88602e-06
6.88596e-06
6.88591e-06
6.88586e-06
6.8858e-06
6.88575e-06
6.8857e-06
6.88565e-06
6.88559e-06
6.88554e-06
6.88549e-06
6.88544e-06
6.88538e-06
6.88533e-06
6.88528e-06
6.88523e-06
6.88518e-06
6.88512e-06
6.88507e-06
6.88502e-06
6.88497e-06
6.88492e-06
6.88487e-06
6.88481e-06
6.88476e-06
6.88471e-06
6.88466e-06
6.88461e-06
6.88456e-06
6.88451e-06
6.88446e-06
6.8844e-06
6.88435e-06
6.8843e-06
6.88425e-06
6.8842e-06
6.88415e-06
6.8841e-06
6.88405e-06
6.884e-06
6.88395e-06
6.8839e-06
6.88386e-06
6.88381e-06
6.88376e-06
6.88371e-06
6.88366e-06
6.88361e-06
6.88356e-06
6.88352e-06
6.88347e-06
6.88342e-06
6.88337e-06
6.88333e-06
6.88328e-06
6.88323e-06
6.88319e-06
6.88314e-06
6.8831e-06
6.88305e-06
6.88301e-06
6.88296e-06
6.88292e-06
6.88288e-06
6.88284e-06
6.88279e-06
6.88275e-06
6.88271e-06
6.88267e-06
6.88263e-06
6.88259e-06
6.88255e-06
6.88251e-06
6.88247e-06
6.88244e-06
6.8824e-06
6.88236e-06
6.88233e-06
6.8823e-06
6.88226e-06
6.88223e-06
6.8822e-06
6.88217e-06
6.88213e-06
6.88211e-06
6.88208e-06
6.88205e-06
6.88202e-06
6.882e-06
6.88197e-06
6.88195e-06
6.88192e-06
6.8819e-06
6.88188e-06
6.88186e-06
6.88184e-06
6.88182e-06
6.88181e-06
6.88179e-06
6.88178e-06
6.88176e-06
6.88175e-06
6.88174e-06
6.88173e-06
6.88173e-06
6.88172e-06
6.88171e-06
6.88171e-06
6.88171e-06
6.88171e-06
6.88171e-06
6.88171e-06
6.88171e-06
6.88171e-06
6.88172e-06
6.88173e-06
6.88175e-06
6.88182e-06
6.88203e-06
6.88265e-06
6.88451e-06
6.88989e-06
6.90467e-06
6.93978e-06
6.99925e-06
7.06176e-06
7.10745e-06
7.13709e-06
7.15701e-06
7.17115e-06
7.1813e-06
7.18858e-06
7.19376e-06
7.19754e-06
7.20039e-06
7.20263e-06
7.20444e-06
7.20593e-06
7.2072e-06
7.20829e-06
7.20924e-06
7.21008e-06
7.21083e-06
7.21151e-06
7.21212e-06
7.21268e-06
7.21319e-06
7.21366e-06
7.2141e-06
7.2145e-06
7.21488e-06
7.21523e-06
7.21556e-06
7.21587e-06
7.21616e-06
7.21644e-06
7.2167e-06
7.21694e-06
7.21717e-06
7.21739e-06
7.2176e-06
7.21779e-06
7.21796e-06
7.21813e-06
7.2183e-06
7.21845e-06
7.21861e-06
7.21875e-06
7.21889e-06
7.21903e-06
7.21916e-06
7.21929e-06
7.21941e-06
7.21953e-06
7.21965e-06
7.21976e-06
7.21987e-06
7.21998e-06
7.22009e-06
7.22019e-06
7.22029e-06
7.22039e-06
7.22048e-06
7.22057e-06
7.22066e-06
7.22075e-06
7.22084e-06
7.22092e-06
7.221e-06
7.22107e-06
7.22115e-06
7.22122e-06
7.22129e-06
7.22136e-06
7.22143e-06
7.22149e-06
7.22156e-06
7.22162e-06
7.22168e-06
7.22174e-06
7.22179e-06
7.22185e-06
7.2219e-06
7.22196e-06
7.22201e-06
7.22206e-06
7.22211e-06
7.22216e-06
7.22221e-06
7.22226e-06
7.2223e-06
7.22235e-06
7.2224e-06
7.22245e-06
7.22249e-06
7.22254e-06
7.22258e-06
7.22263e-06
7.22267e-06
7.22272e-06
7.22276e-06
7.22281e-06
7.22285e-06
7.22289e-06
7.22294e-06
7.22298e-06
7.22303e-06
7.22307e-06
7.22311e-06
7.22315e-06
7.2232e-06
7.22324e-06
7.22328e-06
7.22332e-06
7.22336e-06
7.2234e-06
7.22344e-06
7.22348e-06
7.22352e-06
7.22356e-06
7.2236e-06
7.22364e-06
7.22368e-06
7.22371e-06
7.22375e-06
7.22378e-06
7.22381e-06
7.22385e-06
7.22388e-06
7.22391e-06
7.22394e-06
7.22397e-06
7.224e-06
7.22403e-06
7.22405e-06
7.22408e-06
7.22411e-06
7.22413e-06
7.22415e-06
7.22418e-06
7.2242e-06
7.22422e-06
7.22424e-06
7.22427e-06
7.22429e-06
7.22431e-06
7.22433e-06
7.22435e-06
7.22437e-06
7.22439e-06
7.22442e-06
7.22444e-06
7.22446e-06
7.22448e-06
7.22451e-06
7.22453e-06
7.22455e-06
7.22458e-06
7.2246e-06
7.22463e-06
7.22465e-06
7.22468e-06
7.22471e-06
7.22473e-06
7.22476e-06
7.22479e-06
7.22481e-06
7.22484e-06
7.22487e-06
7.2249e-06
7.22492e-06
7.22495e-06
7.22498e-06
7.22501e-06
7.22503e-06
7.22506e-06
7.22509e-06
7.22511e-06
7.22514e-06
7.22516e-06
7.22519e-06
7.22521e-06
7.22523e-06
7.22525e-06
7.22527e-06
7.22529e-06
7.22531e-06
7.22533e-06
7.22535e-06
7.22536e-06
7.22538e-06
7.22539e-06
7.22541e-06
7.22542e-06
7.22543e-06
7.22544e-06
7.22545e-06
7.22546e-06
7.22546e-06
7.22547e-06
7.22547e-06
7.22547e-06
7.22548e-06
7.22548e-06
7.22547e-06
7.22547e-06
7.22547e-06
7.22546e-06
7.22545e-06
7.22545e-06
7.22543e-06
7.22542e-06
7.22541e-06
7.22539e-06
7.22537e-06
7.22535e-06
7.22533e-06
7.22531e-06
7.22528e-06
7.22525e-06
7.22522e-06
7.22519e-06
7.22515e-06
7.22512e-06
7.22508e-06
7.22504e-06
7.22499e-06
7.22495e-06
)
;

boundaryField
{
    boundary
    {
        type            empty;
        value           nonuniform 0();
    }
    inlet
    {
        type            calculated;
        value           uniform -6.93094e-06;
    }
    outlet
    {
        type            calculated;
        value           uniform 7.2249e-06;
    }
}


// ************************************************************************* //
