/*--------------------------------*- C++ -*----------------------------------*\
  =========                 |
  \\      /  F ield         | OpenFOAM: The Open Source CFD Toolbox
   \\    /   O peration     | Website:  https://openfoam.org
    \\  /    A nd           | Version:  7
     \\/     M anipulation  |
\*---------------------------------------------------------------------------*/
FoamFile
{
    version     2.0;
    format      ascii;
    class       volScalarField;
    location    "0.00098";
    object      rho;
}
// * * * * * * * * * * * * * * * * * * * * * * * * * * * * * * * * * * * * * //

dimensions      [1 -3 0 0 0 0 0];

internalField   nonuniform List<scalar> 
500
(
0.864773
0.864772
0.864772
0.864771
0.864769
0.864768
0.864765
0.864763
0.864761
0.864758
0.864757
0.864755
0.864754
0.864753
0.864754
0.864755
0.864756
0.864759
0.864763
0.864767
0.864772
0.864779
0.864786
0.864793
0.864802
0.86481
0.864818
0.864826
0.864833
0.86484
0.864846
0.86485
0.864853
0.864854
0.864853
0.864851
0.864846
0.864839
0.864829
0.864817
0.864802
0.864784
0.864763
0.864739
0.864711
0.864679
0.864643
0.864603
0.864557
0.864507
0.864452
0.864391
0.864324
0.864251
0.864172
0.864087
0.863996
0.863898
0.863794
0.863684
0.863569
0.863449
0.863325
0.863196
0.863064
0.86293
0.862794
0.862657
0.862519
0.862383
0.862248
0.862115
0.861985
0.861859
0.861738
0.861621
0.86151
0.861405
0.861305
0.861212
0.861126
0.861045
0.860972
0.860904
0.860843
0.860787
0.860737
0.860693
0.860653
0.860618
0.860588
0.860561
0.860537
0.860517
0.8605
0.860485
0.860473
0.860462
0.860453
0.860446
0.86044
0.860435
0.860431
0.860427
0.860424
0.860422
0.86042
0.860419
0.860418
0.860417
0.860416
0.860415
0.860415
0.860414
0.860414
0.860414
0.860414
0.860413
0.860413
0.860413
0.860413
0.860413
0.860413
0.860413
0.860413
0.860413
0.860412
0.860412
0.860412
0.860412
0.860412
0.860412
0.860412
0.860411
0.860411
0.860411
0.860411
0.86041
0.86041
0.86041
0.860409
0.860409
0.860409
0.860408
0.860408
0.860407
0.860407
0.860407
0.860406
0.860406
0.860406
0.860405
0.860405
0.860405
0.860404
0.860404
0.860404
0.860404
0.860403
0.860403
0.860403
0.860402
0.860402
0.860402
0.860401
0.860401
0.860401
0.8604
0.8604
0.860399
0.860399
0.860398
0.860398
0.860397
0.860397
0.860396
0.860396
0.860395
0.860395
0.860394
0.860394
0.860393
0.860392
0.860392
0.860391
0.860391
0.86039
0.860389
0.860389
0.860388
0.860388
0.860387
0.860386
0.860386
0.860385
0.860385
0.860384
0.860383
0.860383
0.860382
0.860382
0.860381
0.860381
0.86038
0.86038
0.860379
0.860379
0.860378
0.860378
0.860377
0.860377
0.860377
0.860376
0.860376
0.860376
0.860376
0.860376
0.860375
0.860375
0.860375
0.860375
0.860376
0.860376
0.860376
0.860376
0.860377
0.860377
0.860378
0.860378
0.860379
0.860379
0.86038
0.860381
0.860382
0.860383
0.860384
0.860386
0.860387
0.860388
0.86039
0.860392
0.860393
0.860395
0.860397
0.860399
0.860402
0.860404
0.860407
0.860409
0.860412
0.860415
0.860419
0.860422
0.860425
0.860429
0.860433
0.860436
0.86044
0.860444
0.860449
0.860453
0.860458
0.860463
0.860468
0.860474
0.860479
0.860481
0.860467
0.860399
0.860158
0.859383
0.857004
0.849946
0.829892
0.77845
0.675501
0.539924
0.4232
0.344315
0.292766
0.257267
0.232001
0.214302
0.20123
0.191221
0.184061
0.178797
0.174591
0.171156
0.168284
0.165837
0.163719
0.161861
0.160215
0.158743
0.157415
0.156211
0.155111
0.154102
0.153172
0.152311
0.151512
0.150767
0.15007
0.149417
0.148803
0.148225
0.147679
0.147163
0.146674
0.146211
0.145772
0.145365
0.144985
0.144618
0.144266
0.143926
0.143599
0.143283
0.142978
0.142684
0.142399
0.142124
0.141857
0.141598
0.141347
0.141104
0.140868
0.140639
0.140416
0.140199
0.139988
0.139783
0.139583
0.139388
0.139199
0.139014
0.138833
0.138657
0.138485
0.138317
0.138153
0.137992
0.137835
0.137682
0.137532
0.137385
0.137241
0.1371
0.136962
0.136827
0.136695
0.136565
0.136438
0.136313
0.13619
0.13607
0.135952
0.135836
0.135722
0.135611
0.135501
0.135393
0.135287
0.135183
0.135081
0.13498
0.134881
0.134784
0.134688
0.134594
0.134501
0.13441
0.134321
0.134233
0.134147
0.134061
0.133977
0.133894
0.133812
0.133731
0.133651
0.133573
0.133496
0.133419
0.133344
0.13327
0.133197
0.133125
0.133054
0.132983
0.132914
0.132846
0.132778
0.132712
0.132646
0.132581
0.132517
0.132453
0.132391
0.132329
0.132268
0.132208
0.132148
0.132089
0.132031
0.131974
0.131917
0.131861
0.131805
0.13175
0.131696
0.131642
0.131589
0.131537
0.131485
0.131434
0.131383
0.131333
0.131283
0.131234
0.131185
0.131137
0.13109
0.131043
0.130997
0.130951
0.130905
0.13086
0.130816
0.130772
0.130728
0.130685
0.130642
0.1306
0.130558
0.130517
0.130476
0.130436
0.130396
0.130356
0.130316
0.130278
0.130239
0.130201
0.130163
0.130126
0.130088
0.130052
0.130015
0.129979
0.129943
0.129908
0.129873
0.129838
0.129804
0.129769
0.129736
0.129702
0.129669
0.129636
0.129603
0.129571
0.129538
0.129507
0.129475
0.129444
0.129412
0.129382
0.129351
0.129321
0.129291
0.129261
0.129231
0.129202
0.129173
0.129144
0.129115
0.129087
0.129058
0.12903
0.129002
0.128975
0.128947
0.12892
0.128893
0.128866
0.128839
0.128812
0.128786
0.128759
0.128733
0.128706
0.12868
0.128653
0.128627
0.128601
0.128576
0.128554
0.128539
)
;

boundaryField
{
    boundary
    {
        type            empty;
    }
    inlet
    {
        type            calculated;
        value           uniform 0.864774;
    }
    outlet
    {
        type            calculated;
        value           uniform 0.128539;
    }
}


// ************************************************************************* //
