/*--------------------------------*- C++ -*----------------------------------*\
  =========                 |
  \\      /  F ield         | OpenFOAM: The Open Source CFD Toolbox
   \\    /   O peration     | Website:  https://openfoam.org
    \\  /    A nd           | Version:  7
     \\/     M anipulation  |
\*---------------------------------------------------------------------------*/
FoamFile
{
    version     2.0;
    format      ascii;
    class       volScalarField;
    location    "0.00098";
    object      T;
}
// * * * * * * * * * * * * * * * * * * * * * * * * * * * * * * * * * * * * * //

dimensions      [0 0 0 1 0 0 0];

internalField   nonuniform List<scalar> 
500
(
300
300.001
300.001
300.001
300.002
300.002
300.003
300.004
300.005
300.005
300.006
300.007
300.007
300.007
300.007
300.007
300.006
300.005
300.004
300.002
300
299.998
299.996
299.993
299.99
299.988
299.985
299.982
299.979
299.977
299.975
299.974
299.973
299.972
299.973
299.973
299.975
299.978
299.981
299.985
299.99
299.997
300.004
300.012
300.022
300.033
300.046
300.06
300.075
300.093
300.112
300.133
300.156
300.181
300.209
300.239
300.27
300.304
300.34
300.379
300.419
300.46
300.504
300.549
300.594
300.641
300.689
300.737
300.784
300.832
300.879
300.925
300.971
301.015
301.057
301.098
301.137
301.174
301.208
301.241
301.271
301.299
301.325
301.349
301.37
301.39
301.407
301.423
301.437
301.449
301.46
301.469
301.477
301.484
301.49
301.496
301.5
301.504
301.507
301.509
301.512
301.513
301.515
301.516
301.517
301.518
301.519
301.519
301.519
301.52
301.52
301.52
301.52
301.521
301.521
301.521
301.521
301.521
301.521
301.521
301.521
301.521
301.521
301.521
301.521
301.521
301.521
301.522
301.522
301.522
301.522
301.522
301.522
301.522
301.522
301.522
301.522
301.522
301.522
301.523
301.523
301.523
301.523
301.523
301.523
301.523
301.524
301.524
301.524
301.524
301.524
301.524
301.524
301.525
301.525
301.525
301.525
301.525
301.525
301.525
301.525
301.525
301.526
301.526
301.526
301.526
301.526
301.526
301.526
301.527
301.527
301.527
301.527
301.527
301.528
301.528
301.528
301.528
301.528
301.529
301.529
301.529
301.529
301.529
301.53
301.53
301.53
301.53
301.531
301.531
301.531
301.531
301.532
301.532
301.532
301.532
301.532
301.533
301.533
301.533
301.533
301.534
301.534
301.534
301.534
301.534
301.535
301.535
301.535
301.535
301.535
301.535
301.535
301.535
301.536
301.536
301.536
301.536
301.536
301.536
301.536
301.536
301.536
301.536
301.536
301.536
301.535
301.535
301.535
301.535
301.535
301.534
301.534
301.534
301.533
301.533
301.533
301.532
301.532
301.531
301.531
301.53
301.529
301.529
301.528
301.527
301.526
301.525
301.524
301.524
301.522
301.521
301.52
301.519
301.518
301.517
301.515
301.514
301.512
301.511
301.509
301.508
301.506
301.505
301.504
301.504
301.508
301.521
301.563
301.686
302.036
303.037
305.89
313.969
336.109
390.054
492.853
636.167
791.462
941.708
1082.59
1210.1
1317.7
1409.47
1487.08
1548.75
1597.78
1639.43
1675.28
1706.61
1734.37
1759.22
1781.67
1802.11
1820.84
1838.1
1854.08
1868.94
1882.8
1895.79
1907.98
1919.46
1930.31
1940.57
1950.29
1959.54
1968.34
1976.72
1984.73
1992.38
1999.69
2006.69
2013.2
2019.34
2025.3
2031.06
2036.65
2042.06
2047.31
2052.42
2057.37
2062.19
2066.87
2071.43
2075.87
2080.19
2084.41
2088.52
2092.52
2096.43
2100.25
2103.98
2107.62
2111.18
2114.66
2118.07
2121.4
2124.66
2127.86
2130.98
2134.05
2137.05
2140
2142.89
2145.72
2148.5
2151.23
2153.9
2156.53
2159.12
2161.65
2164.14
2166.59
2169
2171.37
2173.7
2175.99
2178.24
2180.46
2182.64
2184.79
2186.9
2188.98
2191.03
2193.05
2195.04
2197
2198.93
2200.83
2202.71
2204.56
2206.38
2208.17
2209.94
2211.68
2213.39
2215.08
2216.75
2218.41
2220.04
2221.66
2223.25
2224.82
2226.38
2227.91
2229.42
2230.92
2232.4
2233.86
2235.3
2236.72
2238.13
2239.52
2240.9
2242.26
2243.6
2244.93
2246.25
2247.55
2248.83
2250.1
2251.36
2252.6
2253.84
2255.05
2256.26
2257.45
2258.63
2259.8
2260.95
2262.1
2263.23
2264.35
2265.46
2266.56
2267.64
2268.72
2269.78
2270.84
2271.88
2272.91
2273.94
2274.95
2275.95
2276.95
2277.93
2278.9
2279.87
2280.82
2281.77
2282.7
2283.63
2284.55
2285.45
2286.35
2287.25
2288.13
2289.01
2289.87
2290.73
2291.58
2292.42
2293.26
2294.09
2294.91
2295.72
2296.53
2297.33
2298.12
2298.9
2299.68
2300.45
2301.22
2301.98
2302.73
2303.47
2304.21
2304.95
2305.67
2306.4
2307.11
2307.82
2308.53
2309.22
2309.92
2310.6
2311.29
2311.96
2312.63
2313.3
2313.96
2314.62
2315.27
2315.92
2316.56
2317.19
2317.82
2318.45
2319.07
2319.69
2320.3
2320.91
2321.52
2322.12
2322.71
2323.31
2323.89
2324.48
2325.06
2325.63
2326.2
2326.77
2327.33
2327.89
2328.44
2328.98
2329.51
2330.01
2330.44
2330.72
)
;

boundaryField
{
    boundary
    {
        type            empty;
    }
    inlet
    {
        type            fixedValue;
        value           uniform 300;
    }
    outlet
    {
        type            zeroGradient;
    }
}


// ************************************************************************* //
