/*--------------------------------*- C++ -*----------------------------------*\
  =========                 |
  \\      /  F ield         | OpenFOAM: The Open Source CFD Toolbox
   \\    /   O peration     | Website:  https://openfoam.org
    \\  /    A nd           | Version:  7
     \\/     M anipulation  |
\*---------------------------------------------------------------------------*/
FoamFile
{
    version     2.0;
    format      ascii;
    class       volScalarField;
    location    "0.00011";
    object      H;
}
// * * * * * * * * * * * * * * * * * * * * * * * * * * * * * * * * * * * * * //

dimensions      [0 0 0 0 0 0 0];

internalField   nonuniform List<scalar> 
500
(
1.50386e-41
2.07002e-41
2.24173e-41
2.34698e-41
2.45401e-41
2.57201e-41
2.69559e-41
2.81607e-41
2.92547e-41
3.01832e-41
3.09234e-41
3.14798e-41
3.18762e-41
3.21446e-41
3.23183e-41
3.24259e-41
3.249e-41
3.25269e-41
3.25474e-41
3.25586e-41
3.25647e-41
3.25681e-41
3.257e-41
3.25713e-41
3.25723e-41
3.25731e-41
3.25739e-41
3.25747e-41
3.25755e-41
3.25764e-41
3.25772e-41
3.25781e-41
3.25791e-41
3.258e-41
3.2581e-41
3.2582e-41
3.25831e-41
3.25842e-41
3.25853e-41
3.25864e-41
3.25876e-41
3.25888e-41
3.25901e-41
3.25913e-41
3.25927e-41
3.2594e-41
3.25954e-41
3.25968e-41
3.25983e-41
3.25997e-41
3.26013e-41
3.26028e-41
3.26044e-41
3.26061e-41
3.26077e-41
3.26094e-41
3.26112e-41
3.2613e-41
3.26148e-41
3.26167e-41
3.26186e-41
3.26205e-41
3.26225e-41
3.26245e-41
3.26266e-41
3.26287e-41
3.26309e-41
3.26331e-41
3.26353e-41
3.26376e-41
3.26399e-41
3.26423e-41
3.26447e-41
3.26472e-41
3.26497e-41
3.26523e-41
3.26549e-41
3.26575e-41
3.26602e-41
3.2663e-41
3.26658e-41
3.26687e-41
3.26716e-41
3.26745e-41
3.26775e-41
3.26806e-41
3.26837e-41
3.26868e-41
3.26901e-41
3.26933e-41
3.26966e-41
3.27e-41
3.27034e-41
3.27069e-41
3.27104e-41
3.2714e-41
3.27176e-41
3.27213e-41
3.2725e-41
3.27288e-41
3.27326e-41
3.27365e-41
3.27404e-41
3.27444e-41
3.27484e-41
3.27525e-41
3.27566e-41
3.27608e-41
3.2765e-41
3.27692e-41
3.27736e-41
3.27779e-41
3.27823e-41
3.27867e-41
3.27912e-41
3.27957e-41
3.28002e-41
3.28048e-41
3.28094e-41
3.2814e-41
3.28186e-41
3.28231e-41
3.28275e-41
3.28316e-41
3.2835e-41
3.28379e-41
3.2842e-41
3.28458e-41
3.28499e-41
3.28546e-41
3.28599e-41
3.28656e-41
3.28716e-41
3.28775e-41
3.28833e-41
3.28889e-41
3.28942e-41
3.28993e-41
3.29042e-41
3.2909e-41
3.29137e-41
3.29183e-41
3.29229e-41
3.29273e-41
3.29317e-41
3.2936e-41
3.29402e-41
3.29444e-41
3.29484e-41
3.29524e-41
3.29562e-41
3.29599e-41
3.29635e-41
3.29669e-41
3.29702e-41
3.29734e-41
3.29764e-41
3.29792e-41
3.29819e-41
3.29843e-41
3.29866e-41
3.29886e-41
3.29905e-41
3.2992e-41
3.29934e-41
3.29945e-41
3.29953e-41
3.29959e-41
3.29961e-41
3.29961e-41
3.29958e-41
3.29951e-41
3.29941e-41
3.29927e-41
3.2991e-41
3.29889e-41
3.29865e-41
3.29836e-41
3.29803e-41
3.29766e-41
3.29724e-41
3.29678e-41
3.29628e-41
3.29572e-41
3.29512e-41
3.29447e-41
3.29377e-41
3.29302e-41
3.29221e-41
3.29135e-41
3.29043e-41
3.28946e-41
3.28843e-41
3.28735e-41
3.2862e-41
3.285e-41
3.28374e-41
3.28242e-41
3.28103e-41
3.27959e-41
3.27808e-41
3.27651e-41
3.27489e-41
3.27319e-41
3.27144e-41
3.26963e-41
3.26775e-41
3.26581e-41
3.26381e-41
3.26175e-41
3.25964e-41
3.25746e-41
3.25523e-41
3.25294e-41
3.25059e-41
3.24819e-41
3.24574e-41
3.24324e-41
3.24068e-41
3.23808e-41
3.23543e-41
3.23274e-41
3.23e-41
3.22723e-41
3.22441e-41
3.22156e-41
3.21867e-41
3.21575e-41
3.2128e-41
3.20983e-41
3.20689e-41
3.20431e-41
3.20456e-41
3.22576e-41
3.40033e-41
4.69331e-41
1.41097e-40
8.22634e-40
5.72946e-39
4.08558e-38
2.90727e-37
2.05585e-36
1.44306e-35
1.00477e-34
6.93542e-34
4.74286e-33
3.21144e-32
2.15164e-31
1.42547e-30
9.3317e-30
6.03207e-29
3.90374e-28
2.45859e-27
1.52692e-26
9.3439e-26
5.6313e-25
3.34095e-24
1.95053e-23
1.1203e-22
6.3291e-22
3.517e-21
1.92268e-20
1.03456e-19
5.48398e-19
2.86773e-18
1.48258e-17
7.60164e-17
3.88309e-16
1.98862e-15
1.02946e-14
5.4413e-14
2.96793e-13
1.78931e-12
1.30885e-11
1.21689e-10
1.15612e-09
1.08096e-08
1.00588e-07
8.88933e-07
6.83735e-06
3.97322e-05
0.000148161
0.000354892
0.000645759
0.000994835
0.0013489
0.00163814
0.00182241
0.00190843
0.00191643
0.00187916
0.00181781
0.00174592
0.00167142
0.00159857
0.00152946
0.00146494
0.00140517
0.00134997
0.00129902
0.00125191
0.00120824
0.00116764
0.00112974
0.00109424
0.00106084
0.0010293
0.000999392
0.000970921
0.000943709
0.000917602
0.000892461
0.000868874
0.000846512
0.000824632
0.000803172
0.000782076
0.000761294
0.000740784
0.000720511
0.000700445
0.000680564
0.000660853
0.0006413
0.000621901
0.000602655
0.000583566
0.000564644
0.0005459
0.000527348
0.000509006
0.000490894
0.000473032
0.000455442
0.000438147
0.000421168
0.000404529
0.000388251
0.000372354
0.000356858
0.000341782
0.000327142
0.000312952
0.000299225
0.000285972
0.000273202
0.000260921
0.000249133
0.000237841
0.000227045
0.000216744
0.000206934
0.00019761
0.000188765
0.000180389
0.000172475
0.00016501
0.000157982
0.000151378
0.000145184
0.000139385
0.000133967
0.000128913
0.000124208
0.000119835
0.000115779
0.000112023
0.000108552
0.000105349
0.0001024
9.96893e-05
9.72023e-05
9.49248e-05
9.28431e-05
9.09441e-05
8.92154e-05
8.76472e-05
8.62286e-05
8.49472e-05
8.3792e-05
8.2753e-05
8.18208e-05
8.09865e-05
8.02416e-05
7.95783e-05
7.89893e-05
7.84675e-05
7.80064e-05
7.76002e-05
7.72431e-05
7.69301e-05
7.66565e-05
7.64179e-05
7.62104e-05
7.60305e-05
7.58748e-05
7.57406e-05
7.56251e-05
7.55261e-05
7.54414e-05
7.53691e-05
7.53077e-05
7.52557e-05
7.52117e-05
7.51746e-05
7.51434e-05
7.51174e-05
7.50956e-05
7.50774e-05
7.50624e-05
7.50499e-05
7.50397e-05
7.50313e-05
7.50244e-05
7.50187e-05
7.50141e-05
7.50104e-05
7.50074e-05
7.5005e-05
7.50031e-05
7.50015e-05
7.50003e-05
7.49994e-05
7.49986e-05
7.4998e-05
7.49976e-05
7.49972e-05
7.4997e-05
7.49968e-05
7.49967e-05
7.49966e-05
7.49965e-05
7.49965e-05
7.49964e-05
7.49964e-05
7.49964e-05
7.49964e-05
7.49965e-05
7.49965e-05
7.49965e-05
7.49965e-05
7.49965e-05
7.49965e-05
7.49966e-05
7.49966e-05
7.49966e-05
7.49966e-05
7.49966e-05
7.49966e-05
7.49966e-05
7.49966e-05
7.49966e-05
7.49966e-05
7.49966e-05
7.49966e-05
7.49966e-05
7.49966e-05
7.49966e-05
7.49965e-05
7.49965e-05
7.49965e-05
7.49965e-05
7.49964e-05
7.49964e-05
7.49964e-05
7.49963e-05
7.49963e-05
7.49962e-05
7.49962e-05
7.49961e-05
7.49961e-05
7.4996e-05
7.4996e-05
7.49959e-05
7.49958e-05
7.49958e-05
7.49957e-05
7.49956e-05
7.49955e-05
7.49954e-05
7.49954e-05
7.49953e-05
7.49952e-05
7.49951e-05
7.4995e-05
7.49949e-05
7.49948e-05
7.49947e-05
7.49946e-05
7.49944e-05
7.49943e-05
7.49942e-05
7.49941e-05
7.4994e-05
7.49939e-05
7.49938e-05
7.49937e-05
7.49936e-05
7.49935e-05
7.49935e-05
)
;

boundaryField
{
    boundary
    {
        type            empty;
    }
    inlet
    {
        type            fixedValue;
        value           uniform 0;
    }
    outlet
    {
        type            zeroGradient;
    }
}


// ************************************************************************* //
