/*--------------------------------*- C++ -*----------------------------------*\
  =========                 |
  \\      /  F ield         | OpenFOAM: The Open Source CFD Toolbox
   \\    /   O peration     | Website:  https://openfoam.org
    \\  /    A nd           | Version:  7
     \\/     M anipulation  |
\*---------------------------------------------------------------------------*/
FoamFile
{
    version     2.0;
    format      ascii;
    class       volScalarField;
    location    "0.00011";
    object      H2;
}
// * * * * * * * * * * * * * * * * * * * * * * * * * * * * * * * * * * * * * //

dimensions      [0 0 0 0 0 0 0];

internalField   nonuniform List<scalar> 
500
(
0.0285116
0.0285116
0.0285116
0.0285116
0.0285116
0.0285116
0.0285116
0.0285116
0.0285116
0.0285116
0.0285116
0.0285116
0.0285116
0.0285116
0.0285116
0.0285116
0.0285116
0.0285116
0.0285116
0.0285116
0.0285116
0.0285116
0.0285116
0.0285116
0.0285116
0.0285116
0.0285116
0.0285116
0.0285116
0.0285116
0.0285116
0.0285116
0.0285116
0.0285116
0.0285116
0.0285116
0.0285116
0.0285116
0.0285116
0.0285116
0.0285116
0.0285116
0.0285116
0.0285116
0.0285116
0.0285116
0.0285116
0.0285116
0.0285116
0.0285116
0.0285116
0.0285116
0.0285116
0.0285116
0.0285116
0.0285116
0.0285116
0.0285116
0.0285116
0.0285116
0.0285116
0.0285116
0.0285116
0.0285116
0.0285116
0.0285116
0.0285116
0.0285116
0.0285116
0.0285116
0.0285116
0.0285116
0.0285116
0.0285116
0.0285116
0.0285116
0.0285116
0.0285116
0.0285116
0.0285116
0.0285116
0.0285116
0.0285116
0.0285116
0.0285116
0.0285116
0.0285116
0.0285116
0.0285116
0.0285116
0.0285116
0.0285116
0.0285116
0.0285116
0.0285116
0.0285116
0.0285116
0.0285116
0.0285116
0.0285116
0.0285116
0.0285116
0.0285116
0.0285116
0.0285116
0.0285116
0.0285116
0.0285116
0.0285116
0.0285116
0.0285116
0.0285116
0.0285116
0.0285116
0.0285116
0.0285116
0.0285116
0.0285116
0.0285116
0.0285116
0.0285116
0.0285116
0.0285116
0.0285116
0.0285116
0.0285116
0.0285116
0.0285116
0.0285116
0.0285116
0.0285116
0.0285116
0.0285116
0.0285116
0.0285116
0.0285116
0.0285116
0.0285116
0.0285116
0.0285116
0.0285116
0.0285116
0.0285116
0.0285116
0.0285116
0.0285116
0.0285116
0.0285116
0.0285116
0.0285116
0.0285116
0.0285116
0.0285116
0.0285116
0.0285116
0.0285116
0.0285116
0.0285116
0.0285116
0.0285116
0.0285116
0.0285116
0.0285116
0.0285116
0.0285116
0.0285116
0.0285116
0.0285116
0.0285116
0.0285116
0.0285116
0.0285116
0.0285116
0.0285116
0.0285116
0.0285116
0.0285116
0.0285116
0.0285116
0.0285116
0.0285116
0.0285116
0.0285116
0.0285116
0.0285116
0.0285116
0.0285116
0.0285116
0.0285116
0.0285116
0.0285116
0.0285116
0.0285116
0.0285116
0.0285116
0.0285116
0.0285116
0.0285116
0.0285116
0.0285116
0.0285116
0.0285116
0.0285116
0.0285116
0.0285116
0.0285116
0.0285116
0.0285116
0.0285116
0.0285116
0.0285116
0.0285116
0.0285116
0.0285116
0.0285116
0.0285116
0.0285116
0.0285116
0.0285116
0.0285116
0.0285116
0.0285116
0.0285116
0.0285116
0.0285116
0.0285116
0.0285116
0.0285116
0.0285116
0.0285116
0.0285116
0.0285116
0.0285116
0.0285116
0.0285116
0.0285116
0.0285116
0.0285116
0.0285116
0.0285116
0.0285116
0.0285116
0.0285116
0.0285116
0.0285116
0.0285116
0.0285116
0.0285116
0.0285116
0.0285116
0.0285116
0.0285116
0.0285116
0.0285116
0.0285116
0.0285116
0.0285116
0.0285116
0.0285116
0.0285116
0.0285116
0.0285116
0.0285116
0.0285116
0.0285116
0.0285116
0.0285116
0.0285115
0.0285114
0.0285111
0.0285103
0.0285084
0.0285038
0.028493
0.0284682
0.0284132
0.0282942
0.0280446
0.0275455
0.0266266
0.0251293
0.0230336
0.02051
0.0176776
0.0146401
0.0116684
0.00912865
0.00723039
0.00584509
0.00502077
0.00450987
0.00419759
0.00400693
0.00388933
0.00381527
0.00376717
0.00373464
0.00371164
0.00369464
0.00368161
0.00367134
0.00366314
0.00365657
0.00365137
0.00364735
0.00364434
0.00364219
0.00364078
0.00363992
0.00363946
0.00363922
0.00363901
0.00363866
0.00363805
0.00363698
0.00363525
0.00363266
0.00362902
0.00362413
0.00361779
0.00360983
0.00360007
0.00358834
0.00357449
0.00355839
0.00353992
0.00351899
0.00349551
0.00346942
0.0034407
0.00340933
0.00337531
0.00333868
0.00329949
0.00325781
0.00321374
0.00316738
0.00311887
0.00306835
0.00301598
0.00296193
0.0029064
0.00284957
0.00279164
0.00273284
0.00267336
0.00261343
0.00255326
0.00249307
0.00243307
0.00237346
0.00231445
0.00225623
0.00219898
0.00214286
0.00208804
0.00203467
0.00198286
0.00193274
0.0018844
0.00183793
0.00179339
0.00175084
0.00171031
0.00167181
0.00163536
0.00160095
0.00156856
0.00153815
0.00150969
0.00148313
0.00145842
0.00143548
0.00141426
0.00139469
0.00137668
0.00136018
0.00134509
0.00133135
0.00131887
0.00130758
0.00129739
0.00128824
0.00128003
0.0012727
0.00126616
0.00126036
0.00125523
0.00125069
0.0012467
0.0012432
0.00124013
0.00123746
0.00123513
0.00123311
0.00123136
0.00122985
0.00122855
0.00122744
0.00122649
0.00122568
0.00122499
0.0012244
0.00122391
0.00122349
0.00122314
0.00122285
0.00122261
0.00122241
0.00122224
0.0012221
0.00122199
0.0012219
0.00122182
0.00122176
0.00122171
0.00122167
0.00122164
0.00122162
0.0012216
0.00122158
0.00122157
0.00122156
0.00122156
0.00122155
0.00122155
0.00122155
0.00122155
0.00122155
0.00122155
0.00122155
0.00122155
0.00122156
0.00122156
0.00122156
0.00122156
0.00122157
0.00122157
0.00122157
0.00122157
0.00122158
0.00122158
0.00122158
0.00122159
0.00122159
0.00122159
0.00122159
0.0012216
0.0012216
0.0012216
0.0012216
0.00122161
0.00122161
0.00122161
0.00122161
0.00122161
0.00122162
0.00122162
0.00122162
0.00122162
0.00122162
0.00122163
0.00122163
0.00122163
0.00122163
0.00122163
0.00122164
0.00122164
0.00122164
0.00122164
0.00122164
0.00122164
0.00122164
0.00122165
0.00122165
0.00122165
0.00122165
0.00122165
0.00122165
0.00122165
0.00122165
0.00122165
0.00122165
0.00122165
0.00122165
0.00122165
0.00122165
0.00122166
0.00122166
0.00122166
0.00122166
0.00122166
0.00122166
0.00122166
0.00122166
0.00122166
0.00122166
0.00122166
0.00122166
0.00122166
)
;

boundaryField
{
    boundary
    {
        type            empty;
    }
    inlet
    {
        type            fixedValue;
        value           uniform 0.0285116;
    }
    outlet
    {
        type            zeroGradient;
    }
}


// ************************************************************************* //
