/*--------------------------------*- C++ -*----------------------------------*\
  =========                 |
  \\      /  F ield         | OpenFOAM: The Open Source CFD Toolbox
   \\    /   O peration     | Website:  https://openfoam.org
    \\  /    A nd           | Version:  7
     \\/     M anipulation  |
\*---------------------------------------------------------------------------*/
FoamFile
{
    version     2.0;
    format      ascii;
    class       volScalarField;
    location    "0.00011";
    object      H2O2;
}
// * * * * * * * * * * * * * * * * * * * * * * * * * * * * * * * * * * * * * //

dimensions      [0 0 0 0 0 0 0];

internalField   nonuniform List<scalar> 
500
(
2.01567e-52
6.49333e-52
1.28633e-51
2.09143e-51
3.02365e-51
4.02388e-51
5.02338e-51
5.95653e-51
6.77273e-51
7.44347e-51
7.96293e-51
8.3432e-51
8.60718e-51
8.78147e-51
8.89123e-51
8.95734e-51
8.99552e-51
9.0167e-51
9.02802e-51
9.03386e-51
9.03676e-51
9.03815e-51
9.0388e-51
9.03909e-51
9.03921e-51
9.03926e-51
9.03927e-51
9.03927e-51
9.03926e-51
9.03926e-51
9.03925e-51
9.03924e-51
9.03924e-51
9.03923e-51
9.03923e-51
9.03923e-51
9.03923e-51
9.03924e-51
9.03924e-51
9.03925e-51
9.03926e-51
9.03928e-51
9.03929e-51
9.03931e-51
9.03934e-51
9.03937e-51
9.0394e-51
9.03944e-51
9.03948e-51
9.03952e-51
9.03957e-51
9.03963e-51
9.03969e-51
9.03976e-51
9.03983e-51
9.03991e-51
9.03999e-51
9.04009e-51
9.04018e-51
9.04029e-51
9.0404e-51
9.04052e-51
9.04065e-51
9.04079e-51
9.04093e-51
9.04108e-51
9.04124e-51
9.04141e-51
9.04159e-51
9.04178e-51
9.04198e-51
9.04219e-51
9.0424e-51
9.04263e-51
9.04287e-51
9.04312e-51
9.04338e-51
9.04365e-51
9.04393e-51
9.04422e-51
9.04452e-51
9.04484e-51
9.04516e-51
9.0455e-51
9.04586e-51
9.04622e-51
9.04659e-51
9.04698e-51
9.04738e-51
9.0478e-51
9.04823e-51
9.04867e-51
9.04912e-51
9.04958e-51
9.05006e-51
9.05056e-51
9.05106e-51
9.05158e-51
9.05212e-51
9.05266e-51
9.05322e-51
9.0538e-51
9.05438e-51
9.05498e-51
9.0556e-51
9.05622e-51
9.05686e-51
9.05751e-51
9.05818e-51
9.05886e-51
9.05955e-51
9.06025e-51
9.06096e-51
9.06169e-51
9.06243e-51
9.06317e-51
9.06393e-51
9.06469e-51
9.06545e-51
9.06615e-51
9.06656e-51
9.06585e-51
9.06086e-51
9.04129e-51
8.98416e-51
8.89067e-51
8.82456e-51
8.80995e-51
8.82537e-51
8.85679e-51
8.89582e-51
8.93644e-51
8.97413e-51
9.00607e-51
9.03113e-51
9.04954e-51
9.06233e-51
9.07084e-51
9.07633e-51
9.07985e-51
9.08216e-51
9.08375e-51
9.08493e-51
9.08589e-51
9.08672e-51
9.08749e-51
9.0882e-51
9.08888e-51
9.08952e-51
9.09013e-51
9.09071e-51
9.09126e-51
9.09176e-51
9.09223e-51
9.09265e-51
9.09302e-51
9.09335e-51
9.09362e-51
9.09383e-51
9.09399e-51
9.09409e-51
9.09411e-51
9.09407e-51
9.09396e-51
9.09377e-51
9.0935e-51
9.09314e-51
9.0927e-51
9.09216e-51
9.09152e-51
9.09079e-51
9.08995e-51
9.089e-51
9.08793e-51
9.08675e-51
9.08544e-51
9.08401e-51
9.08244e-51
9.08074e-51
9.0789e-51
9.07691e-51
9.07478e-51
9.07249e-51
9.07004e-51
9.06743e-51
9.06465e-51
9.0617e-51
9.05857e-51
9.05527e-51
9.05178e-51
9.0481e-51
9.04424e-51
9.04018e-51
9.03593e-51
9.03147e-51
9.02681e-51
9.02195e-51
9.01687e-51
9.01159e-51
9.0061e-51
9.00039e-51
8.99447e-51
8.98833e-51
8.98197e-51
8.9754e-51
8.96861e-51
8.96161e-51
8.95439e-51
8.94695e-51
8.93931e-51
8.93145e-51
8.92338e-51
8.91511e-51
8.90663e-51
8.89795e-51
8.88908e-51
8.88002e-51
8.87076e-51
8.86133e-51
8.85172e-51
8.84193e-51
8.83198e-51
8.82187e-51
8.8116e-51
8.80119e-51
8.79063e-51
8.78001e-51
8.77014e-51
8.77316e-51
8.96618e-51
1.19227e-50
5.47098e-50
6.65835e-49
9.30003e-48
1.29935e-46
1.79612e-45
2.45384e-44
3.31195e-43
4.41469e-42
5.80965e-41
7.54588e-40
9.67176e-39
1.22335e-37
1.52755e-36
1.8844e-35
2.29919e-34
2.77791e-33
3.32529e-32
3.93814e-31
4.59199e-30
5.2246e-29
5.59082e-28
5.91802e-27
6.12885e-26
6.21562e-25
6.16891e-24
5.98688e-23
5.67655e-22
5.25359e-21
4.74111e-20
4.16762e-19
3.56424e-18
2.96183e-17
2.38812e-16
1.86546e-15
1.40934e-14
1.02789e-13
7.2227e-13
4.87904e-12
3.16116e-11
1.95966e-10
1.15947e-09
6.53157e-09
3.49504e-08
1.77249e-07
8.49201e-07
3.80747e-06
1.54178e-05
5.01807e-05
0.000102515
0.00012897
0.000107007
5.7373e-05
2.37993e-05
9.67463e-06
5.23432e-06
4.39579e-06
4.72624e-06
5.42495e-06
5.97747e-06
6.37061e-06
6.59874e-06
6.69023e-06
6.67974e-06
6.59755e-06
6.46708e-06
6.30541e-06
6.12457e-06
5.9329e-06
5.73606e-06
5.53787e-06
5.3408e-06
5.14642e-06
4.95564e-06
4.76891e-06
4.5864e-06
4.40809e-06
4.23382e-06
4.0634e-06
3.89662e-06
3.73332e-06
3.57344e-06
3.42169e-06
3.27496e-06
3.13025e-06
2.98761e-06
2.84713e-06
2.70898e-06
2.57336e-06
2.44055e-06
2.31084e-06
2.18453e-06
2.06195e-06
1.9434e-06
1.82919e-06
1.71957e-06
1.61477e-06
1.51496e-06
1.42025e-06
1.33073e-06
1.24638e-06
1.16718e-06
1.09304e-06
1.02382e-06
9.59358e-07
8.99461e-07
8.43912e-07
7.92481e-07
7.44927e-07
7.01008e-07
6.60481e-07
6.23108e-07
5.88661e-07
5.56916e-07
5.27666e-07
5.00713e-07
4.75873e-07
4.52975e-07
4.3186e-07
4.12382e-07
3.94408e-07
3.77815e-07
3.62492e-07
3.48336e-07
3.35254e-07
3.23163e-07
3.11984e-07
3.01649e-07
2.92094e-07
2.83262e-07
2.751e-07
2.6756e-07
2.60597e-07
2.54172e-07
2.48247e-07
2.42788e-07
2.37763e-07
2.33143e-07
2.289e-07
2.25009e-07
2.21445e-07
2.18186e-07
2.15209e-07
2.12491e-07
2.09999e-07
2.07676e-07
2.05707e-07
2.03896e-07
2.0226e-07
2.00783e-07
1.99454e-07
1.98261e-07
1.97193e-07
1.9624e-07
1.95391e-07
1.94637e-07
1.93969e-07
1.93379e-07
1.92859e-07
1.92402e-07
1.92002e-07
1.91652e-07
1.91347e-07
1.91082e-07
1.90852e-07
1.90653e-07
1.90482e-07
1.90334e-07
1.90207e-07
1.90098e-07
1.90005e-07
1.89926e-07
1.89858e-07
1.89801e-07
1.89752e-07
1.89711e-07
1.89675e-07
1.89645e-07
1.8962e-07
1.89599e-07
1.8958e-07
1.89564e-07
1.89551e-07
1.89539e-07
1.89529e-07
1.8952e-07
1.89512e-07
1.89505e-07
1.89499e-07
1.89493e-07
1.89488e-07
1.89483e-07
1.89479e-07
1.89474e-07
1.8947e-07
1.89466e-07
1.89462e-07
1.89459e-07
1.89455e-07
1.89451e-07
1.89448e-07
1.89444e-07
1.89441e-07
1.89437e-07
1.89434e-07
1.89431e-07
1.89427e-07
1.89424e-07
1.89421e-07
1.89417e-07
1.89414e-07
1.89411e-07
1.89407e-07
1.89404e-07
1.89401e-07
1.89397e-07
1.89394e-07
1.89391e-07
1.89388e-07
1.89385e-07
1.89381e-07
1.89378e-07
1.89375e-07
1.89372e-07
1.89369e-07
1.89366e-07
1.89363e-07
1.8936e-07
1.89357e-07
1.89354e-07
1.89351e-07
1.89348e-07
1.89345e-07
1.89342e-07
1.89339e-07
1.89337e-07
1.89334e-07
1.89331e-07
1.89328e-07
1.89326e-07
1.89323e-07
1.89321e-07
1.89318e-07
1.89316e-07
1.89313e-07
1.89311e-07
1.89308e-07
1.89306e-07
1.89304e-07
1.89301e-07
1.89299e-07
1.89297e-07
1.89295e-07
1.89293e-07
1.89291e-07
1.89289e-07
1.89287e-07
1.89285e-07
1.89283e-07
1.89281e-07
1.8928e-07
1.89278e-07
1.89276e-07
1.89275e-07
1.89273e-07
1.89271e-07
1.8927e-07
1.89269e-07
1.89268e-07
1.89267e-07
)
;

boundaryField
{
    boundary
    {
        type            empty;
    }
    inlet
    {
        type            fixedValue;
        value           uniform 0;
    }
    outlet
    {
        type            zeroGradient;
    }
}


// ************************************************************************* //
