/*--------------------------------*- C++ -*----------------------------------*\
  =========                 |
  \\      /  F ield         | OpenFOAM: The Open Source CFD Toolbox
   \\    /   O peration     | Website:  https://openfoam.org
    \\  /    A nd           | Version:  7
     \\/     M anipulation  |
\*---------------------------------------------------------------------------*/
FoamFile
{
    version     2.0;
    format      ascii;
    class       volScalarField;
    location    "0.00011";
    object      O2;
}
// * * * * * * * * * * * * * * * * * * * * * * * * * * * * * * * * * * * * * //

dimensions      [0 0 0 0 0 0 0];

internalField   nonuniform List<scalar> 
500
(
0.226269
0.226269
0.226269
0.226269
0.226269
0.226269
0.226269
0.226269
0.226269
0.226269
0.226269
0.226269
0.226269
0.226269
0.226269
0.226269
0.226269
0.226269
0.226269
0.226269
0.226269
0.226269
0.226269
0.226269
0.226269
0.226269
0.226269
0.226269
0.226269
0.226269
0.226269
0.226269
0.226269
0.226269
0.226269
0.226269
0.226269
0.226269
0.226269
0.226269
0.226269
0.226269
0.226269
0.226269
0.226269
0.226269
0.226269
0.226269
0.226269
0.226269
0.226269
0.226269
0.226269
0.226269
0.226269
0.226269
0.226269
0.226269
0.226269
0.226269
0.226269
0.226269
0.226269
0.226269
0.226269
0.226269
0.226269
0.226269
0.226269
0.226269
0.226269
0.226269
0.226269
0.226269
0.226269
0.226269
0.226269
0.226269
0.226269
0.226269
0.226269
0.226269
0.226269
0.226269
0.226269
0.226269
0.226269
0.226269
0.226269
0.226269
0.226269
0.226269
0.226269
0.226269
0.226269
0.226269
0.226269
0.226269
0.226269
0.226269
0.226269
0.226269
0.226269
0.226269
0.226269
0.226269
0.226269
0.226269
0.226269
0.226269
0.226269
0.226269
0.226269
0.226269
0.226269
0.226269
0.226269
0.226269
0.226269
0.226269
0.226269
0.226269
0.226269
0.226269
0.226269
0.226269
0.226269
0.226269
0.226269
0.226269
0.226269
0.226269
0.226269
0.226269
0.226269
0.226269
0.226269
0.226269
0.226269
0.226269
0.226269
0.226269
0.226269
0.226269
0.226269
0.226269
0.226269
0.226269
0.226269
0.226269
0.226269
0.226269
0.226269
0.226269
0.226269
0.226269
0.226269
0.226269
0.226269
0.226269
0.226269
0.226269
0.226269
0.226269
0.226269
0.226269
0.226269
0.226269
0.226269
0.226269
0.226269
0.226269
0.226269
0.226269
0.226269
0.226269
0.226269
0.226269
0.226269
0.226269
0.226269
0.226269
0.226269
0.226269
0.226269
0.226269
0.226269
0.226269
0.226269
0.226269
0.226269
0.226269
0.226269
0.226269
0.226269
0.226269
0.226269
0.226269
0.226269
0.226269
0.226269
0.226269
0.226269
0.226269
0.226269
0.226269
0.226269
0.226269
0.226269
0.226269
0.226269
0.226269
0.226269
0.226269
0.226269
0.226269
0.226269
0.226269
0.226269
0.226269
0.226269
0.226269
0.226269
0.226269
0.226269
0.226269
0.226269
0.226269
0.226269
0.226269
0.226269
0.226269
0.226269
0.226269
0.226269
0.226269
0.226269
0.226269
0.226269
0.226269
0.226269
0.226269
0.226269
0.226269
0.226269
0.226269
0.226269
0.226269
0.226269
0.226269
0.226269
0.226269
0.226269
0.226269
0.226269
0.226269
0.226269
0.226269
0.226269
0.226269
0.226269
0.226269
0.226269
0.226269
0.226269
0.226269
0.226269
0.226269
0.226269
0.226269
0.226269
0.22627
0.226271
0.226273
0.226276
0.226276
0.226244
0.22606
0.225298
0.222878
0.216872
0.206145
0.191982
0.174089
0.151453
0.125698
0.101144
0.081588
0.0639245
0.0534577
0.0463402
0.0414793
0.0380805
0.0356111
0.0337285
0.0322169
0.030942
0.0298204
0.0288004
0.0278499
0.0269489
0.0260849
0.02525
0.0244395
0.0236507
0.0228822
0.0221334
0.0214044
0.0206957
0.0200082
0.019343
0.0187015
0.018104
0.0175365
0.0169887
0.016461
0.0159538
0.0154673
0.0150014
0.0145561
0.014131
0.0137256
0.0133395
0.0129719
0.0126221
0.0122892
0.0119725
0.0116711
0.011384
0.0111106
0.0108499
0.0106012
0.0103638
0.0101372
0.00992064
0.00971372
0.009516
0.00932712
0.00914679
0.00897475
0.00881083
0.00865488
0.0085068
0.00836651
0.00823396
0.00810912
0.00799195
0.00788242
0.00778051
0.00768615
0.00759927
0.00751977
0.00744753
0.00738239
0.00732414
0.00727256
0.00722738
0.00718831
0.00715501
0.00712713
0.00710428
0.00708608
0.00707212
0.00706199
0.00705528
0.00705159
0.00705053
0.00705173
0.00705485
0.00705957
0.00706563
0.00707282
0.007081
0.00709021
0.00710072
0.00711336
0.00712523
0.00713225
0.00713912
0.00714572
0.00715197
0.00715781
0.0071632
0.00716813
0.0071726
0.00717661
0.0071802
0.00718339
0.0071862
0.00718867
0.00719084
0.00719273
0.00719437
0.00719579
0.00719701
0.00719806
0.00719896
0.00719973
0.00720039
0.00720094
0.00720142
0.00720182
0.00720217
0.00720246
0.0072027
0.00720291
0.00720308
0.00720323
0.00720335
0.00720345
0.00720354
0.00720361
0.00720367
0.00720372
0.00720376
0.0072038
0.00720382
0.00720385
0.00720386
0.00720388
0.00720389
0.0072039
0.00720391
0.00720392
0.00720392
0.00720393
0.00720393
0.00720394
0.00720394
0.00720394
0.00720395
0.00720395
0.00720395
0.00720395
0.00720395
0.00720395
0.00720396
0.00720396
0.00720396
0.00720396
0.00720396
0.00720396
0.00720396
0.00720396
0.00720396
0.00720396
0.00720396
0.00720396
0.00720396
0.00720396
0.00720396
0.00720396
0.00720396
0.00720396
0.00720396
0.00720396
0.00720396
0.00720396
0.00720396
0.00720396
0.00720396
0.00720396
0.00720396
0.00720395
0.00720395
0.00720395
0.00720395
0.00720395
0.00720394
0.00720394
0.00720394
0.00720394
0.00720393
0.00720393
0.00720393
0.00720392
0.00720392
0.00720392
0.00720391
0.00720391
0.00720391
0.0072039
0.0072039
0.00720389
0.00720389
0.00720388
0.00720388
0.00720387
0.00720387
0.00720386
0.00720386
0.00720385
0.00720385
0.00720384
0.00720383
0.00720383
0.00720382
0.00720382
0.00720381
0.00720381
)
;

boundaryField
{
    boundary
    {
        type            empty;
    }
    inlet
    {
        type            fixedValue;
        value           uniform 0.226269;
    }
    outlet
    {
        type            zeroGradient;
    }
}


// ************************************************************************* //
