/*--------------------------------*- C++ -*----------------------------------*\
  =========                 |
  \\      /  F ield         | OpenFOAM: The Open Source CFD Toolbox
   \\    /   O peration     | Website:  https://openfoam.org
    \\  /    A nd           | Version:  7
     \\/     M anipulation  |
\*---------------------------------------------------------------------------*/
FoamFile
{
    version     2.0;
    format      ascii;
    class       surfaceScalarField;
    location    "0.00011";
    object      phi;
}
// * * * * * * * * * * * * * * * * * * * * * * * * * * * * * * * * * * * * * //

dimensions      [1 0 -1 0 0 0 0];

internalField   nonuniform List<scalar> 
499
(
6.9114e-06
6.90739e-06
6.90274e-06
6.89732e-06
6.89119e-06
6.88456e-06
6.87775e-06
6.87107e-06
6.86476e-06
6.85895e-06
6.85371e-06
6.84899e-06
6.84472e-06
6.84081e-06
6.83716e-06
6.83369e-06
6.83034e-06
6.82707e-06
6.82385e-06
6.82066e-06
6.81748e-06
6.81431e-06
6.81115e-06
6.80799e-06
6.80483e-06
6.80168e-06
6.79853e-06
6.79539e-06
6.79224e-06
6.7891e-06
6.78597e-06
6.78284e-06
6.77971e-06
6.77658e-06
6.77346e-06
6.77034e-06
6.76723e-06
6.76412e-06
6.76102e-06
6.75792e-06
6.75483e-06
6.75174e-06
6.74865e-06
6.74557e-06
6.7425e-06
6.73943e-06
6.73637e-06
6.73332e-06
6.73027e-06
6.72722e-06
6.72419e-06
6.72116e-06
6.71813e-06
6.71512e-06
6.71211e-06
6.7091e-06
6.70611e-06
6.70312e-06
6.70014e-06
6.69717e-06
6.69421e-06
6.69126e-06
6.68831e-06
6.68538e-06
6.68245e-06
6.67953e-06
6.67662e-06
6.67372e-06
6.67083e-06
6.66795e-06
6.66508e-06
6.66222e-06
6.65937e-06
6.65654e-06
6.65371e-06
6.65089e-06
6.64809e-06
6.6453e-06
6.64251e-06
6.63975e-06
6.63699e-06
6.63424e-06
6.63151e-06
6.62879e-06
6.62609e-06
6.62339e-06
6.62071e-06
6.61805e-06
6.6154e-06
6.61276e-06
6.61014e-06
6.60753e-06
6.60493e-06
6.60236e-06
6.59979e-06
6.59724e-06
6.59471e-06
6.59219e-06
6.58969e-06
6.58721e-06
6.58474e-06
6.58229e-06
6.57986e-06
6.57744e-06
6.57504e-06
6.57266e-06
6.5703e-06
6.56795e-06
6.56562e-06
6.56331e-06
6.56102e-06
6.55875e-06
6.5565e-06
6.55427e-06
6.55205e-06
6.54986e-06
6.54769e-06
6.54553e-06
6.5434e-06
6.54129e-06
6.53919e-06
6.53712e-06
6.53507e-06
6.53304e-06
6.53104e-06
6.52905e-06
6.52709e-06
6.52515e-06
6.52323e-06
6.52133e-06
6.51945e-06
6.51759e-06
6.51576e-06
6.51394e-06
6.51215e-06
6.51038e-06
6.50863e-06
6.5069e-06
6.5052e-06
6.50352e-06
6.50186e-06
6.50023e-06
6.49862e-06
6.49703e-06
6.49546e-06
6.49392e-06
6.49239e-06
6.49089e-06
6.48942e-06
6.48796e-06
6.48653e-06
6.48512e-06
6.48373e-06
6.48236e-06
6.48102e-06
6.4797e-06
6.47839e-06
6.47712e-06
6.47586e-06
6.47462e-06
6.4734e-06
6.47221e-06
6.47103e-06
6.46988e-06
6.46875e-06
6.46764e-06
6.46654e-06
6.46547e-06
6.46442e-06
6.46338e-06
6.46237e-06
6.46137e-06
6.4604e-06
6.45944e-06
6.4585e-06
6.45758e-06
6.45667e-06
6.45579e-06
6.45492e-06
6.45407e-06
6.45324e-06
6.45242e-06
6.45162e-06
6.45084e-06
6.45007e-06
6.44932e-06
6.44858e-06
6.44787e-06
6.44716e-06
6.44648e-06
6.4458e-06
6.44515e-06
6.4445e-06
6.44387e-06
6.44326e-06
6.44266e-06
6.44208e-06
6.44151e-06
6.44095e-06
6.44041e-06
6.43988e-06
6.43936e-06
6.43885e-06
6.43836e-06
6.43788e-06
6.43742e-06
6.43696e-06
6.43652e-06
6.43609e-06
6.43567e-06
6.43526e-06
6.43487e-06
6.43448e-06
6.4341e-06
6.43373e-06
6.43337e-06
6.43302e-06
6.43268e-06
6.43235e-06
6.43202e-06
6.4317e-06
6.43139e-06
6.43108e-06
6.43078e-06
6.43048e-06
6.43019e-06
6.4299e-06
6.42961e-06
6.42932e-06
6.42903e-06
6.42875e-06
6.42846e-06
6.42817e-06
6.42788e-06
6.42759e-06
6.42729e-06
6.42699e-06
6.42668e-06
6.42636e-06
6.42604e-06
6.42571e-06
6.42537e-06
6.42502e-06
6.42467e-06
6.4243e-06
6.42392e-06
6.42352e-06
6.42312e-06
6.4227e-06
6.42227e-06
6.42183e-06
6.42137e-06
6.4209e-06
6.42041e-06
6.41991e-06
6.41939e-06
6.41885e-06
6.41829e-06
6.41772e-06
6.41713e-06
6.41652e-06
6.4159e-06
6.41526e-06
6.41461e-06
6.41394e-06
6.41326e-06
6.41256e-06
6.41184e-06
6.41111e-06
6.41035e-06
6.40959e-06
6.40884e-06
6.4082e-06
6.40797e-06
6.40901e-06
6.41354e-06
6.42695e-06
6.46133e-06
6.53742e-06
6.65949e-06
6.78197e-06
6.86887e-06
6.92459e-06
6.96183e-06
6.98816e-06
7.00711e-06
7.02087e-06
7.03074e-06
7.03814e-06
7.0439e-06
7.04873e-06
7.05308e-06
7.05724e-06
7.06132e-06
7.06537e-06
7.06937e-06
7.07329e-06
7.07708e-06
7.08073e-06
7.08421e-06
7.08748e-06
7.09052e-06
7.09325e-06
7.09559e-06
7.09744e-06
7.09868e-06
7.09915e-06
7.0987e-06
7.09716e-06
7.09436e-06
7.09013e-06
7.08432e-06
7.07727e-06
7.06851e-06
7.05792e-06
7.04542e-06
7.03093e-06
7.01441e-06
6.99584e-06
6.97525e-06
6.95268e-06
6.92822e-06
6.90199e-06
6.87414e-06
6.84484e-06
6.81428e-06
6.78269e-06
6.75029e-06
6.71732e-06
6.68403e-06
6.65066e-06
6.61745e-06
6.58463e-06
6.55242e-06
6.52102e-06
6.49062e-06
6.46138e-06
6.43346e-06
6.40696e-06
6.38201e-06
6.35866e-06
6.33699e-06
6.31702e-06
6.29876e-06
6.28222e-06
6.26738e-06
6.25418e-06
6.24258e-06
6.23252e-06
6.22392e-06
6.21669e-06
6.21075e-06
6.20599e-06
6.20231e-06
6.19963e-06
6.19782e-06
6.1968e-06
6.19647e-06
6.19673e-06
6.19749e-06
6.19868e-06
6.2002e-06
6.202e-06
6.204e-06
6.20615e-06
6.2084e-06
6.21069e-06
6.213e-06
6.21528e-06
6.21752e-06
6.21968e-06
6.22175e-06
6.22372e-06
6.22558e-06
6.22734e-06
6.229e-06
6.23056e-06
6.23198e-06
6.23327e-06
6.23441e-06
6.23543e-06
6.23633e-06
6.23712e-06
6.23779e-06
6.23837e-06
6.23884e-06
6.23923e-06
6.23954e-06
6.23977e-06
6.23993e-06
6.24002e-06
6.24006e-06
6.24005e-06
6.23998e-06
6.23988e-06
6.23974e-06
6.23956e-06
6.23935e-06
6.23912e-06
6.23886e-06
6.23858e-06
6.23829e-06
6.23797e-06
6.23764e-06
6.2373e-06
6.23694e-06
6.23657e-06
6.2362e-06
6.23582e-06
6.23542e-06
6.23503e-06
6.23462e-06
6.23421e-06
6.2338e-06
6.23338e-06
6.23295e-06
6.23253e-06
6.23209e-06
6.23166e-06
6.23122e-06
6.23077e-06
6.23033e-06
6.22988e-06
6.22943e-06
6.22897e-06
6.22851e-06
6.22805e-06
6.22758e-06
6.22712e-06
6.22664e-06
6.22617e-06
6.22569e-06
6.22521e-06
6.22473e-06
6.22425e-06
6.22376e-06
6.22327e-06
6.22277e-06
6.22228e-06
6.22178e-06
6.22127e-06
6.22077e-06
6.22026e-06
6.21975e-06
6.21924e-06
6.21872e-06
6.21821e-06
6.21768e-06
6.21716e-06
6.21663e-06
6.21611e-06
6.21558e-06
6.21504e-06
6.21451e-06
6.21397e-06
6.21343e-06
6.21288e-06
6.21234e-06
6.21179e-06
6.21124e-06
6.21069e-06
6.21013e-06
6.20958e-06
6.20902e-06
6.20845e-06
6.20789e-06
6.20733e-06
6.20676e-06
6.20619e-06
6.20562e-06
6.20504e-06
6.20447e-06
6.20389e-06
6.20331e-06
6.20273e-06
6.20214e-06
6.20156e-06
6.20097e-06
6.20038e-06
6.19979e-06
6.1992e-06
6.1986e-06
6.19801e-06
6.19741e-06
6.19681e-06
6.19621e-06
6.19561e-06
6.195e-06
6.1944e-06
6.19379e-06
6.19318e-06
6.19257e-06
6.19196e-06
6.19135e-06
6.19074e-06
6.19012e-06
6.1895e-06
6.18889e-06
6.18827e-06
)
;

boundaryField
{
    boundary
    {
        type            empty;
        value           nonuniform 0();
    }
    inlet
    {
        type            calculated;
        value           uniform -6.91524e-06;
    }
    outlet
    {
        type            calculated;
        value           uniform 6.18765e-06;
    }
}


// ************************************************************************* //
