/*--------------------------------*- C++ -*----------------------------------*\
  =========                 |
  \\      /  F ield         | OpenFOAM: The Open Source CFD Toolbox
   \\    /   O peration     | Website:  https://openfoam.org
    \\  /    A nd           | Version:  7
     \\/     M anipulation  |
\*---------------------------------------------------------------------------*/
FoamFile
{
    version     2.0;
    format      ascii;
    class       volScalarField;
    location    "0.00011";
    object      rho;
}
// * * * * * * * * * * * * * * * * * * * * * * * * * * * * * * * * * * * * * //

dimensions      [1 -3 0 0 0 0 0];

internalField   nonuniform List<scalar> 
500
(
0.862737
0.862586
0.862353
0.862032
0.86164
0.861208
0.860773
0.860367
0.860014
0.859725
0.859503
0.859339
0.859226
0.85915
0.859102
0.859073
0.859056
0.859047
0.859042
0.859039
0.859038
0.859038
0.859038
0.859038
0.859038
0.859039
0.859039
0.85904
0.85904
0.859041
0.859042
0.859042
0.859043
0.859043
0.859044
0.859045
0.859045
0.859046
0.859047
0.859047
0.859048
0.859049
0.859049
0.85905
0.859051
0.859052
0.859053
0.859053
0.859054
0.859055
0.859056
0.859057
0.859057
0.859058
0.859059
0.85906
0.859061
0.859062
0.859063
0.859063
0.859064
0.859065
0.859066
0.859067
0.859068
0.859069
0.85907
0.859071
0.859072
0.859073
0.859073
0.859074
0.859075
0.859076
0.859077
0.859078
0.859079
0.85908
0.859081
0.859082
0.859083
0.859083
0.859084
0.859085
0.859086
0.859087
0.859088
0.859089
0.85909
0.859091
0.859091
0.859092
0.859093
0.859094
0.859095
0.859096
0.859096
0.859097
0.859098
0.859099
0.859099
0.8591
0.859101
0.859102
0.859102
0.859103
0.859104
0.859105
0.859105
0.859106
0.859107
0.859107
0.859108
0.859108
0.859109
0.85911
0.85911
0.859111
0.859111
0.859112
0.859113
0.859113
0.859114
0.859115
0.859115
0.859116
0.859117
0.859118
0.859119
0.859119
0.85912
0.85912
0.85912
0.85912
0.85912
0.859121
0.859121
0.859121
0.859122
0.859122
0.859123
0.859123
0.859124
0.859124
0.859125
0.859125
0.859126
0.859126
0.859127
0.859128
0.859128
0.859129
0.85913
0.85913
0.859131
0.859132
0.859133
0.859134
0.859135
0.859136
0.859137
0.859138
0.859139
0.85914
0.859141
0.859142
0.859144
0.859145
0.859147
0.859148
0.85915
0.859152
0.859154
0.859155
0.859157
0.85916
0.859162
0.859164
0.859166
0.859169
0.859172
0.859174
0.859177
0.85918
0.859183
0.859187
0.85919
0.859193
0.859197
0.859201
0.859205
0.859209
0.859213
0.859218
0.859222
0.859227
0.859232
0.859237
0.859242
0.859247
0.859253
0.859258
0.859264
0.85927
0.859276
0.859283
0.859289
0.859296
0.859303
0.859309
0.859317
0.859324
0.859331
0.859339
0.859347
0.859355
0.859363
0.859371
0.859379
0.859387
0.859396
0.859405
0.859413
0.859422
0.859431
0.85944
0.85945
0.859459
0.859468
0.859478
0.859487
0.859497
0.859506
0.859516
0.859526
0.859536
0.859546
0.859555
0.859565
0.859575
0.859585
0.859595
0.859605
0.859616
0.859626
0.859636
0.859646
0.859657
0.859667
0.859678
0.859689
0.8597
0.859711
0.859722
0.859733
0.859744
0.859755
0.859766
0.859777
0.859788
0.8598
0.859812
0.859824
0.859837
0.859849
0.859863
0.859876
0.85989
0.859905
0.85992
0.859936
0.859947
0.859931
0.859799
0.859235
0.857195
0.850469
0.830091
0.77623
0.668779
0.531063
0.415884
0.33914
0.28906
0.254519
0.229956
0.21278
0.200082
0.190382
0.183412
0.178289
0.174195
0.170856
0.168072
0.165706
0.163666
0.161883
0.160309
0.158906
0.157645
0.156504
0.155463
0.154507
0.153623
0.152797
0.152019
0.151281
0.150572
0.149886
0.149214
0.148551
0.147893
0.14725
0.146615
0.145965
0.145302
0.144621
0.143923
0.143207
0.142473
0.141722
0.140955
0.140176
0.139387
0.13859
0.13779
0.13699
0.136194
0.135406
0.13463
0.13387
0.133129
0.132412
0.13172
0.131058
0.130426
0.129828
0.129265
0.128737
0.128246
0.127793
0.127376
0.126996
0.126652
0.126343
0.126068
0.125825
0.125613
0.12543
0.125275
0.125145
0.125038
0.124952
0.124886
0.124837
0.124803
0.124782
0.124774
0.124775
0.124785
0.124801
0.124824
0.124851
0.124881
0.124914
0.124948
0.124983
0.125019
0.125054
0.125088
0.125122
0.125153
0.125183
0.125211
0.125235
0.125255
0.125275
0.125298
0.125319
0.125339
0.125357
0.125373
0.125387
0.1254
0.125412
0.125423
0.125432
0.12544
0.125447
0.125453
0.125458
0.125463
0.125467
0.12547
0.125473
0.125476
0.125478
0.125479
0.125481
0.125482
0.125482
0.125483
0.125483
0.125484
0.125484
0.125484
0.125484
0.125483
0.125483
0.125483
0.125483
0.125482
0.125482
0.125481
0.125481
0.12548
0.12548
0.125479
0.125479
0.125478
0.125478
0.125477
0.125477
0.125476
0.125475
0.125475
0.125474
0.125474
0.125473
0.125473
0.125472
0.125472
0.125471
0.12547
0.12547
0.125469
0.125469
0.125468
0.125468
0.125467
0.125467
0.125466
0.125465
0.125465
0.125464
0.125464
0.125463
0.125463
0.125462
0.125462
0.125461
0.12546
0.12546
0.125459
0.125459
0.125458
0.125458
0.125457
0.125457
0.125456
0.125456
0.125455
0.125455
0.125454
0.125454
0.125453
0.125453
0.125452
0.125452
0.125451
0.125451
0.12545
0.12545
0.12545
0.125449
0.125449
0.125448
0.125448
0.125447
0.125447
0.125447
0.125446
0.125446
0.125445
0.125445
0.125445
0.125444
0.125444
0.125444
0.125443
0.125443
0.125443
0.125442
0.125442
0.125442
0.125441
0.125441
0.125441
0.12544
0.12544
)
;

boundaryField
{
    boundary
    {
        type            empty;
    }
    inlet
    {
        type            calculated;
        value           uniform 0.862815;
    }
    outlet
    {
        type            calculated;
        value           uniform 0.12544;
    }
}


// ************************************************************************* //
