/*--------------------------------*- C++ -*----------------------------------*\
  =========                 |
  \\      /  F ield         | OpenFOAM: The Open Source CFD Toolbox
   \\    /   O peration     | Website:  https://openfoam.org
    \\  /    A nd           | Version:  7
     \\/     M anipulation  |
\*---------------------------------------------------------------------------*/
FoamFile
{
    version     2.0;
    format      ascii;
    class       volScalarField;
    location    "0.00011";
    object      T;
}
// * * * * * * * * * * * * * * * * * * * * * * * * * * * * * * * * * * * * * //

dimensions      [0 0 0 1 0 0 0];

internalField   nonuniform List<scalar> 
500
(
300.027
300.08
300.161
300.273
300.409
300.56
300.712
300.854
300.978
301.079
301.157
301.214
301.254
301.281
301.298
301.308
301.314
301.318
301.32
301.321
301.321
301.322
301.322
301.322
301.322
301.322
301.322
301.322
301.322
301.322
301.322
301.323
301.323
301.323
301.323
301.323
301.323
301.323
301.323
301.323
301.324
301.324
301.324
301.324
301.324
301.324
301.324
301.324
301.325
301.325
301.325
301.325
301.325
301.325
301.326
301.326
301.326
301.326
301.326
301.327
301.327
301.327
301.327
301.327
301.328
301.328
301.328
301.328
301.328
301.329
301.329
301.329
301.329
301.33
301.33
301.33
301.33
301.331
301.331
301.331
301.331
301.332
301.332
301.332
301.333
301.333
301.333
301.333
301.334
301.334
301.334
301.335
301.335
301.335
301.336
301.336
301.336
301.337
301.337
301.337
301.338
301.338
301.339
301.339
301.339
301.34
301.34
301.341
301.341
301.341
301.342
301.342
301.343
301.343
301.343
301.344
301.344
301.345
301.345
301.346
301.346
301.346
301.347
301.347
301.348
301.348
301.348
301.349
301.349
301.349
301.35
301.35
301.351
301.352
301.352
301.353
301.353
301.354
301.354
301.354
301.355
301.355
301.356
301.356
301.357
301.357
301.357
301.358
301.358
301.358
301.359
301.359
301.359
301.36
301.36
301.36
301.361
301.361
301.361
301.361
301.361
301.362
301.362
301.362
301.362
301.362
301.362
301.362
301.362
301.362
301.362
301.362
301.362
301.362
301.362
301.361
301.361
301.361
301.36
301.36
301.36
301.359
301.359
301.358
301.357
301.357
301.356
301.355
301.354
301.354
301.353
301.352
301.351
301.35
301.348
301.347
301.346
301.345
301.343
301.342
301.34
301.339
301.337
301.336
301.334
301.332
301.33
301.328
301.326
301.324
301.322
301.32
301.318
301.315
301.313
301.311
301.308
301.306
301.303
301.301
301.298
301.295
301.293
301.29
301.287
301.284
301.281
301.278
301.275
301.272
301.269
301.266
301.263
301.26
301.257
301.254
301.251
301.248
301.244
301.241
301.238
301.235
301.231
301.228
301.225
301.222
301.218
301.215
301.211
301.208
301.204
301.201
301.197
301.193
301.19
301.186
301.183
301.179
301.175
301.172
301.168
301.164
301.16
301.156
301.151
301.147
301.143
301.138
301.133
301.129
301.126
301.128
301.147
301.225
301.495
302.371
305.104
313.313
336.523
393.473
500.602
646.858
802.936
952.946
1093.05
1219.1
1324.83
1414.75
1490.36
1550.56
1598.29
1638.73
1673.4
1703.55
1730.08
1753.66
1774.8
1793.88
1811.21
1827.04
1841.57
1854.98
1867.43
1879.06
1890
1900.38
1910.3
1919.89
1929.23
1938.43
1947.57
1956.72
1965.71
1974.68
1983.92
1993.45
2003.32
2013.56
2024.18
2035.2
2046.62
2058.43
2070.61
2083.13
2095.95
2109.03
2122.33
2135.77
2149.3
2162.86
2176.37
2189.78
2203.01
2216.01
2228.71
2241.05
2252.98
2264.47
2275.46
2285.92
2295.84
2305.19
2313.95
2322.13
2329.72
2336.73
2343.17
2349.06
2354.41
2359.26
2363.62
2367.53
2371.02
2374.11
2376.84
2379.24
2381.34
2383.16
2384.75
2386.11
2387.28
2388.29
2389.14
2389.87
2390.49
2391.01
2391.45
2391.82
2392.13
2392.4
2392.63
2392.82
2393
2393.17
2393.34
2393.53
2393.68
2393.74
2393.78
2393.82
2393.86
2393.88
2393.91
2393.93
2393.95
2393.97
2393.99
2394
2394.01
2394.03
2394.04
2394.05
2394.06
2394.07
2394.08
2394.09
2394.1
2394.11
2394.12
2394.13
2394.14
2394.15
2394.16
2394.17
2394.18
2394.19
2394.2
2394.21
2394.22
2394.22
2394.23
2394.24
2394.25
2394.26
2394.27
2394.28
2394.28
2394.29
2394.3
2394.31
2394.32
2394.33
2394.33
2394.34
2394.35
2394.36
2394.37
2394.37
2394.38
2394.39
2394.4
2394.4
2394.41
2394.42
2394.43
2394.44
2394.44
2394.45
2394.46
2394.47
2394.47
2394.48
2394.49
2394.5
2394.5
2394.51
2394.52
2394.53
2394.53
2394.54
2394.55
2394.55
2394.56
2394.57
2394.58
2394.58
2394.59
2394.6
2394.6
2394.61
2394.61
2394.62
2394.63
2394.63
2394.64
2394.64
2394.65
2394.66
2394.66
2394.67
2394.67
2394.68
2394.68
2394.69
2394.69
2394.7
2394.7
2394.71
2394.71
2394.72
2394.72
2394.72
2394.73
2394.73
2394.74
2394.74
2394.74
2394.75
2394.75
2394.75
2394.75
2394.76
2394.76
2394.76
2394.76
2394.77
2394.77
2394.77
2394.77
2394.77
)
;

boundaryField
{
    boundary
    {
        type            empty;
    }
    inlet
    {
        type            fixedValue;
        value           uniform 300;
    }
    outlet
    {
        type            zeroGradient;
    }
}


// ************************************************************************* //
