/*--------------------------------*- C++ -*----------------------------------*\
  =========                 |
  \\      /  F ield         | OpenFOAM: The Open Source CFD Toolbox
   \\    /   O peration     | Website:  https://openfoam.org
    \\  /    A nd           | Version:  7
     \\/     M anipulation  |
\*---------------------------------------------------------------------------*/
FoamFile
{
    version     2.0;
    format      ascii;
    class       volScalarField;
    location    "0.00057";
    object      H;
}
// * * * * * * * * * * * * * * * * * * * * * * * * * * * * * * * * * * * * * //

dimensions      [0 0 0 0 0 0 0];

internalField   nonuniform List<scalar> 
125
(
1.48277e-41
2.00599e-41
2.11762e-41
2.14148e-41
2.14719e-41
2.14961e-41
2.15177e-41
2.15419e-41
2.15691e-41
2.15985e-41
2.16298e-41
2.16629e-41
2.1698e-41
2.17354e-41
2.17758e-41
2.18203e-41
2.18698e-41
2.19258e-41
2.19897e-41
2.20633e-41
2.21485e-41
2.22476e-41
2.23627e-41
2.24962e-41
2.26507e-41
2.28284e-41
2.30317e-41
2.32628e-41
2.35235e-41
2.38152e-41
2.4139e-41
2.44953e-41
2.48838e-41
2.53036e-41
2.57528e-41
2.62288e-41
2.67284e-41
2.72472e-41
2.77806e-41
2.83231e-41
2.8869e-41
2.94123e-41
2.99471e-41
3.04677e-41
3.09687e-41
3.14454e-41
3.18938e-41
3.23108e-41
3.26943e-41
3.30428e-41
3.33562e-41
3.36346e-41
3.38795e-41
3.40924e-41
3.42755e-41
3.44313e-41
3.45626e-41
3.46721e-41
3.47624e-41
3.48362e-41
3.48959e-41
3.49437e-41
3.49817e-41
3.50116e-41
3.50348e-41
3.50528e-41
3.50666e-41
3.5077e-41
3.50849e-41
3.50908e-41
3.50952e-41
3.50984e-41
3.51008e-41
3.51025e-41
3.51038e-41
3.51048e-41
3.51055e-41
3.51061e-41
3.51065e-41
3.51069e-41
3.51072e-41
3.51075e-41
3.51078e-41
3.5108e-41
3.51083e-41
3.51086e-41
3.51089e-41
3.51092e-41
3.51095e-41
3.51098e-41
3.51102e-41
3.51105e-41
3.51109e-41
3.51113e-41
3.51117e-41
3.51122e-41
3.51127e-41
3.51132e-41
3.51137e-41
3.51142e-41
3.51148e-41
3.51154e-41
3.5116e-41
3.51167e-41
3.51173e-41
3.5118e-41
3.51188e-41
3.51196e-41
3.51204e-41
3.51212e-41
3.5122e-41
3.51229e-41
3.51239e-41
3.51248e-41
3.51258e-41
3.51269e-41
3.5128e-41
3.51291e-41
3.51302e-41
3.51314e-41
3.51326e-41
3.51339e-41
3.51355e-41
3.51378e-41
3.51428e-41
)
;

boundaryField
{
    boundary
    {
        type            empty;
    }
    inlet
    {
        type            fixedValue;
        value           uniform 0;
    }
    outlet
    {
        type            zeroGradient;
    }
    procBoundary2to3
    {
        type            processor;
        value           uniform 3.51477e-41;
    }
}


// ************************************************************************* //
