/*--------------------------------*- C++ -*----------------------------------*\
  =========                 |
  \\      /  F ield         | OpenFOAM: The Open Source CFD Toolbox
   \\    /   O peration     | Website:  https://openfoam.org
    \\  /    A nd           | Version:  7
     \\/     M anipulation  |
\*---------------------------------------------------------------------------*/
FoamFile
{
    version     2.0;
    format      ascii;
    class       volScalarField;
    location    "0.00057";
    object      OH;
}
// * * * * * * * * * * * * * * * * * * * * * * * * * * * * * * * * * * * * * //

dimensions      [0 0 0 0 0 0 0];

internalField   nonuniform List<scalar> 
125
(
9.36553e-48
1.82389e-47
2.4305e-47
2.84203e-47
3.12157e-47
3.31248e-47
3.44402e-47
3.53579e-47
3.60091e-47
3.64819e-47
3.68357e-47
3.71105e-47
3.73341e-47
3.75256e-47
3.76986e-47
3.78633e-47
3.80275e-47
3.81979e-47
3.83802e-47
3.85798e-47
3.88021e-47
3.90526e-47
3.93367e-47
3.966e-47
4.00282e-47
4.04468e-47
4.09214e-47
4.14568e-47
4.20575e-47
4.2727e-47
4.3468e-47
4.42818e-47
4.51681e-47
4.61252e-47
4.71495e-47
4.82354e-47
4.93758e-47
5.05614e-47
5.17817e-47
5.30244e-47
5.42767e-47
5.55249e-47
5.67553e-47
5.79546e-47
5.91105e-47
6.02118e-47
6.1249e-47
6.22148e-47
6.31037e-47
6.39125e-47
6.464e-47
6.52872e-47
6.58564e-47
6.63514e-47
6.67774e-47
6.714e-47
6.74453e-47
6.76998e-47
6.79097e-47
6.80811e-47
6.82197e-47
6.83307e-47
6.84187e-47
6.84878e-47
6.85416e-47
6.85831e-47
6.86148e-47
6.86388e-47
6.86569e-47
6.86704e-47
6.86804e-47
6.86878e-47
6.86932e-47
6.86972e-47
6.87001e-47
6.87022e-47
6.87038e-47
6.87051e-47
6.8706e-47
6.87068e-47
6.87075e-47
6.87081e-47
6.87087e-47
6.87093e-47
6.87099e-47
6.87105e-47
6.87111e-47
6.87118e-47
6.87124e-47
6.87132e-47
6.87139e-47
6.87147e-47
6.87156e-47
6.87165e-47
6.87174e-47
6.87184e-47
6.87195e-47
6.87206e-47
6.87217e-47
6.8723e-47
6.87242e-47
6.87256e-47
6.8727e-47
6.87284e-47
6.873e-47
6.87316e-47
6.87332e-47
6.8735e-47
6.87368e-47
6.87387e-47
6.87407e-47
6.87427e-47
6.87448e-47
6.8747e-47
6.87493e-47
6.87517e-47
6.87541e-47
6.87566e-47
6.87593e-47
6.87619e-47
6.87647e-47
6.87674e-47
6.87702e-47
6.87731e-47
6.87771e-47
)
;

boundaryField
{
    boundary
    {
        type            empty;
    }
    inlet
    {
        type            fixedValue;
        value           uniform 0;
    }
    outlet
    {
        type            zeroGradient;
    }
    procBoundary2to3
    {
        type            processor;
        value           uniform 6.87814e-47;
    }
}


// ************************************************************************* //
