/*--------------------------------*- C++ -*----------------------------------*\
  =========                 |
  \\      /  F ield         | OpenFOAM: The Open Source CFD Toolbox
   \\    /   O peration     | Website:  https://openfoam.org
    \\  /    A nd           | Version:  7
     \\/     M anipulation  |
\*---------------------------------------------------------------------------*/
FoamFile
{
    version     2.0;
    format      ascii;
    class       volScalarField;
    location    "0.00045";
    object      H;
}
// * * * * * * * * * * * * * * * * * * * * * * * * * * * * * * * * * * * * * //

dimensions      [0 0 0 0 0 0 0];

internalField   nonuniform List<scalar> 
126
(
3.51482e-41
3.51508e-41
3.51533e-41
3.51554e-41
3.51573e-41
3.51592e-41
3.51611e-41
3.5163e-41
3.5165e-41
3.51671e-41
3.51692e-41
3.51714e-41
3.51735e-41
3.51757e-41
3.51779e-41
3.51802e-41
3.51824e-41
3.51846e-41
3.51869e-41
3.51892e-41
3.51915e-41
3.51938e-41
3.51962e-41
3.51985e-41
3.5201e-41
3.52034e-41
3.5206e-41
3.52085e-41
3.52112e-41
3.52138e-41
3.52165e-41
3.52193e-41
3.5222e-41
3.52248e-41
3.52276e-41
3.52303e-41
3.5233e-41
3.52357e-41
3.52383e-41
3.52409e-41
3.52434e-41
3.52458e-41
3.52482e-41
3.52504e-41
3.52526e-41
3.52546e-41
3.52566e-41
3.52584e-41
3.52601e-41
3.52616e-41
3.52631e-41
3.52644e-41
3.52655e-41
3.52665e-41
3.52674e-41
3.5268e-41
3.52685e-41
3.52688e-41
3.52689e-41
3.52688e-41
3.52685e-41
3.52679e-41
3.52671e-41
3.5266e-41
3.52647e-41
3.52631e-41
3.52613e-41
3.52591e-41
3.52566e-41
3.52538e-41
3.52507e-41
3.52472e-41
3.52434e-41
3.52392e-41
3.52346e-41
3.52296e-41
3.52242e-41
3.52184e-41
3.52121e-41
3.52054e-41
3.51983e-41
3.51907e-41
3.51826e-41
3.5174e-41
3.51649e-41
3.51553e-41
3.51452e-41
3.51346e-41
3.51235e-41
3.51121e-41
3.51017e-41
3.50968e-41
3.51173e-41
3.52457e-41
3.5823e-41
3.82435e-41
4.81565e-41
8.82247e-41
2.48482e-40
8.83124e-40
3.37194e-39
1.30373e-38
5.02083e-38
1.91774e-37
7.25702e-37
2.72001e-36
1.00975e-35
3.71284e-35
1.35233e-34
4.87966e-34
1.74457e-33
6.18091e-33
2.17056e-32
7.55709e-32
2.60934e-31
8.93835e-31
3.03901e-30
1.02615e-29
3.44387e-29
1.15006e-28
3.82763e-28
1.27246e-27
4.23825e-27
1.42005e-26
4.81053e-26
1.65777e-25
)
;

boundaryField
{
    boundary
    {
        type            empty;
    }
    inlet
    {
        type            fixedValue;
        value           nonuniform 0();
    }
    outlet
    {
        type            zeroGradient;
    }
    procBoundary3to1
    {
        type            processor;
        value           uniform 5.83438e-25;
    }
    procBoundary3to2
    {
        type            processor;
        value           uniform 3.51467e-41;
    }
}


// ************************************************************************* //
