/*--------------------------------*- C++ -*----------------------------------*\
  =========                 |
  \\      /  F ield         | OpenFOAM: The Open Source CFD Toolbox
   \\    /   O peration     | Website:  https://openfoam.org
    \\  /    A nd           | Version:  7
     \\/     M anipulation  |
\*---------------------------------------------------------------------------*/
FoamFile
{
    version     2.0;
    format      ascii;
    class       volScalarField;
    location    "0.00027";
    object      H2O;
}
// * * * * * * * * * * * * * * * * * * * * * * * * * * * * * * * * * * * * * //

dimensions      [0 0 0 0 0 0 0];

internalField   nonuniform List<scalar> 
126
(
7.37505e-46
7.37455e-46
7.37356e-46
7.37198e-46
7.36983e-46
7.36718e-46
7.36417e-46
7.36094e-46
7.35764e-46
7.35447e-46
7.35162e-46
7.34931e-46
7.34772e-46
7.347e-46
7.34722e-46
7.34835e-46
7.35029e-46
7.35288e-46
7.35592e-46
7.3592e-46
7.36253e-46
7.36576e-46
7.36876e-46
7.37148e-46
7.37387e-46
7.37593e-46
7.37767e-46
7.37914e-46
7.38036e-46
7.38138e-46
7.38223e-46
7.38295e-46
7.38357e-46
7.38411e-46
7.38458e-46
7.38499e-46
7.38535e-46
7.38568e-46
7.38595e-46
7.38619e-46
7.38639e-46
7.38655e-46
7.38666e-46
7.38673e-46
7.38675e-46
7.38672e-46
7.38664e-46
7.38651e-46
7.38631e-46
7.38606e-46
7.38574e-46
7.38535e-46
7.3849e-46
7.38437e-46
7.38377e-46
7.38309e-46
7.38232e-46
7.38147e-46
7.38053e-46
7.3795e-46
7.37838e-46
7.37715e-46
7.37582e-46
7.37439e-46
7.37285e-46
7.3712e-46
7.36943e-46
7.36754e-46
7.36553e-46
7.3634e-46
7.36114e-46
7.35874e-46
7.35621e-46
7.35355e-46
7.35074e-46
7.34779e-46
7.3447e-46
7.34146e-46
7.33807e-46
7.33452e-46
7.33082e-46
7.32697e-46
7.32295e-46
7.31878e-46
7.31444e-46
7.30995e-46
7.30531e-46
7.3006e-46
7.29637e-46
7.29598e-46
7.32073e-46
7.50343e-46
8.66626e-46
1.58622e-45
5.99364e-45
3.28054e-44
1.95015e-43
1.1721e-42
7.03941e-42
4.2215e-41
2.531e-40
1.51961e-39
9.15226e-39
5.53812e-38
3.37121e-37
2.06604e-36
1.275e-35
7.91953e-35
4.94588e-34
3.10069e-33
1.94761e-32
1.22308e-31
7.66245e-31
4.77888e-30
2.96124e-29
1.81985e-28
1.10746e-27
6.66435e-27
3.96124e-26
2.32344e-25
1.34376e-24
7.65818e-24
4.29844e-23
2.37512e-22
1.29145e-21
6.90782e-21
)
;

boundaryField
{
    boundary
    {
        type            empty;
    }
    inlet
    {
        type            fixedValue;
        value           nonuniform 0();
    }
    outlet
    {
        type            zeroGradient;
    }
    procBoundary3to1
    {
        type            processor;
        value           uniform 3.60865e-20;
    }
    procBoundary3to2
    {
        type            processor;
        value           uniform 7.36869e-46;
    }
}


// ************************************************************************* //
