/*--------------------------------*- C++ -*----------------------------------*\
  =========                 |
  \\      /  F ield         | OpenFOAM: The Open Source CFD Toolbox
   \\    /   O peration     | Website:  https://openfoam.org
    \\  /    A nd           | Version:  7
     \\/     M anipulation  |
\*---------------------------------------------------------------------------*/
FoamFile
{
    version     2.0;
    format      ascii;
    class       volScalarField;
    location    "0.00027";
    object      H2O2;
}
// * * * * * * * * * * * * * * * * * * * * * * * * * * * * * * * * * * * * * //

dimensions      [0 0 0 0 0 0 0];

internalField   nonuniform List<scalar> 
126
(
6.20353e-50
6.19863e-50
6.19304e-50
6.18723e-50
6.18144e-50
6.17579e-50
6.17044e-50
6.16556e-50
6.16132e-50
6.15788e-50
6.15536e-50
6.15392e-50
6.15364e-50
6.15459e-50
6.15674e-50
6.15998e-50
6.16412e-50
6.16892e-50
6.17411e-50
6.17941e-50
6.18459e-50
6.18945e-50
6.19385e-50
6.19772e-50
6.20104e-50
6.20382e-50
6.20612e-50
6.20798e-50
6.20948e-50
6.21069e-50
6.21167e-50
6.21248e-50
6.21314e-50
6.21371e-50
6.21419e-50
6.21462e-50
6.21499e-50
6.21531e-50
6.2156e-50
6.21585e-50
6.21606e-50
6.21624e-50
6.21637e-50
6.21646e-50
6.21651e-50
6.21652e-50
6.21647e-50
6.21638e-50
6.21623e-50
6.21603e-50
6.21577e-50
6.21545e-50
6.21507e-50
6.21462e-50
6.2141e-50
6.21351e-50
6.21284e-50
6.21209e-50
6.21127e-50
6.21036e-50
6.20936e-50
6.20828e-50
6.2071e-50
6.20582e-50
6.20444e-50
6.20296e-50
6.20138e-50
6.19969e-50
6.19788e-50
6.19596e-50
6.19393e-50
6.19177e-50
6.18949e-50
6.18708e-50
6.18455e-50
6.18188e-50
6.17908e-50
6.17615e-50
6.17307e-50
6.16986e-50
6.1665e-50
6.16301e-50
6.15936e-50
6.15557e-50
6.15163e-50
6.14755e-50
6.14331e-50
6.13892e-50
6.13439e-50
6.12976e-50
6.12546e-50
6.12562e-50
6.16888e-50
6.61333e-50
1.07412e-49
4.82979e-49
3.85787e-48
3.38331e-47
2.9696e-46
2.57936e-45
2.2139e-44
1.87712e-43
1.57188e-42
1.29973e-41
1.06097e-40
8.54823e-40
6.79641e-39
5.33112e-38
4.1247e-37
3.14704e-36
2.36723e-35
1.75508e-34
1.2822e-33
9.2278e-33
6.54023e-32
4.56365e-31
3.13418e-30
2.11787e-29
1.40771e-28
9.2013e-28
5.91271e-27
3.73414e-26
2.31681e-25
1.41143e-24
8.43782e-24
4.94713e-23
)
;

boundaryField
{
    boundary
    {
        type            empty;
    }
    inlet
    {
        type            fixedValue;
        value           nonuniform 0();
    }
    outlet
    {
        type            zeroGradient;
    }
    procBoundary3to1
    {
        type            processor;
        value           uniform 2.82335e-22;
    }
    procBoundary3to2
    {
        type            processor;
        value           uniform 6.19749e-50;
    }
}


// ************************************************************************* //
