/*--------------------------------*- C++ -*----------------------------------*\
  =========                 |
  \\      /  F ield         | OpenFOAM: The Open Source CFD Toolbox
   \\    /   O peration     | Website:  https://openfoam.org
    \\  /    A nd           | Version:  7
     \\/     M anipulation  |
\*---------------------------------------------------------------------------*/
FoamFile
{
    version     2.0;
    format      ascii;
    class       volScalarField;
    location    "0.00033";
    object      H;
}
// * * * * * * * * * * * * * * * * * * * * * * * * * * * * * * * * * * * * * //

dimensions      [0 0 0 0 0 0 0];

internalField   nonuniform List<scalar> 
500
(
1.48761e-41
2.01784e-41
2.1354e-41
2.16447e-41
2.17513e-41
2.18272e-41
2.19086e-41
2.20066e-41
2.21275e-41
2.22768e-41
2.24599e-41
2.26824e-41
2.29497e-41
2.32666e-41
2.3637e-41
2.40634e-41
2.45464e-41
2.50846e-41
2.56741e-41
2.63085e-41
2.69792e-41
2.76753e-41
2.83842e-41
2.90924e-41
2.97863e-41
3.04529e-41
3.10807e-41
3.16601e-41
3.21845e-41
3.26496e-41
3.30542e-41
3.33995e-41
3.36886e-41
3.39262e-41
3.4118e-41
3.42701e-41
3.43886e-41
3.44795e-41
3.4548e-41
3.45989e-41
3.4636e-41
3.46628e-41
3.46817e-41
3.4695e-41
3.47042e-41
3.47104e-41
3.47146e-41
3.47174e-41
3.47192e-41
3.47205e-41
3.47213e-41
3.47218e-41
3.47222e-41
3.47225e-41
3.47227e-41
3.47229e-41
3.47231e-41
3.47232e-41
3.47234e-41
3.47236e-41
3.47238e-41
3.47239e-41
3.47241e-41
3.47244e-41
3.47246e-41
3.47248e-41
3.47251e-41
3.47253e-41
3.47256e-41
3.47259e-41
3.47262e-41
3.47266e-41
3.47269e-41
3.47273e-41
3.47277e-41
3.47281e-41
3.47285e-41
3.47289e-41
3.47294e-41
3.47299e-41
3.47304e-41
3.4731e-41
3.47315e-41
3.47321e-41
3.47327e-41
3.47334e-41
3.47341e-41
3.47348e-41
3.47355e-41
3.47363e-41
3.47371e-41
3.47379e-41
3.47387e-41
3.47396e-41
3.47405e-41
3.47415e-41
3.47425e-41
3.47435e-41
3.47446e-41
3.47457e-41
3.47468e-41
3.4748e-41
3.47492e-41
3.47505e-41
3.47518e-41
3.47531e-41
3.47545e-41
3.47559e-41
3.47573e-41
3.47588e-41
3.47604e-41
3.47619e-41
3.47635e-41
3.47652e-41
3.47669e-41
3.47686e-41
3.47704e-41
3.47722e-41
3.47741e-41
3.4776e-41
3.47779e-41
3.47799e-41
3.47819e-41
3.47839e-41
3.47859e-41
3.47878e-41
3.47901e-41
3.47923e-41
3.47944e-41
3.47966e-41
3.47988e-41
3.48009e-41
3.48031e-41
3.48053e-41
3.48075e-41
3.48096e-41
3.48118e-41
3.48139e-41
3.48161e-41
3.48183e-41
3.48206e-41
3.48229e-41
3.48253e-41
3.48278e-41
3.48303e-41
3.48329e-41
3.48356e-41
3.48384e-41
3.48412e-41
3.4844e-41
3.48468e-41
3.48496e-41
3.48524e-41
3.48551e-41
3.48578e-41
3.48604e-41
3.4863e-41
3.48654e-41
3.48678e-41
3.487e-41
3.48722e-41
3.48742e-41
3.48762e-41
3.4878e-41
3.48797e-41
3.48813e-41
3.48828e-41
3.48841e-41
3.48853e-41
3.48864e-41
3.48873e-41
3.4888e-41
3.48886e-41
3.4889e-41
3.48892e-41
3.48892e-41
3.4889e-41
3.48885e-41
3.48879e-41
3.4887e-41
3.48858e-41
3.48844e-41
3.48827e-41
3.48807e-41
3.48784e-41
3.48759e-41
3.48729e-41
3.48697e-41
3.48661e-41
3.48621e-41
3.48578e-41
3.4853e-41
3.48479e-41
3.48424e-41
3.48364e-41
3.483e-41
3.48232e-41
3.48159e-41
3.48081e-41
3.47999e-41
3.47911e-41
3.47818e-41
3.47721e-41
3.47617e-41
3.47509e-41
3.47395e-41
3.47276e-41
3.4715e-41
3.47019e-41
3.46883e-41
3.4674e-41
3.46592e-41
3.46437e-41
3.46276e-41
3.4611e-41
3.45937e-41
3.45758e-41
3.45573e-41
3.45385e-41
3.45203e-41
3.45075e-41
3.45239e-41
3.4684e-41
3.55374e-41
3.9688e-41
5.93349e-41
1.50984e-40
5.73361e-40
2.49735e-39
1.11598e-38
4.97052e-38
2.19205e-37
9.55729e-37
4.11802e-36
1.75331e-35
7.37611e-35
3.06617e-34
1.25947e-33
5.11266e-33
2.05139e-32
8.13776e-32
3.19288e-31
1.23969e-30
4.76658e-30
1.81673e-29
6.87254e-29
2.58473e-28
9.68511e-28
3.62514e-27
1.35967e-26
5.12816e-26
1.95889e-25
7.57268e-25
2.978e-24
1.19452e-23
4.89311e-23
2.04642e-22
8.72546e-22
3.78426e-21
1.66516e-20
7.41592e-20
3.33642e-19
1.51463e-18
6.93682e-18
3.20829e-17
1.50203e-16
7.14689e-16
3.47627e-15
1.74131e-14
9.05594e-14
4.94545e-13
3.0989e-12
2.30685e-11
2.35976e-10
2.20915e-09
2.07513e-08
1.90901e-07
1.63386e-06
1.17439e-05
6.08193e-05
0.000197285
0.000430351
0.000742711
0.00110239
0.00144713
0.00170996
0.0018637
0.00192365
0.00191475
0.00186731
0.00180035
0.00172564
0.00164991
0.00157668
0.00150763
0.00144338
0.00138397
0.00132919
0.00127868
0.00123206
0.00118894
0.00114898
0.00111184
0.00107724
0.00104492
0.00101466
0.00098627
0.000959573
0.000934417
0.00091067
0.000888213
0.000866942
0.000847356
0.000829142
0.000811694
0.000794963
0.000778904
0.000763478
0.000748646
0.000734373
0.000720627
0.000707379
0.000694602
0.00068227
0.000670359
0.000658849
0.000647718
0.000636948
0.000626523
0.000616424
0.000606638
0.000597149
0.000587945
0.000579013
0.000570342
0.00056192
0.000553737
0.000545783
0.00053805
0.000530528
0.000523209
0.000516087
0.000509153
0.0005024
0.000495822
0.000489413
0.000483167
0.000477078
0.000471142
0.000465351
0.000459703
0.000454193
0.000448815
0.000443565
0.000438441
0.000433436
0.000428549
0.000423775
0.00041911
0.000414552
0.000410097
0.000405741
0.000401482
0.000397317
0.000393243
0.000389256
0.000385355
0.000381536
0.000377796
0.000374134
0.000370545
0.000367028
0.000363578
0.000360193
0.000356868
0.000353598
0.000350374
0.000347198
0.000344068
0.000340982
0.000337938
0.000334932
0.000331962
0.000329025
0.000326118
0.000323237
0.000320379
0.000317543
0.000314723
0.000311919
0.000309126
0.000306341
0.000303563
0.000300787
0.000298011
0.000295233
0.00029245
0.00028966
0.000286859
0.000284047
0.000281221
0.000278379
0.000275519
0.00027264
0.000269741
0.00026682
0.000263876
0.000260908
0.000257917
0.0002549
0.00025186
0.000248794
0.000245704
0.00024259
0.000239452
0.000236292
0.000233109
0.000229907
0.000226684
0.000223444
0.000220188
0.000216917
0.000213633
0.000210339
0.000207037
0.000203728
0.000200416
0.000197102
0.00019379
0.000190482
0.000187181
0.000183889
0.00018061
0.000177346
0.0001741
0.000170876
0.000167676
0.000164503
0.000161361
0.000158252
0.00015518
0.000152147
0.000149156
0.00014621
0.000143312
0.000140464
0.00013767
0.000134931
0.00013225
0.000129629
0.00012707
0.000124576
0.000122147
0.000119785
0.000117492
0.00011527
0.000113118
0.000111037
0.000109029
0.000107094
0.000105232
0.000103442
0.000101726
0.000100081
9.85085e-05
9.70069e-05
9.55755e-05
9.42131e-05
9.29187e-05
9.16907e-05
9.05279e-05
8.94285e-05
8.83908e-05
8.74131e-05
8.64935e-05
8.56301e-05
8.48208e-05
8.40635e-05
8.33563e-05
8.2697e-05
8.20834e-05
8.15134e-05
8.0985e-05
8.0496e-05
8.00444e-05
7.9628e-05
7.9245e-05
7.88934e-05
7.85714e-05
7.82771e-05
7.80091e-05
7.77659e-05
7.75461e-05
7.73489e-05
7.71736e-05
7.70203e-05
7.68898e-05
7.6784e-05
7.67067e-05
7.66638e-05
)
;

boundaryField
{
    boundary
    {
        type            empty;
    }
    inlet
    {
        type            fixedValue;
        value           uniform 0;
    }
    outlet
    {
        type            zeroGradient;
    }
}


// ************************************************************************* //
