/*--------------------------------*- C++ -*----------------------------------*\
  =========                 |
  \\      /  F ield         | OpenFOAM: The Open Source CFD Toolbox
   \\    /   O peration     | Website:  https://openfoam.org
    \\  /    A nd           | Version:  7
     \\/     M anipulation  |
\*---------------------------------------------------------------------------*/
FoamFile
{
    version     2.0;
    format      ascii;
    class       volScalarField;
    location    "0.00033";
    object      H2;
}
// * * * * * * * * * * * * * * * * * * * * * * * * * * * * * * * * * * * * * //

dimensions      [0 0 0 0 0 0 0];

internalField   nonuniform List<scalar> 
500
(
0.0285116
0.0285116
0.0285116
0.0285116
0.0285116
0.0285116
0.0285116
0.0285116
0.0285116
0.0285116
0.0285116
0.0285116
0.0285116
0.0285116
0.0285116
0.0285116
0.0285116
0.0285116
0.0285116
0.0285116
0.0285116
0.0285116
0.0285116
0.0285116
0.0285116
0.0285116
0.0285116
0.0285116
0.0285116
0.0285116
0.0285116
0.0285116
0.0285116
0.0285116
0.0285116
0.0285116
0.0285116
0.0285116
0.0285116
0.0285116
0.0285116
0.0285116
0.0285116
0.0285116
0.0285116
0.0285116
0.0285116
0.0285116
0.0285116
0.0285116
0.0285116
0.0285116
0.0285116
0.0285116
0.0285116
0.0285116
0.0285116
0.0285116
0.0285116
0.0285116
0.0285116
0.0285116
0.0285116
0.0285116
0.0285116
0.0285116
0.0285116
0.0285116
0.0285116
0.0285116
0.0285116
0.0285116
0.0285116
0.0285116
0.0285116
0.0285116
0.0285116
0.0285116
0.0285116
0.0285116
0.0285116
0.0285116
0.0285116
0.0285116
0.0285116
0.0285116
0.0285116
0.0285116
0.0285116
0.0285116
0.0285116
0.0285116
0.0285116
0.0285116
0.0285116
0.0285116
0.0285116
0.0285116
0.0285116
0.0285116
0.0285116
0.0285116
0.0285116
0.0285116
0.0285116
0.0285116
0.0285116
0.0285116
0.0285116
0.0285116
0.0285116
0.0285116
0.0285116
0.0285116
0.0285116
0.0285116
0.0285116
0.0285116
0.0285116
0.0285116
0.0285116
0.0285116
0.0285116
0.0285116
0.0285116
0.0285116
0.0285116
0.0285116
0.0285116
0.0285116
0.0285116
0.0285116
0.0285116
0.0285116
0.0285116
0.0285116
0.0285116
0.0285116
0.0285116
0.0285116
0.0285116
0.0285116
0.0285116
0.0285116
0.0285116
0.0285116
0.0285116
0.0285116
0.0285116
0.0285116
0.0285116
0.0285116
0.0285116
0.0285116
0.0285116
0.0285116
0.0285116
0.0285116
0.0285116
0.0285116
0.0285116
0.0285116
0.0285116
0.0285116
0.0285116
0.0285116
0.0285116
0.0285116
0.0285116
0.0285116
0.0285116
0.0285116
0.0285116
0.0285116
0.0285116
0.0285116
0.0285116
0.0285116
0.0285116
0.0285116
0.0285116
0.0285116
0.0285116
0.0285116
0.0285116
0.0285116
0.0285116
0.0285116
0.0285116
0.0285116
0.0285116
0.0285116
0.0285116
0.0285116
0.0285116
0.0285116
0.0285116
0.0285116
0.0285116
0.0285116
0.0285116
0.0285116
0.0285116
0.0285116
0.0285116
0.0285116
0.0285116
0.0285116
0.0285116
0.0285116
0.0285116
0.0285116
0.0285116
0.0285116
0.0285116
0.0285116
0.0285116
0.0285116
0.0285116
0.0285116
0.0285116
0.0285116
0.0285116
0.0285116
0.0285116
0.0285116
0.0285116
0.0285116
0.0285116
0.0285116
0.0285116
0.0285116
0.0285116
0.0285116
0.0285116
0.0285116
0.0285116
0.0285116
0.0285116
0.0285116
0.0285116
0.0285116
0.0285116
0.0285116
0.0285116
0.0285116
0.0285116
0.0285116
0.0285116
0.0285116
0.0285116
0.0285116
0.0285116
0.0285116
0.0285116
0.0285116
0.0285116
0.0285116
0.0285116
0.0285116
0.0285116
0.0285116
0.0285116
0.0285115
0.0285115
0.0285114
0.0285112
0.0285108
0.0285099
0.0285081
0.0285043
0.0284964
0.0284797
0.0284448
0.0283723
0.0282223
0.0279178
0.0273259
0.026271
0.024614
0.0223914
0.0197773
0.0168648
0.0137948
0.0108914
0.0085051
0.00677769
0.00553832
0.00481147
0.00436174
0.00408495
0.00391275
0.00380261
0.0037288
0.00367607
0.00363546
0.00360178
0.00357205
0.00354458
0.00351841
0.00349304
0.00346819
0.00344373
0.0034196
0.0033958
0.0033723
0.00334913
0.0033263
0.00330382
0.00328169
0.00325993
0.00323853
0.00321814
0.00319857
0.00317928
0.00316025
0.0031415
0.00312301
0.00310479
0.00308682
0.00306911
0.00305166
0.00303446
0.00301751
0.0030008
0.00298434
0.00296812
0.00295213
0.00293638
0.00292086
0.00290557
0.00289051
0.00287568
0.00286106
0.00284667
0.0028325
0.00281855
0.00280482
0.00279131
0.00277802
0.00276495
0.0027521
0.00273948
0.00272707
0.00271489
0.00270294
0.00269122
0.00267973
0.00266847
0.00265746
0.00264668
0.00263614
0.00262586
0.00261582
0.00260605
0.00259653
0.00258727
0.00257829
0.00256957
0.00256114
0.00255299
0.00254512
0.00253754
0.00253026
0.00252329
0.00251662
0.00251026
0.00250422
0.0024985
0.00249311
0.00248806
0.00248336
0.00247901
0.00247504
0.00247146
0.0024683
0.00246493
0.00246197
0.00245931
0.00245696
0.0024549
0.00245312
0.00245161
0.00245036
0.00244937
0.00244861
0.00244807
0.00244773
0.00244758
0.00244759
0.00244776
0.00244804
0.00244841
0.00244886
0.00244935
0.00244985
0.00245033
0.00245075
0.00245109
0.00245131
0.00245136
0.00245122
0.00245085
0.0024502
0.00244925
0.00244794
0.00244624
0.00244412
0.00244153
0.00243844
0.00243482
0.00243063
0.00242583
0.00242041
0.00241432
0.00240755
0.00240007
0.00239186
0.00238291
0.0023732
0.00236272
0.00235146
0.00233943
0.00232661
0.00231301
0.00229864
0.00228351
0.00226764
0.00225103
0.00223371
0.0022157
0.00219703
0.00217774
0.00215784
0.00213738
0.00211639
0.00209492
0.00207301
0.00205069
0.00202803
0.00200505
0.00198182
0.00195838
0.00193478
0.00191107
0.00188731
0.00186354
0.00183981
0.00181617
0.00179268
0.00176938
0.00174631
0.00172352
0.00170105
0.00167895
0.00165725
0.00163599
0.0016152
0.00159491
0.00157515
0.00155595
0.00153732
0.0015193
0.00150188
0.00148509
0.00146894
0.00145343
0.00143857
0.00142436
0.0014108
0.00139789
0.00138562
0.00137397
0.00136295
0.00135254
0.00134273
0.0013335
0.00132483
0.00131671
0.00130911
0.00130203
0.00129543
0.0012893
0.00128361
0.00127835
0.00127349
0.00126902
0.0012649
0.00126113
0.00125768
0.00125453
0.00125167
0.00124909
0.00124676
0.0012447
0.00124288
0.00124133
0.00124006
0.00123913
0.0012386
)
;

boundaryField
{
    boundary
    {
        type            empty;
    }
    inlet
    {
        type            fixedValue;
        value           uniform 0.0285116;
    }
    outlet
    {
        type            zeroGradient;
    }
}


// ************************************************************************* //
