/*--------------------------------*- C++ -*----------------------------------*\
  =========                 |
  \\      /  F ield         | OpenFOAM: The Open Source CFD Toolbox
   \\    /   O peration     | Website:  https://openfoam.org
    \\  /    A nd           | Version:  7
     \\/     M anipulation  |
\*---------------------------------------------------------------------------*/
FoamFile
{
    version     2.0;
    format      ascii;
    class       volScalarField;
    location    "0.00033";
    object      H2O;
}
// * * * * * * * * * * * * * * * * * * * * * * * * * * * * * * * * * * * * * //

dimensions      [0 0 0 0 0 0 0];

internalField   nonuniform List<scalar> 
500
(
7.9145e-48
2.29063e-47
4.12882e-47
6.20253e-47
8.44446e-47
1.08127e-46
1.32833e-46
1.5845e-46
1.84961e-46
2.12412e-46
2.40897e-46
2.70529e-46
3.01424e-46
3.33678e-46
3.67341e-46
4.02397e-46
4.38749e-46
4.76203e-46
5.14468e-46
5.53157e-46
5.91808e-46
6.29902e-46
6.66899e-46
7.0227e-46
7.35532e-46
7.66277e-46
7.94199e-46
8.19106e-46
8.40922e-46
8.59684e-46
8.75528e-46
8.88664e-46
8.9936e-46
9.07914e-46
9.14634e-46
9.19821e-46
9.23757e-46
9.26693e-46
9.28847e-46
9.30401e-46
9.31505e-46
9.32276e-46
9.32807e-46
9.33167e-46
9.33407e-46
9.33565e-46
9.33667e-46
9.33732e-46
9.33774e-46
9.33799e-46
9.33815e-46
9.33825e-46
9.33831e-46
9.33835e-46
9.33838e-46
9.3384e-46
9.33841e-46
9.33843e-46
9.33845e-46
9.33847e-46
9.33849e-46
9.33852e-46
9.33854e-46
9.33858e-46
9.33861e-46
9.33865e-46
9.33869e-46
9.33874e-46
9.33879e-46
9.33885e-46
9.33891e-46
9.33898e-46
9.33905e-46
9.33913e-46
9.33922e-46
9.33931e-46
9.3394e-46
9.33951e-46
9.33962e-46
9.33974e-46
9.33986e-46
9.34e-46
9.34014e-46
9.34029e-46
9.34044e-46
9.34061e-46
9.34078e-46
9.34097e-46
9.34116e-46
9.34136e-46
9.34158e-46
9.3418e-46
9.34203e-46
9.34227e-46
9.34253e-46
9.34279e-46
9.34307e-46
9.34336e-46
9.34365e-46
9.34396e-46
9.34429e-46
9.34462e-46
9.34497e-46
9.34532e-46
9.3457e-46
9.34608e-46
9.34648e-46
9.34688e-46
9.34731e-46
9.34774e-46
9.34819e-46
9.34865e-46
9.34913e-46
9.34961e-46
9.35011e-46
9.35063e-46
9.35115e-46
9.35169e-46
9.35225e-46
9.35282e-46
9.35341e-46
9.35405e-46
9.35485e-46
9.35624e-46
9.35986e-46
9.36771e-46
9.36774e-46
9.3677e-46
9.36753e-46
9.36716e-46
9.36651e-46
9.36553e-46
9.36418e-46
9.36246e-46
9.3604e-46
9.35808e-46
9.3556e-46
9.35309e-46
9.3507e-46
9.34859e-46
9.3469e-46
9.34575e-46
9.34525e-46
9.34543e-46
9.3463e-46
9.3478e-46
9.34986e-46
9.35235e-46
9.35514e-46
9.3581e-46
9.3611e-46
9.36403e-46
9.36681e-46
9.36938e-46
9.37171e-46
9.37378e-46
9.37561e-46
9.3772e-46
9.37858e-46
9.37977e-46
9.38079e-46
9.38169e-46
9.38246e-46
9.38314e-46
9.38374e-46
9.38426e-46
9.38473e-46
9.38513e-46
9.38547e-46
9.38576e-46
9.38599e-46
9.38617e-46
9.38629e-46
9.38634e-46
9.38634e-46
9.38626e-46
9.38612e-46
9.3859e-46
9.38561e-46
9.38523e-46
9.38477e-46
9.38423e-46
9.38359e-46
9.38285e-46
9.38202e-46
9.38108e-46
9.38003e-46
9.37887e-46
9.37759e-46
9.3762e-46
9.37467e-46
9.37302e-46
9.37124e-46
9.36932e-46
9.36725e-46
9.36504e-46
9.36268e-46
9.36017e-46
9.3575e-46
9.35466e-46
9.35166e-46
9.34849e-46
9.34515e-46
9.34163e-46
9.33793e-46
9.33404e-46
9.32997e-46
9.32571e-46
9.3213e-46
9.31691e-46
9.31356e-46
9.31698e-46
9.35935e-46
9.61938e-46
1.10815e-45
1.91264e-45
6.29468e-45
2.99882e-44
1.5731e-43
8.38069e-43
4.46466e-42
2.37464e-41
1.26264e-40
6.72554e-40
3.59709e-39
1.93621e-38
1.05104e-37
5.76229e-37
3.19285e-36
1.78753e-35
1.00996e-34
5.74756e-34
3.28635e-33
1.88289e-32
1.0781e-31
6.15364e-31
3.49378e-30
1.96942e-29
1.1005e-28
6.08828e-28
3.33131e-27
1.80132e-26
9.61924e-26
5.07029e-25
2.63684e-24
1.35254e-23
6.84093e-23
3.41113e-22
1.67665e-21
8.12306e-21
3.87908e-20
1.81686e-19
8.42321e-19
3.85491e-18
1.74053e-17
7.75518e-17
3.41146e-16
1.48242e-15
6.36754e-15
2.70557e-14
1.1381e-13
4.74361e-13
1.9608e-12
8.04542e-12
3.27979e-11
1.32955e-10
5.36387e-10
2.15521e-09
8.63023e-09
3.44602e-08
1.37269e-07
5.45653e-07
2.16475e-06
8.56877e-06
3.37933e-05
0.00013217
0.000505796
0.00182803
0.00578917
0.0146236
0.0285549
0.046093
0.0673031
0.0921747
0.118124
0.141055
0.158369
0.173238
0.181879
0.187684
0.191645
0.194438
0.196496
0.19809
0.199386
0.200486
0.201452
0.202323
0.203123
0.203868
0.204568
0.20523
0.20586
0.20646
0.207035
0.207585
0.208114
0.208622
0.209112
0.209583
0.210038
0.210477
0.210887
0.211278
0.211659
0.212029
0.212391
0.212743
0.213088
0.213424
0.213752
0.214073
0.214386
0.214693
0.214994
0.215288
0.215576
0.215858
0.216135
0.216407
0.216673
0.216935
0.217191
0.217444
0.217692
0.217936
0.218176
0.218412
0.218645
0.218874
0.2191
0.219323
0.219544
0.219762
0.219977
0.22019
0.220401
0.22061
0.220818
0.221024
0.221228
0.221432
0.221634
0.221836
0.222037
0.222238
0.222438
0.222639
0.222839
0.22304
0.223242
0.223444
0.223646
0.22385
0.224055
0.224261
0.224468
0.224677
0.224887
0.225099
0.225313
0.225529
0.225748
0.225969
0.226193
0.226421
0.226645
0.226871
0.227099
0.227329
0.22756
0.227792
0.228025
0.228259
0.228494
0.22873
0.228965
0.229201
0.229437
0.229672
0.229906
0.23014
0.230372
0.230603
0.230832
0.231059
0.231284
0.231507
0.231727
0.231944
0.232158
0.232369
0.232577
0.232781
0.232982
0.23318
0.233374
0.233564
0.233751
0.233935
0.234115
0.234292
0.234466
0.234637
0.234805
0.234969
0.235132
0.235291
0.235448
0.235602
0.235755
0.235904
0.236052
0.236198
0.236342
0.236483
0.236623
0.236761
0.236896
0.23703
0.237162
0.237291
0.237418
0.237543
0.237666
0.237786
0.237903
0.238018
0.23813
0.238239
0.238345
0.238448
0.238547
0.238643
0.238736
0.238825
0.238911
0.238992
0.239071
0.239145
0.239216
0.239283
0.239346
0.239406
0.239462
0.239515
0.239565
0.239611
0.239653
0.239693
0.23973
0.239764
0.239795
0.239824
0.23985
0.239874
0.239896
0.239916
0.239934
0.23995
0.239965
0.239978
0.23999
0.240001
0.240011
0.24002
0.240028
0.240035
0.240041
0.240047
0.240052
0.240057
0.240061
0.240064
0.240068
0.240071
0.240073
0.240076
0.240078
0.24008
0.240081
0.240083
0.240084
0.240085
0.240086
0.240087
0.240088
0.240088
0.240088
0.240089
)
;

boundaryField
{
    boundary
    {
        type            empty;
    }
    inlet
    {
        type            fixedValue;
        value           uniform 0;
    }
    outlet
    {
        type            zeroGradient;
    }
}


// ************************************************************************* //
