/*--------------------------------*- C++ -*----------------------------------*\
  =========                 |
  \\      /  F ield         | OpenFOAM: The Open Source CFD Toolbox
   \\    /   O peration     | Website:  https://openfoam.org
    \\  /    A nd           | Version:  7
     \\/     M anipulation  |
\*---------------------------------------------------------------------------*/
FoamFile
{
    version     2.0;
    format      ascii;
    class       volScalarField;
    location    "0.00033";
    object      H2O2;
}
// * * * * * * * * * * * * * * * * * * * * * * * * * * * * * * * * * * * * * //

dimensions      [0 0 0 0 0 0 0];

internalField   nonuniform List<scalar> 
500
(
2.00279e-52
6.44638e-52
1.28441e-51
2.12217e-51
3.16152e-51
4.40747e-51
5.86674e-51
7.54791e-51
9.46145e-51
1.16194e-50
1.40348e-50
1.67204e-50
1.96868e-50
2.29409e-50
2.64827e-50
3.03037e-50
3.4384e-50
3.86911e-50
4.31793e-50
4.77907e-50
5.24566e-50
5.71012e-50
6.1646e-50
6.60141e-50
7.01357e-50
7.39518e-50
7.74179e-50
8.05056e-50
8.32031e-50
8.55144e-50
8.74566e-50
8.90576e-50
9.03525e-50
9.13804e-50
9.21813e-50
9.27942e-50
9.32549e-50
9.35952e-50
9.38423e-50
9.40187e-50
9.41426e-50
9.42283e-50
9.42866e-50
9.43257e-50
9.43514e-50
9.43682e-50
9.4379e-50
9.43858e-50
9.439e-50
9.43926e-50
9.43943e-50
9.43953e-50
9.43959e-50
9.43963e-50
9.43967e-50
9.43969e-50
9.43971e-50
9.43974e-50
9.43976e-50
9.43979e-50
9.43982e-50
9.43985e-50
9.43989e-50
9.43993e-50
9.43998e-50
9.44003e-50
9.44008e-50
9.44014e-50
9.44021e-50
9.44028e-50
9.44035e-50
9.44043e-50
9.44052e-50
9.44062e-50
9.44072e-50
9.44083e-50
9.44094e-50
9.44106e-50
9.44119e-50
9.44133e-50
9.44148e-50
9.44163e-50
9.4418e-50
9.44197e-50
9.44215e-50
9.44235e-50
9.44255e-50
9.44276e-50
9.44298e-50
9.44322e-50
9.44346e-50
9.44371e-50
9.44398e-50
9.44426e-50
9.44455e-50
9.44485e-50
9.44516e-50
9.44549e-50
9.44583e-50
9.44618e-50
9.44655e-50
9.44693e-50
9.44732e-50
9.44773e-50
9.44815e-50
9.44858e-50
9.44903e-50
9.44949e-50
9.44997e-50
9.45046e-50
9.45096e-50
9.45148e-50
9.45202e-50
9.45257e-50
9.45313e-50
9.45371e-50
9.4543e-50
9.45491e-50
9.45553e-50
9.45616e-50
9.45682e-50
9.45751e-50
9.45833e-50
9.45921e-50
9.45491e-50
9.44194e-50
9.46422e-50
9.4709e-50
9.47065e-50
9.46736e-50
9.46249e-50
9.45663e-50
9.45013e-50
9.44336e-50
9.43664e-50
9.43031e-50
9.42466e-50
9.41993e-50
9.41629e-50
9.41388e-50
9.41277e-50
9.41298e-50
9.41448e-50
9.41718e-50
9.42095e-50
9.42561e-50
9.43096e-50
9.43674e-50
9.44274e-50
9.44872e-50
9.45451e-50
9.45995e-50
9.46493e-50
9.46939e-50
9.47331e-50
9.47669e-50
9.47957e-50
9.48199e-50
9.48402e-50
9.48572e-50
9.48714e-50
9.48833e-50
9.48933e-50
9.49019e-50
9.49093e-50
9.49158e-50
9.49213e-50
9.49261e-50
9.49303e-50
9.49338e-50
9.49367e-50
9.49389e-50
9.49405e-50
9.49414e-50
9.49416e-50
9.49411e-50
9.49398e-50
9.49377e-50
9.49347e-50
9.49309e-50
9.49262e-50
9.49204e-50
9.49137e-50
9.49059e-50
9.4897e-50
9.48869e-50
9.48757e-50
9.48632e-50
9.48495e-50
9.48344e-50
9.48179e-50
9.48001e-50
9.47807e-50
9.47598e-50
9.47374e-50
9.47134e-50
9.46877e-50
9.46603e-50
9.46311e-50
9.46002e-50
9.45674e-50
9.45328e-50
9.44962e-50
9.44577e-50
9.44171e-50
9.43746e-50
9.43299e-50
9.42832e-50
9.42343e-50
9.41833e-50
9.41302e-50
9.40758e-50
9.40263e-50
9.40356e-50
9.45524e-50
9.92825e-50
1.38501e-49
4.5689e-49
3.01053e-48
2.32647e-47
1.82125e-46
1.41411e-45
1.08593e-44
8.24345e-44
6.18458e-43
4.58488e-42
3.35803e-41
2.4294e-40
1.73577e-39
1.22455e-38
8.52849e-38
5.86256e-37
3.9768e-36
2.66147e-35
1.75693e-34
1.14377e-33
7.34131e-33
4.64468e-32
2.89588e-31
1.77885e-30
1.07628e-29
6.41258e-29
3.76153e-28
2.17186e-27
1.23411e-26
6.90025e-26
3.79558e-25
2.05331e-24
1.09171e-23
5.69749e-23
2.91307e-22
1.49087e-21
7.4671e-21
3.67723e-20
1.78423e-19
8.53471e-19
4.02725e-18
1.87598e-17
8.63407e-17
3.92979e-16
1.77062e-15
7.90558e-15
3.50152e-14
1.54011e-13
6.73367e-13
2.92931e-12
1.26898e-11
5.4782e-11
2.35817e-10
1.01271e-09
4.34048e-09
1.85711e-08
7.93138e-08
3.3771e-07
1.42614e-06
5.85966e-06
2.19863e-05
6.34444e-05
0.000108981
0.000124486
9.05821e-05
4.45234e-05
1.80043e-05
7.75319e-06
4.79627e-06
4.46128e-06
4.93758e-06
5.65676e-06
6.17445e-06
6.524e-06
6.71365e-06
6.77561e-06
6.74422e-06
6.6485e-06
6.51045e-06
6.34595e-06
6.16619e-06
5.97892e-06
5.78939e-06
5.60117e-06
5.4166e-06
5.23721e-06
5.06391e-06
4.89725e-06
4.73749e-06
4.58468e-06
4.43877e-06
4.2996e-06
4.16696e-06
4.04064e-06
3.9204e-06
3.80606e-06
3.70072e-06
3.60168e-06
3.50669e-06
3.41555e-06
3.32807e-06
3.24407e-06
3.16339e-06
3.08586e-06
3.01133e-06
2.93965e-06
2.8707e-06
2.80433e-06
2.74042e-06
2.67886e-06
2.61954e-06
2.56234e-06
2.50716e-06
2.45392e-06
2.40253e-06
2.35288e-06
2.30492e-06
2.25856e-06
2.21372e-06
2.17035e-06
2.12837e-06
2.08772e-06
2.04835e-06
2.0102e-06
1.97321e-06
1.93734e-06
1.90254e-06
1.86876e-06
1.83596e-06
1.80409e-06
1.77313e-06
1.74303e-06
1.71375e-06
1.68526e-06
1.65754e-06
1.63053e-06
1.60423e-06
1.57859e-06
1.55359e-06
1.52921e-06
1.50541e-06
1.48218e-06
1.45948e-06
1.4373e-06
1.41562e-06
1.3944e-06
1.37364e-06
1.3533e-06
1.33338e-06
1.31385e-06
1.29468e-06
1.27587e-06
1.25739e-06
1.23921e-06
1.22133e-06
1.20372e-06
1.18635e-06
1.16918e-06
1.15218e-06
1.13524e-06
1.11861e-06
1.10248e-06
1.0864e-06
1.07041e-06
1.05453e-06
1.03875e-06
1.02305e-06
1.00744e-06
9.91882e-07
9.76378e-07
9.60912e-07
9.45473e-07
9.3005e-07
9.14633e-07
8.99216e-07
8.83791e-07
8.68353e-07
8.52898e-07
8.37425e-07
8.21934e-07
8.06427e-07
7.90907e-07
7.75379e-07
7.59852e-07
7.44334e-07
7.28836e-07
7.13372e-07
6.97954e-07
6.82599e-07
6.67324e-07
6.52146e-07
6.37085e-07
6.22158e-07
6.07387e-07
5.92791e-07
5.7839e-07
5.64202e-07
5.50247e-07
5.36543e-07
5.23106e-07
5.09952e-07
4.97096e-07
4.8455e-07
4.72327e-07
4.60435e-07
4.48883e-07
4.37678e-07
4.26824e-07
4.16324e-07
4.06179e-07
3.96391e-07
3.86956e-07
3.77873e-07
3.69137e-07
3.60744e-07
3.52686e-07
3.44957e-07
3.37549e-07
3.30453e-07
3.2366e-07
3.17161e-07
3.10946e-07
3.05005e-07
2.99327e-07
2.93903e-07
2.88722e-07
2.83775e-07
2.7905e-07
2.74539e-07
2.70231e-07
2.66118e-07
2.62191e-07
2.58442e-07
2.54861e-07
2.51442e-07
2.48176e-07
2.45058e-07
2.4208e-07
2.39235e-07
2.36519e-07
2.33926e-07
2.3145e-07
2.29086e-07
2.26831e-07
2.2468e-07
2.22628e-07
2.20673e-07
2.18811e-07
2.17038e-07
2.15352e-07
2.13749e-07
2.12227e-07
2.10783e-07
2.09414e-07
2.08119e-07
2.06894e-07
2.05737e-07
2.04646e-07
2.03618e-07
2.02652e-07
2.01745e-07
2.00894e-07
2.00097e-07
1.99353e-07
1.98659e-07
1.98012e-07
1.97411e-07
1.96853e-07
1.96336e-07
1.95859e-07
1.95418e-07
1.95012e-07
1.94639e-07
1.94298e-07
1.93986e-07
1.93701e-07
1.93443e-07
1.93211e-07
1.93002e-07
1.92819e-07
1.9266e-07
1.92528e-07
1.92428e-07
1.92367e-07
)
;

boundaryField
{
    boundary
    {
        type            empty;
    }
    inlet
    {
        type            fixedValue;
        value           uniform 0;
    }
    outlet
    {
        type            zeroGradient;
    }
}


// ************************************************************************* //
