/*--------------------------------*- C++ -*----------------------------------*\
  =========                 |
  \\      /  F ield         | OpenFOAM: The Open Source CFD Toolbox
   \\    /   O peration     | Website:  https://openfoam.org
    \\  /    A nd           | Version:  7
     \\/     M anipulation  |
\*---------------------------------------------------------------------------*/
FoamFile
{
    version     2.0;
    format      ascii;
    class       volScalarField;
    location    "0.00033";
    object      HO2;
}
// * * * * * * * * * * * * * * * * * * * * * * * * * * * * * * * * * * * * * //

dimensions      [0 0 0 0 0 0 0];

internalField   nonuniform List<scalar> 
500
(
5.60358e-38
1.27677e-37
1.99788e-37
2.72241e-37
3.45102e-37
4.1851e-37
4.92657e-37
5.67779e-37
6.44157e-37
7.22107e-37
8.01963e-37
8.84053e-37
9.68658e-37
1.05598e-36
1.14607e-36
1.23883e-36
1.33393e-36
1.43082e-36
1.52871e-36
1.62662e-36
1.72339e-36
1.81777e-36
1.90849e-36
1.99435e-36
2.07428e-36
2.14745e-36
2.21325e-36
2.27138e-36
2.32183e-36
2.3648e-36
2.40076e-36
2.43031e-36
2.45415e-36
2.47305e-36
2.48777e-36
2.49903e-36
2.5075e-36
2.51377e-36
2.51834e-36
2.5216e-36
2.5239e-36
2.5255e-36
2.52659e-36
2.52732e-36
2.52781e-36
2.52813e-36
2.52833e-36
2.52847e-36
2.52855e-36
2.5286e-36
2.52863e-36
2.52865e-36
2.52866e-36
2.52867e-36
2.52868e-36
2.52869e-36
2.52869e-36
2.5287e-36
2.5287e-36
2.52871e-36
2.52871e-36
2.52872e-36
2.52873e-36
2.52874e-36
2.52874e-36
2.52875e-36
2.52877e-36
2.52878e-36
2.52879e-36
2.5288e-36
2.52882e-36
2.52883e-36
2.52885e-36
2.52887e-36
2.52889e-36
2.52891e-36
2.52893e-36
2.52895e-36
2.52898e-36
2.52901e-36
2.52903e-36
2.52906e-36
2.52909e-36
2.52913e-36
2.52916e-36
2.5292e-36
2.52924e-36
2.52928e-36
2.52932e-36
2.52936e-36
2.52941e-36
2.52946e-36
2.52951e-36
2.52956e-36
2.52962e-36
2.52967e-36
2.52973e-36
2.52979e-36
2.52986e-36
2.52992e-36
2.52999e-36
2.53006e-36
2.53014e-36
2.53021e-36
2.53029e-36
2.53038e-36
2.53046e-36
2.53055e-36
2.53064e-36
2.53073e-36
2.53082e-36
2.53092e-36
2.53102e-36
2.53113e-36
2.53123e-36
2.53134e-36
2.53145e-36
2.53157e-36
2.53168e-36
2.5318e-36
2.53192e-36
2.53205e-36
2.5322e-36
2.53242e-36
2.53258e-36
2.53267e-36
2.53408e-36
2.53413e-36
2.53371e-36
2.53301e-36
2.53208e-36
2.53095e-36
2.52969e-36
2.52838e-36
2.5271e-36
2.52596e-36
2.52503e-36
2.52437e-36
2.52399e-36
2.52389e-36
2.52406e-36
2.52447e-36
2.52507e-36
2.52584e-36
2.52672e-36
2.52769e-36
2.52871e-36
2.52975e-36
2.53077e-36
2.53175e-36
2.53267e-36
2.53352e-36
2.53428e-36
2.53496e-36
2.53556e-36
2.53607e-36
2.53651e-36
2.53689e-36
2.53721e-36
2.53747e-36
2.5377e-36
2.5379e-36
2.53807e-36
2.53822e-36
2.53835e-36
2.53846e-36
2.53856e-36
2.53864e-36
2.53872e-36
2.53878e-36
2.53884e-36
2.53888e-36
2.5389e-36
2.53892e-36
2.53892e-36
2.53891e-36
2.53889e-36
2.53884e-36
2.53879e-36
2.53871e-36
2.53862e-36
2.53852e-36
2.53839e-36
2.53824e-36
2.53807e-36
2.53788e-36
2.53767e-36
2.53743e-36
2.53717e-36
2.53689e-36
2.53658e-36
2.53624e-36
2.53588e-36
2.53548e-36
2.53506e-36
2.53461e-36
2.53412e-36
2.53361e-36
2.53306e-36
2.53248e-36
2.53186e-36
2.53121e-36
2.53052e-36
2.52979e-36
2.52903e-36
2.52823e-36
2.52739e-36
2.52651e-36
2.5256e-36
2.52464e-36
2.52363e-36
2.52259e-36
2.52151e-36
2.52038e-36
2.51921e-36
2.518e-36
2.51674e-36
2.51545e-36
2.5141e-36
2.51272e-36
2.5113e-36
2.50989e-36
2.50867e-36
2.5086e-36
2.5143e-36
2.54836e-36
2.71962e-36
3.54769e-36
7.49199e-36
2.60993e-35
1.13195e-34
5.18212e-34
2.39198e-33
1.10311e-32
5.08059e-32
2.34091e-31
1.08148e-30
5.02154e-30
2.34831e-29
1.10777e-28
5.27534e-28
2.53558e-27
1.22872e-26
5.99187e-26
2.93351e-25
1.43818e-24
7.04286e-24
3.43701e-23
1.66797e-22
8.03227e-22
3.82695e-21
1.81434e-20
8.51664e-20
3.95834e-19
1.82196e-18
8.30625e-18
3.75203e-17
1.68013e-16
7.4628e-16
3.29031e-15
1.44099e-14
6.27306e-14
2.71643e-13
1.17084e-12
5.02603e-12
2.14983e-11
9.16686e-11
3.89779e-10
1.65313e-09
6.99456e-09
2.95244e-08
1.24233e-07
5.20306e-07
2.15368e-06
8.72322e-06
3.36533e-05
0.000116323
0.000312822
0.000503881
0.00050076
0.000403129
0.000292807
0.000206066
0.000144292
0.0001008
7.07766e-05
5.10274e-05
3.58536e-05
2.75486e-05
2.21887e-05
1.86326e-05
1.61852e-05
1.44281e-05
1.31113e-05
1.20845e-05
1.12558e-05
1.05675e-05
9.98266e-06
9.47651e-06
9.03213e-06
8.63748e-06
8.28376e-06
7.96428e-06
7.67391e-06
7.40856e-06
7.16497e-06
6.94044e-06
6.73275e-06
6.54005e-06
6.36077e-06
6.19363e-06
6.03759e-06
5.89615e-06
5.7649e-06
5.64051e-06
5.52246e-06
5.41027e-06
5.30351e-06
5.20179e-06
5.10476e-06
5.0121e-06
4.92353e-06
4.83878e-06
4.75762e-06
4.67982e-06
4.60518e-06
4.53352e-06
4.46466e-06
4.39844e-06
4.33471e-06
4.27335e-06
4.21421e-06
4.15719e-06
4.10216e-06
4.04903e-06
3.99769e-06
3.94806e-06
3.90004e-06
3.85355e-06
3.80852e-06
3.76486e-06
3.72252e-06
3.68141e-06
3.64148e-06
3.60265e-06
3.56489e-06
3.52811e-06
3.49228e-06
3.45732e-06
3.42321e-06
3.38987e-06
3.35727e-06
3.32535e-06
3.29408e-06
3.2634e-06
3.23326e-06
3.20364e-06
3.17448e-06
3.14575e-06
3.11739e-06
3.08939e-06
3.06168e-06
3.03425e-06
3.00705e-06
2.98004e-06
2.95318e-06
2.92646e-06
2.89982e-06
2.87323e-06
2.84667e-06
2.82009e-06
2.79346e-06
2.76672e-06
2.73983e-06
2.71263e-06
2.68474e-06
2.65687e-06
2.63048e-06
2.60343e-06
2.576e-06
2.54831e-06
2.52042e-06
2.49234e-06
2.46409e-06
2.43567e-06
2.4071e-06
2.3784e-06
2.34958e-06
2.32067e-06
2.29169e-06
2.26268e-06
2.23367e-06
2.2047e-06
2.17582e-06
2.14706e-06
2.11847e-06
2.09011e-06
2.06203e-06
2.03428e-06
2.00692e-06
1.98001e-06
1.95361e-06
1.92777e-06
1.90256e-06
1.87803e-06
1.85424e-06
1.83125e-06
1.80911e-06
1.78787e-06
1.76758e-06
1.74827e-06
1.73e-06
1.71279e-06
1.69667e-06
1.68167e-06
1.6678e-06
1.65508e-06
1.64351e-06
1.63309e-06
1.62382e-06
1.61567e-06
1.60863e-06
1.60266e-06
1.59774e-06
1.59383e-06
1.59088e-06
1.58884e-06
1.58766e-06
1.58728e-06
1.58764e-06
1.58867e-06
1.59032e-06
1.59251e-06
1.59519e-06
1.5983e-06
1.60176e-06
1.60551e-06
1.60952e-06
1.61371e-06
1.61804e-06
1.62246e-06
1.62694e-06
1.63143e-06
1.63592e-06
1.64036e-06
1.64473e-06
1.64902e-06
1.65321e-06
1.6573e-06
1.66126e-06
1.66511e-06
1.66883e-06
1.67242e-06
1.67589e-06
1.67924e-06
1.68247e-06
1.68559e-06
1.68859e-06
1.6915e-06
1.6943e-06
1.69701e-06
1.69963e-06
1.70216e-06
1.70461e-06
1.70698e-06
1.70927e-06
1.71148e-06
1.71362e-06
1.71569e-06
1.71768e-06
1.7196e-06
1.72144e-06
1.72322e-06
1.72492e-06
1.72655e-06
1.7281e-06
1.72959e-06
1.731e-06
1.73234e-06
1.73361e-06
1.73481e-06
1.73594e-06
1.73701e-06
1.73801e-06
1.73895e-06
1.73982e-06
1.74064e-06
1.7414e-06
1.7421e-06
1.74276e-06
1.74336e-06
1.74391e-06
1.74443e-06
1.74489e-06
1.74532e-06
1.74571e-06
1.74605e-06
1.74636e-06
1.7466e-06
1.74677e-06
)
;

boundaryField
{
    boundary
    {
        type            empty;
    }
    inlet
    {
        type            fixedValue;
        value           uniform 0;
    }
    outlet
    {
        type            zeroGradient;
    }
}


// ************************************************************************* //
