/*--------------------------------*- C++ -*----------------------------------*\
  =========                 |
  \\      /  F ield         | OpenFOAM: The Open Source CFD Toolbox
   \\    /   O peration     | Website:  https://openfoam.org
    \\  /    A nd           | Version:  7
     \\/     M anipulation  |
\*---------------------------------------------------------------------------*/
FoamFile
{
    version     2.0;
    format      ascii;
    class       volScalarField;
    location    "0.00033";
    object      N2;
}
// * * * * * * * * * * * * * * * * * * * * * * * * * * * * * * * * * * * * * //

dimensions      [0 0 0 0 0 0 0];

internalField   nonuniform List<scalar> 
500
(
0.745219
0.745219
0.745219
0.745219
0.745219
0.745219
0.745219
0.745219
0.745219
0.745219
0.745219
0.745219
0.745219
0.745219
0.745219
0.745219
0.745219
0.745219
0.745219
0.745219
0.745219
0.745219
0.74522
0.74522
0.74522
0.74522
0.74522
0.74522
0.74522
0.74522
0.74522
0.74522
0.74522
0.74522
0.74522
0.74522
0.74522
0.74522
0.74522
0.74522
0.74522
0.74522
0.74522
0.74522
0.74522
0.74522
0.74522
0.74522
0.74522
0.74522
0.74522
0.74522
0.74522
0.74522
0.74522
0.74522
0.74522
0.74522
0.74522
0.74522
0.74522
0.74522
0.74522
0.74522
0.74522
0.74522
0.74522
0.74522
0.74522
0.74522
0.74522
0.74522
0.74522
0.74522
0.74522
0.74522
0.74522
0.74522
0.74522
0.74522
0.74522
0.74522
0.74522
0.74522
0.74522
0.74522
0.74522
0.74522
0.74522
0.74522
0.74522
0.74522
0.74522
0.74522
0.74522
0.74522
0.74522
0.74522
0.74522
0.74522
0.74522
0.74522
0.74522
0.74522
0.74522
0.74522
0.74522
0.74522
0.74522
0.74522
0.74522
0.74522
0.74522
0.74522
0.74522
0.74522
0.74522
0.74522
0.74522
0.74522
0.74522
0.74522
0.74522
0.74522
0.74522
0.74522
0.74522
0.74522
0.74522
0.74522
0.74522
0.74522
0.74522
0.74522
0.74522
0.74522
0.74522
0.74522
0.74522
0.74522
0.74522
0.74522
0.74522
0.74522
0.74522
0.74522
0.74522
0.74522
0.74522
0.74522
0.74522
0.74522
0.74522
0.74522
0.74522
0.74522
0.74522
0.74522
0.74522
0.74522
0.74522
0.74522
0.74522
0.74522
0.74522
0.74522
0.74522
0.74522
0.74522
0.74522
0.74522
0.74522
0.74522
0.74522
0.74522
0.74522
0.74522
0.74522
0.74522
0.74522
0.74522
0.74522
0.74522
0.74522
0.74522
0.74522
0.74522
0.74522
0.74522
0.74522
0.74522
0.74522
0.74522
0.74522
0.74522
0.74522
0.74522
0.74522
0.74522
0.74522
0.74522
0.74522
0.74522
0.74522
0.74522
0.74522
0.74522
0.74522
0.74522
0.74522
0.74522
0.74522
0.74522
0.74522
0.74522
0.74522
0.74522
0.74522
0.74522
0.74522
0.74522
0.74522
0.74522
0.74522
0.74522
0.74522
0.74522
0.74522
0.74522
0.74522
0.74522
0.74522
0.74522
0.74522
0.74522
0.74522
0.74522
0.74522
0.74522
0.74522
0.74522
0.74522
0.74522
0.74522
0.74522
0.74522
0.74522
0.74522
0.74522
0.74522
0.74522
0.74522
0.74522
0.74522
0.74522
0.74522
0.74522
0.74522
0.74522
0.74522
0.74522
0.74522
0.74522
0.74522
0.74522
0.74522
0.74522
0.74522
0.745221
0.745222
0.745225
0.745231
0.745242
0.745266
0.745312
0.745394
0.745516
0.745621
0.745559
0.745274
0.744845
0.744292
0.743791
0.743607
0.743787
0.744114
0.744289
0.744838
0.745025
0.745154
0.745235
0.745285
0.745314
0.74533
0.745338
0.745342
0.745342
0.745341
0.745339
0.745336
0.745333
0.74533
0.745327
0.745324
0.745321
0.745318
0.745315
0.745313
0.74531
0.745308
0.745306
0.745304
0.745302
0.7453
0.745298
0.745296
0.745294
0.745293
0.745291
0.745289
0.745288
0.745286
0.745285
0.745283
0.745281
0.74528
0.745278
0.745276
0.745274
0.745272
0.74527
0.745268
0.745266
0.745263
0.745261
0.745258
0.745255
0.745253
0.745249
0.745246
0.745243
0.745239
0.745236
0.745232
0.745228
0.745224
0.74522
0.745215
0.745211
0.745207
0.745202
0.745197
0.745193
0.745188
0.745184
0.745179
0.745174
0.74517
0.745165
0.745161
0.745157
0.745153
0.745149
0.745146
0.745142
0.745139
0.745137
0.745135
0.745133
0.745131
0.745131
0.74513
0.74513
0.745131
0.745132
0.745133
0.745137
0.745142
0.745148
0.745154
0.745162
0.745171
0.745181
0.745192
0.745204
0.745218
0.745232
0.745248
0.745264
0.745282
0.7453
0.74532
0.74534
0.745361
0.745382
0.745404
0.745426
0.745448
0.74547
0.745492
0.745514
0.745535
0.745555
0.745574
0.745592
0.745609
0.745625
0.745639
0.745651
0.745662
0.74567
0.745676
0.74568
0.745682
0.745681
0.745678
0.745672
0.745664
0.745654
0.745641
0.745627
0.745609
0.74559
0.745569
0.745547
0.745522
0.745497
0.74547
0.745442
0.745413
0.745384
0.745354
0.745324
0.745294
0.745264
0.745235
0.745207
0.745179
0.745152
0.745127
0.745103
0.74508
0.745059
0.745039
0.745021
0.745005
0.74499
0.744978
0.744967
0.744958
0.744951
0.744945
0.744941
0.744939
0.744938
0.744939
0.744941
0.744944
0.744948
0.744954
0.74496
0.744967
0.744975
0.744983
0.744992
0.745001
0.745011
0.74502
0.74503
0.74504
0.74505
0.74506
0.745069
0.745079
0.745088
0.745097
0.745106
0.745114
0.745122
0.745129
0.745137
0.745143
0.74515
0.745156
0.745161
0.745167
0.745172
0.745176
0.74518
0.745184
0.745188
0.745191
0.745194
0.745197
0.745199
0.745201
0.745203
0.745204
0.745205
0.745206
)
;

boundaryField
{
    boundary
    {
        type            empty;
    }
    inlet
    {
        type            fixedValue;
        value           uniform 0.74522;
    }
    outlet
    {
        type            zeroGradient;
    }
}


// ************************************************************************* //
