/*--------------------------------*- C++ -*----------------------------------*\
  =========                 |
  \\      /  F ield         | OpenFOAM: The Open Source CFD Toolbox
   \\    /   O peration     | Website:  https://openfoam.org
    \\  /    A nd           | Version:  7
     \\/     M anipulation  |
\*---------------------------------------------------------------------------*/
FoamFile
{
    version     2.0;
    format      ascii;
    class       volScalarField;
    location    "0.00033";
    object      O;
}
// * * * * * * * * * * * * * * * * * * * * * * * * * * * * * * * * * * * * * //

dimensions      [0 0 0 0 0 0 0];

internalField   nonuniform List<scalar> 
500
(
1.58271e-47
3.78325e-47
6.006e-47
8.24336e-47
1.04979e-46
1.27757e-46
1.50848e-46
1.74352e-46
1.98382e-46
2.23065e-46
2.48531e-46
2.74911e-46
3.02316e-46
3.30834e-46
3.60508e-46
3.91323e-46
4.23199e-46
4.55979e-46
4.89428e-46
5.2324e-46
5.57045e-46
5.90429e-46
6.22955e-46
6.54191e-46
6.83734e-46
7.11235e-46
7.36419e-46
7.59097e-46
7.79173e-46
7.96642e-46
8.11583e-46
8.24142e-46
8.34519e-46
8.42948e-46
8.49679e-46
8.54964e-46
8.59047e-46
8.6215e-46
8.6447e-46
8.66177e-46
8.67415e-46
8.68298e-46
8.68919e-46
8.69349e-46
8.69643e-46
8.6984e-46
8.69972e-46
8.70057e-46
8.70113e-46
8.70148e-46
8.70171e-46
8.70185e-46
8.70194e-46
8.702e-46
8.70204e-46
8.70206e-46
8.70209e-46
8.70211e-46
8.70213e-46
8.70215e-46
8.70218e-46
8.7022e-46
8.70223e-46
8.70226e-46
8.7023e-46
8.70234e-46
8.70238e-46
8.70243e-46
8.70248e-46
8.70254e-46
8.7026e-46
8.70266e-46
8.70273e-46
8.70281e-46
8.70289e-46
8.70298e-46
8.70307e-46
8.70317e-46
8.70328e-46
8.70339e-46
8.70351e-46
8.70364e-46
8.70377e-46
8.70392e-46
8.70406e-46
8.70422e-46
8.70439e-46
8.70456e-46
8.70475e-46
8.70494e-46
8.70514e-46
8.70535e-46
8.70557e-46
8.7058e-46
8.70604e-46
8.70629e-46
8.70655e-46
8.70682e-46
8.7071e-46
8.70739e-46
8.70769e-46
8.708e-46
8.70833e-46
8.70867e-46
8.70902e-46
8.70938e-46
8.70975e-46
8.71013e-46
8.71053e-46
8.71093e-46
8.71135e-46
8.71179e-46
8.71223e-46
8.71269e-46
8.71316e-46
8.71364e-46
8.71413e-46
8.71463e-46
8.71515e-46
8.71567e-46
8.7162e-46
8.71672e-46
8.7172e-46
8.71752e-46
8.71735e-46
8.71664e-46
8.71727e-46
8.71786e-46
8.71839e-46
8.71886e-46
8.71924e-46
8.71954e-46
8.71973e-46
8.71981e-46
8.71979e-46
8.71966e-46
8.71944e-46
8.71915e-46
8.71885e-46
8.71856e-46
8.71835e-46
8.71827e-46
8.71837e-46
8.71869e-46
8.71926e-46
8.72009e-46
8.72118e-46
8.72249e-46
8.724e-46
8.72565e-46
8.7274e-46
8.72919e-46
8.73098e-46
8.73271e-46
8.73436e-46
8.7359e-46
8.73731e-46
8.7386e-46
8.73976e-46
8.7408e-46
8.74172e-46
8.74254e-46
8.74326e-46
8.74391e-46
8.74448e-46
8.74498e-46
8.74542e-46
8.7458e-46
8.74613e-46
8.74641e-46
8.74663e-46
8.7468e-46
8.74691e-46
8.74697e-46
8.74696e-46
8.7469e-46
8.74676e-46
8.74656e-46
8.74629e-46
8.74594e-46
8.74552e-46
8.74501e-46
8.74442e-46
8.74373e-46
8.74296e-46
8.74209e-46
8.74112e-46
8.74004e-46
8.73886e-46
8.73756e-46
8.73615e-46
8.73462e-46
8.73296e-46
8.73118e-46
8.72926e-46
8.72722e-46
8.72503e-46
8.7227e-46
8.72022e-46
8.71759e-46
8.71481e-46
8.71187e-46
8.70877e-46
8.70551e-46
8.7021e-46
8.69863e-46
8.6956e-46
8.69601e-46
8.71675e-46
8.85329e-46
9.63866e-46
1.40208e-45
3.81427e-45
1.6952e-44
8.77804e-44
4.65756e-43
2.46213e-42
1.2897e-41
6.68658e-41
3.43018e-40
1.74082e-39
8.7389e-39
4.33875e-38
2.13019e-37
1.03409e-36
4.96284e-36
2.35435e-35
1.10389e-34
5.11482e-34
2.34172e-33
1.0592e-32
4.73268e-32
2.08866e-31
9.10346e-31
3.9181e-30
1.66505e-29
6.98583e-29
2.89339e-28
1.18293e-27
4.77359e-27
1.90126e-26
7.47364e-26
2.89942e-25
1.11015e-24
4.19524e-24
1.56484e-23
5.76184e-23
2.09456e-22
7.51879e-22
2.66578e-21
9.33779e-21
3.23495e-20
1.10752e-19
3.74968e-19
1.25626e-18
4.16742e-18
1.36967e-17
4.4627e-17
1.44245e-16
4.62827e-16
1.47519e-15
4.67396e-15
1.47306e-14
4.62105e-14
1.44381e-13
4.49552e-13
1.39566e-12
4.32228e-12
1.33588e-11
4.12202e-11
1.27026e-10
3.91099e-10
1.20386e-09
3.71199e-09
1.15531e-08
3.73835e-08
1.38053e-07
6.86704e-07
4.63432e-06
2.93571e-05
0.000136678
0.000508217
0.00136628
0.00264504
0.00399554
0.00509784
0.00584185
0.00626443
0.00642524
0.00644026
0.00636732
0.00624428
0.00609507
0.00593429
0.00577059
0.0056089
0.00545196
0.00530113
0.00515702
0.00501976
0.00488924
0.00476521
0.00464732
0.00453524
0.0044286
0.00432706
0.00423029
0.00413798
0.00404984
0.00396562
0.00388508
0.00380805
0.00373659
0.00366915
0.00360405
0.00354116
0.00348036
0.00342153
0.00336458
0.00330942
0.00325596
0.00320413
0.00315385
0.00310506
0.00305768
0.00301165
0.00296693
0.00292344
0.00288115
0.00283999
0.00279993
0.00276092
0.00272292
0.00268588
0.00264977
0.00261455
0.00258018
0.00254662
0.00251385
0.00248184
0.00245054
0.00241993
0.00238999
0.00236067
0.00233195
0.00230381
0.00227622
0.00224916
0.00222258
0.00219648
0.00217083
0.0021456
0.00212077
0.00209631
0.00207222
0.00204845
0.002025
0.00200183
0.00197894
0.00195629
0.00193388
0.00191168
0.00188967
0.00186784
0.00184617
0.00182464
0.00180324
0.00178195
0.00176076
0.00173964
0.00171859
0.00169758
0.0016766
0.00165563
0.00163466
0.00161368
0.00159279
0.00157194
0.0015511
0.00153027
0.00150946
0.00148865
0.00146786
0.00144709
0.00142635
0.00140564
0.00138497
0.00136435
0.0013438
0.00132333
0.00130296
0.00128269
0.00126255
0.00124254
0.0012227
0.00120302
0.00118355
0.00116428
0.00114523
0.00112643
0.00110789
0.00108962
0.00107163
0.00105395
0.00103657
0.00101951
0.00100278
0.000986385
0.000970328
0.000954614
0.000939243
0.000924218
0.000909535
0.000895192
0.000881186
0.00086751
0.000854159
0.000841123
0.000828396
0.000815967
0.000803827
0.000791966
0.000780374
0.000769038
0.00075795
0.000747098
0.000736473
0.000726063
0.00071586
0.000705855
0.00069604
0.000686407
0.000676949
0.000667659
0.000658534
0.000649567
0.000640756
0.000632097
0.000623589
0.000615229
0.000607017
0.000598953
0.000591037
0.000583271
0.000575655
0.000568191
0.000560882
0.00055373
0.000546737
0.000539906
0.000533239
0.00052674
0.000520412
0.000514255
0.000508273
0.000502468
0.000496842
0.000491396
0.000486132
0.00048105
0.000476151
0.000471435
0.000466902
0.000462551
0.000458382
0.000454392
0.000450581
0.000446947
0.000443486
0.000440195
0.000437073
0.000434114
0.000431316
0.000428674
0.000426185
0.000423843
0.000421643
0.000419582
0.000417654
0.000415853
0.000414174
0.000412613
0.000411163
0.00040982
0.000408578
0.000407432
0.000406376
0.000405407
0.000404518
0.000403705
0.000402964
0.000402291
0.000401682
0.000401134
0.000400646
0.000400216
0.000399847
0.000399542
0.000399311
0.000399173
)
;

boundaryField
{
    boundary
    {
        type            empty;
    }
    inlet
    {
        type            fixedValue;
        value           uniform 0;
    }
    outlet
    {
        type            zeroGradient;
    }
}


// ************************************************************************* //
