/*--------------------------------*- C++ -*----------------------------------*\
  =========                 |
  \\      /  F ield         | OpenFOAM: The Open Source CFD Toolbox
   \\    /   O peration     | Website:  https://openfoam.org
    \\  /    A nd           | Version:  7
     \\/     M anipulation  |
\*---------------------------------------------------------------------------*/
FoamFile
{
    version     2.0;
    format      ascii;
    class       volScalarField;
    location    "0.00033";
    object      O2;
}
// * * * * * * * * * * * * * * * * * * * * * * * * * * * * * * * * * * * * * //

dimensions      [0 0 0 0 0 0 0];

internalField   nonuniform List<scalar> 
500
(
0.226269
0.226269
0.226269
0.226269
0.226269
0.226269
0.226269
0.226269
0.226269
0.226269
0.226269
0.226269
0.226269
0.226269
0.226269
0.226269
0.226269
0.226269
0.226269
0.226269
0.226269
0.226269
0.226269
0.226269
0.226269
0.226269
0.226269
0.226269
0.226269
0.226269
0.226269
0.226269
0.226269
0.226269
0.226269
0.226269
0.226269
0.226269
0.226269
0.226269
0.226269
0.226269
0.226269
0.226269
0.226269
0.226269
0.226269
0.226269
0.226269
0.226269
0.226269
0.226269
0.226269
0.226269
0.226269
0.226269
0.226269
0.226269
0.226269
0.226269
0.226269
0.226269
0.226269
0.226269
0.226269
0.226269
0.226269
0.226269
0.226269
0.226269
0.226269
0.226269
0.226269
0.226269
0.226269
0.226269
0.226269
0.226269
0.226269
0.226269
0.226269
0.226269
0.226269
0.226269
0.226269
0.226269
0.226269
0.226269
0.226269
0.226269
0.226269
0.226269
0.226269
0.226269
0.226269
0.226269
0.226269
0.226269
0.226269
0.226269
0.226269
0.226269
0.226269
0.226269
0.226269
0.226269
0.226269
0.226269
0.226269
0.226269
0.226269
0.226269
0.226269
0.226269
0.226269
0.226269
0.226269
0.226269
0.226269
0.226269
0.226269
0.226269
0.226269
0.226269
0.226269
0.226269
0.226269
0.226269
0.226269
0.226269
0.226269
0.226269
0.226269
0.226269
0.226269
0.226269
0.226269
0.226269
0.226269
0.226269
0.226269
0.226269
0.226269
0.226269
0.226269
0.226269
0.226269
0.226269
0.226269
0.226269
0.226269
0.226269
0.226269
0.226269
0.226269
0.226269
0.226269
0.226269
0.226269
0.226269
0.226269
0.226269
0.226269
0.226269
0.226269
0.226269
0.226269
0.226269
0.226269
0.226269
0.226269
0.226269
0.226269
0.226269
0.226269
0.226269
0.226269
0.226269
0.226269
0.226269
0.226269
0.226269
0.226269
0.226269
0.226269
0.226269
0.226269
0.226269
0.226269
0.226269
0.226269
0.226269
0.226269
0.226269
0.226269
0.226269
0.226269
0.226269
0.226269
0.226269
0.226269
0.226269
0.226269
0.226269
0.226269
0.226269
0.226269
0.226269
0.226269
0.226269
0.226269
0.226269
0.226269
0.226269
0.226269
0.226269
0.226269
0.226269
0.226269
0.226269
0.226269
0.226269
0.226269
0.226269
0.226269
0.226269
0.226269
0.226269
0.226269
0.226269
0.226269
0.226269
0.226269
0.226269
0.226269
0.226269
0.226269
0.226269
0.226269
0.226269
0.226269
0.226269
0.226269
0.226269
0.226269
0.226269
0.226269
0.226269
0.226269
0.226269
0.226269
0.226269
0.226269
0.226269
0.226269
0.226269
0.226269
0.226269
0.226269
0.226269
0.226269
0.226269
0.226269
0.226269
0.226269
0.226269
0.226269
0.226269
0.226269
0.22627
0.226271
0.226272
0.226275
0.226278
0.226272
0.226212
0.22592
0.224828
0.221637
0.214344
0.20264
0.187665
0.168547
0.144731
0.118791
0.0952456
0.0772357
0.0611962
0.051912
0.045643
0.0413783
0.0384081
0.036266
0.0346557
0.0333916
0.032358
0.0314824
0.0307191
0.0300386
0.0294216
0.0288551
0.0283299
0.0278397
0.0273796
0.0269459
0.0265356
0.0261465
0.0257765
0.0254239
0.0250876
0.0247662
0.0244592
0.0241748
0.023905
0.0236441
0.0233915
0.0231468
0.0229096
0.0226794
0.0224559
0.0222387
0.0220275
0.021822
0.0216219
0.021427
0.021237
0.0210517
0.0208709
0.0206944
0.020522
0.0203535
0.0201887
0.0200274
0.0198695
0.0197149
0.0195633
0.0194146
0.0192686
0.0191252
0.0189843
0.0188456
0.0187091
0.0185745
0.0184418
0.0183107
0.0181812
0.018053
0.0179261
0.0178002
0.0176752
0.017551
0.0174273
0.0173041
0.0171812
0.0170584
0.0169356
0.0168126
0.0166893
0.0165655
0.0164411
0.0163159
0.0161898
0.0160626
0.0159342
0.0158045
0.0156734
0.0155406
0.0154061
0.0152698
0.0151316
0.0149912
0.0148486
0.0147036
0.0145559
0.0144051
0.0142506
0.0140981
0.0139427
0.0137853
0.0136257
0.0134642
0.0133007
0.0131355
0.0129685
0.0128
0.0126301
0.012459
0.012287
0.0121141
0.0119406
0.0117668
0.011593
0.0114194
0.0112463
0.0110739
0.0109026
0.0107326
0.0105643
0.0103978
0.0102335
0.0100717
0.0099126
0.00975644
0.00960346
0.00945389
0.00930793
0.00916576
0.00902754
0.00889342
0.00876352
0.00863796
0.0085168
0.00840012
0.00828797
0.00818037
0.00807733
0.00797884
0.00788489
0.00779544
0.00771044
0.00762982
0.00755352
0.00748146
0.00741355
0.0073497
0.0072898
0.00723375
0.00718144
0.00713277
0.00708763
0.0070459
0.00700747
0.00697223
0.00694007
0.00691089
0.00688457
0.00686102
0.00684012
0.00682179
0.00680591
0.0067924
0.00678116
0.00677209
0.0067651
0.0067601
0.00675699
0.00675569
0.00675611
0.00675814
0.00676171
0.00676671
0.00677305
0.00678064
0.00678937
0.00679915
0.00680989
0.00682148
0.00683383
0.00684684
0.00686041
0.00687444
0.00688884
0.00690352
0.00691838
0.00693335
0.00694834
0.00696327
0.00697807
0.00699267
0.00700701
0.00702104
0.0070347
0.00704795
0.00706075
0.00707307
0.00708489
0.00709618
0.00710693
0.00711713
0.00712678
0.00713588
0.00714442
0.00715243
0.0071599
0.00716686
0.00717332
0.0071793
0.00718481
0.00718989
0.00719455
0.00719881
0.00720269
0.00720622
0.00720941
0.00721228
0.00721485
0.0072171
0.00721903
0.00722058
0.00722159
)
;

boundaryField
{
    boundary
    {
        type            empty;
    }
    inlet
    {
        type            fixedValue;
        value           uniform 0.226269;
    }
    outlet
    {
        type            zeroGradient;
    }
}


// ************************************************************************* //
