/*--------------------------------*- C++ -*----------------------------------*\
  =========                 |
  \\      /  F ield         | OpenFOAM: The Open Source CFD Toolbox
   \\    /   O peration     | Website:  https://openfoam.org
    \\  /    A nd           | Version:  7
     \\/     M anipulation  |
\*---------------------------------------------------------------------------*/
FoamFile
{
    version     2.0;
    format      ascii;
    class       volVectorField;
    location    "0.00033";
    object      U;
}
// * * * * * * * * * * * * * * * * * * * * * * * * * * * * * * * * * * * * * //

dimensions      [0 1 -1 0 0 0 0];

internalField   nonuniform List<vector> 
500
(
(2.34892 0 0)
(2.34885 0 0)
(2.34877 0 0)
(2.3487 0 0)
(2.34863 0 0)
(2.34857 0 0)
(2.34852 0 0)
(2.34847 0 0)
(2.34843 0 0)
(2.34839 0 0)
(2.34836 0 0)
(2.34833 0 0)
(2.34831 0 0)
(2.34829 0 0)
(2.34827 0 0)
(2.34825 0 0)
(2.34823 0 0)
(2.3482 0 0)
(2.34817 0 0)
(2.34812 0 0)
(2.34806 0 0)
(2.34799 0 0)
(2.3479 0 0)
(2.3478 0 0)
(2.34769 0 0)
(2.34757 0 0)
(2.34744 0 0)
(2.34731 0 0)
(2.34718 0 0)
(2.34705 0 0)
(2.34692 0 0)
(2.34679 0 0)
(2.34667 0 0)
(2.34655 0 0)
(2.34644 0 0)
(2.34634 0 0)
(2.34624 0 0)
(2.34614 0 0)
(2.34605 0 0)
(2.34596 0 0)
(2.34588 0 0)
(2.34579 0 0)
(2.34571 0 0)
(2.34563 0 0)
(2.34556 0 0)
(2.34548 0 0)
(2.3454 0 0)
(2.34533 0 0)
(2.34525 0 0)
(2.34518 0 0)
(2.3451 0 0)
(2.34503 0 0)
(2.34495 0 0)
(2.34487 0 0)
(2.3448 0 0)
(2.34472 0 0)
(2.34465 0 0)
(2.34457 0 0)
(2.3445 0 0)
(2.34442 0 0)
(2.34435 0 0)
(2.34427 0 0)
(2.3442 0 0)
(2.34412 0 0)
(2.34405 0 0)
(2.34397 0 0)
(2.3439 0 0)
(2.34382 0 0)
(2.34375 0 0)
(2.34367 0 0)
(2.3436 0 0)
(2.34352 0 0)
(2.34345 0 0)
(2.34337 0 0)
(2.3433 0 0)
(2.34322 0 0)
(2.34315 0 0)
(2.34307 0 0)
(2.343 0 0)
(2.34292 0 0)
(2.34285 0 0)
(2.34277 0 0)
(2.3427 0 0)
(2.34262 0 0)
(2.34255 0 0)
(2.34247 0 0)
(2.3424 0 0)
(2.34232 0 0)
(2.34224 0 0)
(2.34217 0 0)
(2.34209 0 0)
(2.34202 0 0)
(2.34194 0 0)
(2.34187 0 0)
(2.34179 0 0)
(2.34172 0 0)
(2.34164 0 0)
(2.34157 0 0)
(2.34149 0 0)
(2.34142 0 0)
(2.34134 0 0)
(2.34127 0 0)
(2.34119 0 0)
(2.34112 0 0)
(2.34104 0 0)
(2.34097 0 0)
(2.34089 0 0)
(2.34081 0 0)
(2.34074 0 0)
(2.34066 0 0)
(2.34059 0 0)
(2.34051 0 0)
(2.34044 0 0)
(2.34036 0 0)
(2.34029 0 0)
(2.34021 0 0)
(2.34014 0 0)
(2.34006 0 0)
(2.33998 0 0)
(2.33991 0 0)
(2.33983 0 0)
(2.33976 0 0)
(2.33968 0 0)
(2.33961 0 0)
(2.33953 0 0)
(2.33945 0 0)
(2.33938 0 0)
(2.3393 0 0)
(2.33923 0 0)
(2.33915 0 0)
(2.33908 0 0)
(2.339 0 0)
(2.33892 0 0)
(2.33885 0 0)
(2.33877 0 0)
(2.3387 0 0)
(2.33862 0 0)
(2.33854 0 0)
(2.33847 0 0)
(2.33839 0 0)
(2.33832 0 0)
(2.33824 0 0)
(2.33816 0 0)
(2.33809 0 0)
(2.33801 0 0)
(2.33794 0 0)
(2.33786 0 0)
(2.33778 0 0)
(2.33771 0 0)
(2.33763 0 0)
(2.33755 0 0)
(2.33748 0 0)
(2.3374 0 0)
(2.33733 0 0)
(2.33725 0 0)
(2.33717 0 0)
(2.3371 0 0)
(2.33702 0 0)
(2.33694 0 0)
(2.33687 0 0)
(2.33679 0 0)
(2.33671 0 0)
(2.33664 0 0)
(2.33656 0 0)
(2.33648 0 0)
(2.33641 0 0)
(2.33633 0 0)
(2.33625 0 0)
(2.33617 0 0)
(2.3361 0 0)
(2.33602 0 0)
(2.33594 0 0)
(2.33587 0 0)
(2.33579 0 0)
(2.33571 0 0)
(2.33564 0 0)
(2.33556 0 0)
(2.33548 0 0)
(2.3354 0 0)
(2.33533 0 0)
(2.33525 0 0)
(2.33517 0 0)
(2.33509 0 0)
(2.33502 0 0)
(2.33494 0 0)
(2.33486 0 0)
(2.33478 0 0)
(2.3347 0 0)
(2.33463 0 0)
(2.33455 0 0)
(2.33447 0 0)
(2.33439 0 0)
(2.33432 0 0)
(2.33424 0 0)
(2.33416 0 0)
(2.33408 0 0)
(2.334 0 0)
(2.33392 0 0)
(2.33385 0 0)
(2.33377 0 0)
(2.33369 0 0)
(2.33361 0 0)
(2.33353 0 0)
(2.33345 0 0)
(2.33337 0 0)
(2.3333 0 0)
(2.33322 0 0)
(2.33314 0 0)
(2.33306 0 0)
(2.33298 0 0)
(2.3329 0 0)
(2.33282 0 0)
(2.33274 0 0)
(2.33266 0 0)
(2.33258 0 0)
(2.33251 0 0)
(2.33243 0 0)
(2.33235 0 0)
(2.33227 0 0)
(2.33219 0 0)
(2.33211 0 0)
(2.33203 0 0)
(2.33195 0 0)
(2.33187 0 0)
(2.33179 0 0)
(2.33171 0 0)
(2.33163 0 0)
(2.33155 0 0)
(2.33147 0 0)
(2.33139 0 0)
(2.33131 0 0)
(2.33123 0 0)
(2.33115 0 0)
(2.33107 0 0)
(2.33099 0 0)
(2.33091 0 0)
(2.33083 0 0)
(2.33075 0 0)
(2.33067 0 0)
(2.33059 0 0)
(2.33051 0 0)
(2.33043 0 0)
(2.33035 0 0)
(2.33027 0 0)
(2.33019 0 0)
(2.33011 0 0)
(2.33003 0 0)
(2.32995 0 0)
(2.32987 0 0)
(2.32979 0 0)
(2.3297 0 0)
(2.32962 0 0)
(2.32955 0 0)
(2.32946 0 0)
(2.32938 0 0)
(2.3293 0 0)
(2.32922 0 0)
(2.32914 0 0)
(2.32906 0 0)
(2.32898 0 0)
(2.32889 0 0)
(2.32881 0 0)
(2.32873 0 0)
(2.32865 0 0)
(2.32857 0 0)
(2.32848 0 0)
(2.3284 0 0)
(2.32832 0 0)
(2.32824 0 0)
(2.32817 0 0)
(2.32821 0 0)
(2.3285 0 0)
(2.32969 0 0)
(2.33367 0 0)
(2.34549 0 0)
(2.3773 0 0)
(2.45558 0 0)
(2.6382 0 0)
(3.03131 0 0)
(3.81558 0 0)
(4.94074 0 0)
(6.18128 0 0)
(7.35288 0 0)
(8.39219 0 0)
(9.2857 0 0)
(10.0307 0 0)
(10.6472 0 0)
(11.1593 0 0)
(11.5735 0 0)
(11.9022 0 0)
(12.1721 0 0)
(12.4035 0 0)
(12.6063 0 0)
(12.7859 0 0)
(12.9461 0 0)
(13.0905 0 0)
(13.2215 0 0)
(13.3413 0 0)
(13.4514 0 0)
(13.5531 0 0)
(13.6475 0 0)
(13.7354 0 0)
(13.8175 0 0)
(13.8944 0 0)
(13.9667 0 0)
(14.0349 0 0)
(14.0992 0 0)
(14.1601 0 0)
(14.2179 0 0)
(14.2727 0 0)
(14.3248 0 0)
(14.3743 0 0)
(14.4202 0 0)
(14.4631 0 0)
(14.5047 0 0)
(14.5447 0 0)
(14.5834 0 0)
(14.6207 0 0)
(14.6567 0 0)
(14.6916 0 0)
(14.7254 0 0)
(14.7581 0 0)
(14.7898 0 0)
(14.8206 0 0)
(14.8504 0 0)
(14.8794 0 0)
(14.9076 0 0)
(14.935 0 0)
(14.9617 0 0)
(14.9877 0 0)
(15.013 0 0)
(15.0376 0 0)
(15.0617 0 0)
(15.0851 0 0)
(15.108 0 0)
(15.1303 0 0)
(15.1521 0 0)
(15.1734 0 0)
(15.1942 0 0)
(15.2146 0 0)
(15.2345 0 0)
(15.2539 0 0)
(15.273 0 0)
(15.2917 0 0)
(15.3099 0 0)
(15.3278 0 0)
(15.3453 0 0)
(15.3625 0 0)
(15.3794 0 0)
(15.3959 0 0)
(15.4121 0 0)
(15.428 0 0)
(15.4436 0 0)
(15.4589 0 0)
(15.4739 0 0)
(15.4886 0 0)
(15.5031 0 0)
(15.5173 0 0)
(15.5313 0 0)
(15.545 0 0)
(15.5585 0 0)
(15.5717 0 0)
(15.5847 0 0)
(15.5975 0 0)
(15.6101 0 0)
(15.6225 0 0)
(15.6347 0 0)
(15.6467 0 0)
(15.6585 0 0)
(15.6702 0 0)
(15.6816 0 0)
(15.693 0 0)
(15.7041 0 0)
(15.7152 0 0)
(15.7261 0 0)
(15.7369 0 0)
(15.7474 0 0)
(15.7578 0 0)
(15.7679 0 0)
(15.7781 0 0)
(15.788 0 0)
(15.7979 0 0)
(15.8077 0 0)
(15.8173 0 0)
(15.8269 0 0)
(15.8363 0 0)
(15.8457 0 0)
(15.855 0 0)
(15.8642 0 0)
(15.8734 0 0)
(15.8824 0 0)
(15.8914 0 0)
(15.9003 0 0)
(15.9092 0 0)
(15.9179 0 0)
(15.9266 0 0)
(15.9352 0 0)
(15.9437 0 0)
(15.9521 0 0)
(15.9604 0 0)
(15.9686 0 0)
(15.9767 0 0)
(15.9846 0 0)
(15.9925 0 0)
(16.0001 0 0)
(16.0076 0 0)
(16.0149 0 0)
(16.0221 0 0)
(16.029 0 0)
(16.0357 0 0)
(16.0422 0 0)
(16.0485 0 0)
(16.0545 0 0)
(16.0602 0 0)
(16.0657 0 0)
(16.0708 0 0)
(16.0757 0 0)
(16.0803 0 0)
(16.0846 0 0)
(16.0886 0 0)
(16.0923 0 0)
(16.0957 0 0)
(16.0987 0 0)
(16.1015 0 0)
(16.104 0 0)
(16.1062 0 0)
(16.1081 0 0)
(16.1098 0 0)
(16.1112 0 0)
(16.1124 0 0)
(16.1133 0 0)
(16.1141 0 0)
(16.1146 0 0)
(16.115 0 0)
(16.1152 0 0)
(16.1153 0 0)
(16.1153 0 0)
(16.1152 0 0)
(16.115 0 0)
(16.1147 0 0)
(16.1144 0 0)
(16.1141 0 0)
(16.1137 0 0)
(16.1134 0 0)
(16.113 0 0)
(16.1127 0 0)
(16.1124 0 0)
(16.1121 0 0)
(16.1119 0 0)
(16.1117 0 0)
(16.1116 0 0)
(16.1115 0 0)
(16.1115 0 0)
(16.1116 0 0)
(16.1117 0 0)
(16.1119 0 0)
(16.1121 0 0)
(16.1124 0 0)
(16.1127 0 0)
(16.1131 0 0)
(16.1135 0 0)
(16.114 0 0)
(16.1144 0 0)
(16.115 0 0)
(16.1155 0 0)
(16.116 0 0)
(16.1166 0 0)
(16.1171 0 0)
(16.1177 0 0)
(16.1183 0 0)
(16.1188 0 0)
(16.1194 0 0)
(16.1199 0 0)
(16.1204 0 0)
(16.1209 0 0)
(16.1214 0 0)
(16.1218 0 0)
(16.1222 0 0)
(16.1226 0 0)
(16.123 0 0)
(16.1233 0 0)
(16.1236 0 0)
(16.1239 0 0)
(16.1242 0 0)
(16.1244 0 0)
(16.1246 0 0)
(16.1248 0 0)
(16.1249 0 0)
(16.125 0 0)
(16.1251 0 0)
(16.1252 0 0)
(16.1252 0 0)
(16.1252 0 0)
(16.1253 0 0)
(16.1253 0 0)
(16.1253 0 0)
(16.1253 0 0)
(16.1253 0 0)
(16.1253 0 0)
(16.1255 0 0)
)
;

boundaryField
{
    boundary
    {
        type            empty;
    }
    inlet
    {
        type            fixedValue;
        value           uniform (2.34893 0 0);
    }
    outlet
    {
        type            zeroGradient;
    }
}


// ************************************************************************* //
