/*--------------------------------*- C++ -*----------------------------------*\
  =========                 |
  \\      /  F ield         | OpenFOAM: The Open Source CFD Toolbox
   \\    /   O peration     | Website:  https://openfoam.org
    \\  /    A nd           | Version:  7
     \\/     M anipulation  |
\*---------------------------------------------------------------------------*/
FoamFile
{
    version     2.0;
    format      ascii;
    class       volScalarField;
    location    "3e-05";
    object      H;
}
// * * * * * * * * * * * * * * * * * * * * * * * * * * * * * * * * * * * * * //

dimensions      [0 0 0 0 0 0 0];

internalField   nonuniform List<scalar> 
125
(
1.56743e-41
2.36667e-41
2.63034e-41
2.71853e-41
2.74734e-41
2.75624e-41
2.7586e-41
2.75886e-41
2.75842e-41
2.75772e-41
2.75687e-41
2.75593e-41
2.7549e-41
2.75379e-41
2.75259e-41
2.75132e-41
2.74996e-41
2.74853e-41
2.74701e-41
2.74543e-41
2.74377e-41
2.74203e-41
2.74023e-41
2.73836e-41
2.73642e-41
2.73441e-41
2.73235e-41
2.73022e-41
2.72803e-41
2.72578e-41
2.72348e-41
2.72113e-41
2.71873e-41
2.71627e-41
2.71378e-41
2.71123e-41
2.70865e-41
2.70603e-41
2.70337e-41
2.70068e-41
2.69795e-41
2.6952e-41
2.69242e-41
2.68961e-41
2.68679e-41
2.68394e-41
2.68108e-41
2.6782e-41
2.67531e-41
2.67241e-41
2.66951e-41
2.6666e-41
2.66368e-41
2.66077e-41
2.65786e-41
2.65496e-41
2.65206e-41
2.64917e-41
2.6463e-41
2.64344e-41
2.64059e-41
2.63777e-41
2.63496e-41
2.63218e-41
2.62942e-41
2.62669e-41
2.62398e-41
2.62131e-41
2.61867e-41
2.61606e-41
2.61349e-41
2.61095e-41
2.60846e-41
2.606e-41
2.60358e-41
2.60121e-41
2.59889e-41
2.5966e-41
2.59437e-41
2.59218e-41
2.59004e-41
2.58795e-41
2.58591e-41
2.58392e-41
2.58198e-41
2.5801e-41
2.57827e-41
2.57649e-41
2.57477e-41
2.5731e-41
2.57149e-41
2.56993e-41
2.56842e-41
2.56698e-41
2.56558e-41
2.56424e-41
2.56296e-41
2.56173e-41
2.56056e-41
2.55944e-41
2.55837e-41
2.55736e-41
2.5564e-41
2.55549e-41
2.55463e-41
2.55383e-41
2.55307e-41
2.55237e-41
2.55171e-41
2.5511e-41
2.55054e-41
2.55003e-41
2.54956e-41
2.54913e-41
2.54875e-41
2.54841e-41
2.5481e-41
2.54784e-41
2.54762e-41
2.54743e-41
2.54728e-41
2.54714e-41
2.54691e-41
2.54587e-41
2.53957e-41
)
;

boundaryField
{
    boundary
    {
        type            empty;
    }
    inlet
    {
        type            fixedValue;
        value           uniform 0;
    }
    outlet
    {
        type            zeroGradient;
    }
    procBoundary2to3
    {
        type            processor;
        value           uniform 2.53751e-41;
    }
}


// ************************************************************************* //
