/*--------------------------------*- C++ -*----------------------------------*\
  =========                 |
  \\      /  F ield         | OpenFOAM: The Open Source CFD Toolbox
   \\    /   O peration     | Website:  https://openfoam.org
    \\  /    A nd           | Version:  7
     \\/     M anipulation  |
\*---------------------------------------------------------------------------*/
FoamFile
{
    version     2.0;
    format      ascii;
    class       volScalarField;
    location    "3e-05";
    object      H2O;
}
// * * * * * * * * * * * * * * * * * * * * * * * * * * * * * * * * * * * * * //

dimensions      [0 0 0 0 0 0 0];

internalField   nonuniform List<scalar> 
125
(
5.89294e-48
1.36429e-47
1.9569e-47
2.33195e-47
2.538e-47
2.63897e-47
2.68394e-47
2.7024e-47
2.70949e-47
2.71209e-47
2.71303e-47
2.71341e-47
2.71361e-47
2.71376e-47
2.71389e-47
2.71404e-47
2.71419e-47
2.71435e-47
2.71452e-47
2.7147e-47
2.71489e-47
2.71508e-47
2.71529e-47
2.71551e-47
2.71574e-47
2.71597e-47
2.71622e-47
2.71648e-47
2.71675e-47
2.71702e-47
2.71731e-47
2.71761e-47
2.71791e-47
2.71823e-47
2.71856e-47
2.71889e-47
2.71924e-47
2.7196e-47
2.71996e-47
2.72034e-47
2.72073e-47
2.72113e-47
2.72154e-47
2.72196e-47
2.72239e-47
2.72283e-47
2.72328e-47
2.72374e-47
2.72421e-47
2.72469e-47
2.72519e-47
2.72569e-47
2.7262e-47
2.72673e-47
2.72727e-47
2.72782e-47
2.72837e-47
2.72894e-47
2.72952e-47
2.73012e-47
2.73072e-47
2.73133e-47
2.73196e-47
2.7326e-47
2.73325e-47
2.7339e-47
2.73458e-47
2.73526e-47
2.73595e-47
2.73666e-47
2.73738e-47
2.7381e-47
2.73884e-47
2.7396e-47
2.74036e-47
2.74114e-47
2.74192e-47
2.74272e-47
2.74354e-47
2.74436e-47
2.74519e-47
2.74604e-47
2.7469e-47
2.74777e-47
2.74865e-47
2.74955e-47
2.75046e-47
2.75138e-47
2.75231e-47
2.75325e-47
2.75421e-47
2.75518e-47
2.75616e-47
2.75715e-47
2.75815e-47
2.75917e-47
2.7602e-47
2.76124e-47
2.7623e-47
2.76336e-47
2.76444e-47
2.76553e-47
2.76663e-47
2.76775e-47
2.76887e-47
2.77001e-47
2.77116e-47
2.77233e-47
2.7735e-47
2.77469e-47
2.77589e-47
2.7771e-47
2.77832e-47
2.77955e-47
2.7808e-47
2.78205e-47
2.78332e-47
2.7846e-47
2.78589e-47
2.78716e-47
2.78835e-47
2.78898e-47
2.78672e-47
2.77062e-47
2.6954e-47
)
;

boundaryField
{
    boundary
    {
        type            empty;
    }
    inlet
    {
        type            fixedValue;
        value           uniform 0;
    }
    outlet
    {
        type            zeroGradient;
    }
    procBoundary2to3
    {
        type            processor;
        value           uniform 2.60777e-47;
    }
}


// ************************************************************************* //
