/*--------------------------------*- C++ -*----------------------------------*\
  =========                 |
  \\      /  F ield         | OpenFOAM: The Open Source CFD Toolbox
   \\    /   O peration     | Website:  https://openfoam.org
    \\  /    A nd           | Version:  7
     \\/     M anipulation  |
\*---------------------------------------------------------------------------*/
FoamFile
{
    version     2.0;
    format      ascii;
    class       volScalarField;
    location    "3e-05";
    object      H2O2;
}
// * * * * * * * * * * * * * * * * * * * * * * * * * * * * * * * * * * * * * //

dimensions      [0 0 0 0 0 0 0];

internalField   nonuniform List<scalar> 
125
(
1.16814e-52
2.77015e-52
4.02125e-52
4.81218e-52
5.24033e-52
5.44524e-52
5.53381e-52
5.56893e-52
5.58189e-52
5.58641e-52
5.58796e-52
5.58853e-52
5.58879e-52
5.58898e-52
5.58914e-52
5.58932e-52
5.5895e-52
5.58969e-52
5.5899e-52
5.59011e-52
5.59034e-52
5.59058e-52
5.59084e-52
5.5911e-52
5.59138e-52
5.59167e-52
5.59198e-52
5.5923e-52
5.59263e-52
5.59298e-52
5.59334e-52
5.59371e-52
5.5941e-52
5.5945e-52
5.59492e-52
5.59536e-52
5.5958e-52
5.59627e-52
5.59675e-52
5.59725e-52
5.59776e-52
5.59829e-52
5.59883e-52
5.5994e-52
5.59998e-52
5.60058e-52
5.6012e-52
5.60183e-52
5.60249e-52
5.60316e-52
5.60385e-52
5.60456e-52
5.6053e-52
5.60605e-52
5.60682e-52
5.60761e-52
5.60843e-52
5.60926e-52
5.61012e-52
5.611e-52
5.6119e-52
5.61283e-52
5.61377e-52
5.61475e-52
5.61574e-52
5.61676e-52
5.6178e-52
5.61887e-52
5.61996e-52
5.62108e-52
5.62222e-52
5.62339e-52
5.62458e-52
5.6258e-52
5.62705e-52
5.62832e-52
5.62962e-52
5.63095e-52
5.63231e-52
5.63369e-52
5.6351e-52
5.63654e-52
5.63801e-52
5.63951e-52
5.64104e-52
5.64259e-52
5.64418e-52
5.6458e-52
5.64744e-52
5.64912e-52
5.65082e-52
5.65256e-52
5.65433e-52
5.65612e-52
5.65795e-52
5.65981e-52
5.6617e-52
5.66363e-52
5.66558e-52
5.66756e-52
5.66958e-52
5.67163e-52
5.67371e-52
5.67582e-52
5.67796e-52
5.68013e-52
5.68234e-52
5.68457e-52
5.68684e-52
5.68914e-52
5.69147e-52
5.69383e-52
5.69622e-52
5.69864e-52
5.70109e-52
5.70357e-52
5.70608e-52
5.70863e-52
5.71119e-52
5.71378e-52
5.7163e-52
5.71823e-52
5.7162e-52
5.69029e-52
5.53989e-52
)
;

boundaryField
{
    boundary
    {
        type            empty;
    }
    inlet
    {
        type            fixedValue;
        value           uniform 0;
    }
    outlet
    {
        type            zeroGradient;
    }
    procBoundary2to3
    {
        type            processor;
        value           uniform 5.34453e-52;
    }
}


// ************************************************************************* //
