/*--------------------------------*- C++ -*----------------------------------*\
  =========                 |
  \\      /  F ield         | OpenFOAM: The Open Source CFD Toolbox
   \\    /   O peration     | Website:  https://openfoam.org
    \\  /    A nd           | Version:  7
     \\/     M anipulation  |
\*---------------------------------------------------------------------------*/
FoamFile
{
    version     2.0;
    format      ascii;
    class       volScalarField;
    location    "3e-05";
    object      HO2;
}
// * * * * * * * * * * * * * * * * * * * * * * * * * * * * * * * * * * * * * //

dimensions      [0 0 0 0 0 0 0];

internalField   nonuniform List<scalar> 
125
(
4.94951e-38
9.75323e-38
1.28711e-37
1.46326e-37
1.55183e-37
1.59209e-37
1.60885e-37
1.61531e-37
1.61763e-37
1.61842e-37
1.61868e-37
1.61877e-37
1.6188e-37
1.61881e-37
1.61883e-37
1.61884e-37
1.61885e-37
1.61887e-37
1.61888e-37
1.6189e-37
1.61891e-37
1.61893e-37
1.61895e-37
1.61897e-37
1.61899e-37
1.61901e-37
1.61904e-37
1.61906e-37
1.61909e-37
1.61912e-37
1.61915e-37
1.61918e-37
1.61921e-37
1.61925e-37
1.61928e-37
1.61932e-37
1.61936e-37
1.61941e-37
1.61945e-37
1.6195e-37
1.61955e-37
1.6196e-37
1.61966e-37
1.61972e-37
1.61978e-37
1.61984e-37
1.6199e-37
1.61997e-37
1.62005e-37
1.62012e-37
1.6202e-37
1.62028e-37
1.62037e-37
1.62045e-37
1.62055e-37
1.62064e-37
1.62074e-37
1.62084e-37
1.62095e-37
1.62106e-37
1.62118e-37
1.6213e-37
1.62142e-37
1.62155e-37
1.62169e-37
1.62182e-37
1.62197e-37
1.62211e-37
1.62227e-37
1.62242e-37
1.62258e-37
1.62275e-37
1.62292e-37
1.6231e-37
1.62329e-37
1.62347e-37
1.62367e-37
1.62387e-37
1.62407e-37
1.62428e-37
1.6245e-37
1.62472e-37
1.62495e-37
1.62519e-37
1.62543e-37
1.62568e-37
1.62593e-37
1.62619e-37
1.62646e-37
1.62673e-37
1.62701e-37
1.62729e-37
1.62758e-37
1.62788e-37
1.62819e-37
1.6285e-37
1.62882e-37
1.62914e-37
1.62947e-37
1.62981e-37
1.63016e-37
1.63051e-37
1.63087e-37
1.63123e-37
1.6316e-37
1.63198e-37
1.63237e-37
1.63276e-37
1.63316e-37
1.63356e-37
1.63398e-37
1.63439e-37
1.63482e-37
1.63525e-37
1.63569e-37
1.63613e-37
1.63659e-37
1.63704e-37
1.63751e-37
1.63797e-37
1.63843e-37
1.63878e-37
1.63843e-37
1.63389e-37
1.60797e-37
)
;

boundaryField
{
    boundary
    {
        type            empty;
    }
    inlet
    {
        type            fixedValue;
        value           uniform 0;
    }
    outlet
    {
        type            zeroGradient;
    }
    procBoundary2to3
    {
        type            processor;
        value           uniform 1.57495e-37;
    }
}


// ************************************************************************* //
