/*--------------------------------*- C++ -*----------------------------------*\
  =========                 |
  \\      /  F ield         | OpenFOAM: The Open Source CFD Toolbox
   \\    /   O peration     | Website:  https://openfoam.org
    \\  /    A nd           | Version:  7
     \\/     M anipulation  |
\*---------------------------------------------------------------------------*/
FoamFile
{
    version     2.0;
    format      ascii;
    class       volScalarField;
    location    "3e-05";
    object      O;
}
// * * * * * * * * * * * * * * * * * * * * * * * * * * * * * * * * * * * * * //

dimensions      [0 0 0 0 0 0 0];

internalField   nonuniform List<scalar> 
125
(
1.40341e-47
2.91222e-47
3.92844e-47
4.53122e-47
4.85318e-47
5.01017e-47
5.08078e-47
5.11033e-47
5.12192e-47
5.12623e-47
5.12776e-47
5.12829e-47
5.12849e-47
5.12857e-47
5.12863e-47
5.12867e-47
5.12872e-47
5.12877e-47
5.12882e-47
5.12887e-47
5.12893e-47
5.12899e-47
5.12906e-47
5.12913e-47
5.1292e-47
5.12928e-47
5.12937e-47
5.12946e-47
5.12956e-47
5.12966e-47
5.12977e-47
5.12988e-47
5.13e-47
5.13013e-47
5.13027e-47
5.13041e-47
5.13057e-47
5.13073e-47
5.1309e-47
5.13107e-47
5.13126e-47
5.13146e-47
5.13167e-47
5.13189e-47
5.13212e-47
5.13236e-47
5.13261e-47
5.13287e-47
5.13315e-47
5.13344e-47
5.13374e-47
5.13406e-47
5.13439e-47
5.13473e-47
5.13509e-47
5.13546e-47
5.13585e-47
5.13626e-47
5.13668e-47
5.13711e-47
5.13757e-47
5.13804e-47
5.13853e-47
5.13904e-47
5.13956e-47
5.1401e-47
5.14067e-47
5.14125e-47
5.14185e-47
5.14247e-47
5.14312e-47
5.14378e-47
5.14446e-47
5.14517e-47
5.1459e-47
5.14665e-47
5.14742e-47
5.14822e-47
5.14903e-47
5.14988e-47
5.15074e-47
5.15163e-47
5.15254e-47
5.15348e-47
5.15444e-47
5.15543e-47
5.15644e-47
5.15748e-47
5.15854e-47
5.15963e-47
5.16074e-47
5.16189e-47
5.16305e-47
5.16425e-47
5.16547e-47
5.16671e-47
5.16799e-47
5.16929e-47
5.17061e-47
5.17197e-47
5.17335e-47
5.17476e-47
5.1762e-47
5.17766e-47
5.17915e-47
5.18067e-47
5.18221e-47
5.18379e-47
5.18539e-47
5.18701e-47
5.18867e-47
5.19035e-47
5.19205e-47
5.19378e-47
5.19554e-47
5.19733e-47
5.19914e-47
5.20097e-47
5.20282e-47
5.20466e-47
5.20635e-47
5.2073e-47
5.20491e-47
5.18735e-47
5.10218e-47
)
;

boundaryField
{
    boundary
    {
        type            empty;
    }
    inlet
    {
        type            fixedValue;
        value           uniform 0;
    }
    outlet
    {
        type            zeroGradient;
    }
    procBoundary2to3
    {
        type            processor;
        value           uniform 5.0244e-47;
    }
}


// ************************************************************************* //
