/*--------------------------------*- C++ -*----------------------------------*\
  =========                 |
  \\      /  F ield         | OpenFOAM: The Open Source CFD Toolbox
   \\    /   O peration     | Website:  https://openfoam.org
    \\  /    A nd           | Version:  7
     \\/     M anipulation  |
\*---------------------------------------------------------------------------*/
FoamFile
{
    version     2.0;
    format      ascii;
    class       volScalarField;
    location    "3e-05";
    object      OH;
}
// * * * * * * * * * * * * * * * * * * * * * * * * * * * * * * * * * * * * * //

dimensions      [0 0 0 0 0 0 0];

internalField   nonuniform List<scalar> 
125
(
9.71405e-48
1.85655e-47
2.38049e-47
2.66045e-47
2.79797e-47
2.86068e-47
2.8874e-47
2.89808e-47
2.90209e-47
2.9035e-47
2.90394e-47
2.90404e-47
2.90402e-47
2.90396e-47
2.90388e-47
2.90379e-47
2.9037e-47
2.9036e-47
2.9035e-47
2.90338e-47
2.90327e-47
2.90315e-47
2.90302e-47
2.90289e-47
2.90276e-47
2.90262e-47
2.90248e-47
2.90234e-47
2.90219e-47
2.90204e-47
2.90188e-47
2.90173e-47
2.90157e-47
2.90141e-47
2.90125e-47
2.90108e-47
2.90092e-47
2.90076e-47
2.90059e-47
2.90043e-47
2.90026e-47
2.9001e-47
2.89993e-47
2.89977e-47
2.89961e-47
2.89946e-47
2.8993e-47
2.89915e-47
2.899e-47
2.89885e-47
2.89871e-47
2.89857e-47
2.89844e-47
2.89831e-47
2.89819e-47
2.89807e-47
2.89796e-47
2.89786e-47
2.89776e-47
2.89767e-47
2.89758e-47
2.89751e-47
2.89744e-47
2.89738e-47
2.89733e-47
2.89729e-47
2.89726e-47
2.89724e-47
2.89722e-47
2.89722e-47
2.89723e-47
2.89725e-47
2.89729e-47
2.89733e-47
2.89739e-47
2.89746e-47
2.89754e-47
2.89763e-47
2.89774e-47
2.89786e-47
2.898e-47
2.89815e-47
2.89831e-47
2.89849e-47
2.89868e-47
2.89889e-47
2.89912e-47
2.89936e-47
2.89961e-47
2.89988e-47
2.90017e-47
2.90047e-47
2.90079e-47
2.90113e-47
2.90148e-47
2.90185e-47
2.90224e-47
2.90265e-47
2.90307e-47
2.90351e-47
2.90396e-47
2.90444e-47
2.90493e-47
2.90544e-47
2.90597e-47
2.90651e-47
2.90707e-47
2.90765e-47
2.90825e-47
2.90887e-47
2.9095e-47
2.91015e-47
2.91082e-47
2.9115e-47
2.9122e-47
2.91292e-47
2.91366e-47
2.91441e-47
2.91517e-47
2.91594e-47
2.91667e-47
2.91716e-47
2.9165e-47
2.91047e-47
2.88097e-47
)
;

boundaryField
{
    boundary
    {
        type            empty;
    }
    inlet
    {
        type            fixedValue;
        value           uniform 0;
    }
    outlet
    {
        type            zeroGradient;
    }
    procBoundary2to3
    {
        type            processor;
        value           uniform 2.85445e-47;
    }
}


// ************************************************************************* //
