/*--------------------------------*- C++ -*----------------------------------*\
  =========                 |
  \\      /  F ield         | OpenFOAM: The Open Source CFD Toolbox
   \\    /   O peration     | Website:  https://openfoam.org
    \\  /    A nd           | Version:  7
     \\/     M anipulation  |
\*---------------------------------------------------------------------------*/
FoamFile
{
    version     2.0;
    format      ascii;
    class       volScalarField;
    location    "3e-05";
    object      p;
}
// * * * * * * * * * * * * * * * * * * * * * * * * * * * * * * * * * * * * * //

dimensions      [1 -1 -2 0 0 0 0];

internalField   nonuniform List<scalar> 
125
(
102251
102251
102251
102250
102250
102250
102250
102249
102249
102249
102248
102248
102247
102246
102246
102245
102244
102244
102243
102242
102241
102240
102240
102239
102238
102237
102236
102234
102233
102232
102231
102230
102229
102228
102226
102225
102224
102222
102221
102220
102218
102217
102216
102214
102213
102212
102210
102209
102207
102206
102204
102203
102201
102200
102199
102197
102196
102194
102193
102191
102190
102188
102187
102185
102184
102182
102181
102179
102178
102176
102175
102173
102172
102170
102169
102167
102166
102164
102163
102162
102160
102159
102157
102156
102154
102153
102151
102150
102148
102147
102145
102144
102142
102141
102139
102138
102136
102135
102133
102132
102131
102129
102128
102126
102125
102123
102121
102120
102118
102117
102115
102114
102112
102111
102109
102108
102106
102105
102103
102102
102100
102099
102097
102096
102094
)
;

boundaryField
{
    boundary
    {
        type            empty;
    }
    inlet
    {
        type            zeroGradient;
    }
    outlet
    {
        type            waveTransmissive;
        gamma           1.4;
        value           nonuniform 0();
    }
    procBoundary2to3
    {
        type            processor;
        value           uniform 102093;
    }
}


// ************************************************************************* //
