/*--------------------------------*- C++ -*----------------------------------*\
  =========                 |
  \\      /  F ield         | OpenFOAM: The Open Source CFD Toolbox
   \\    /   O peration     | Website:  https://openfoam.org
    \\  /    A nd           | Version:  7
     \\/     M anipulation  |
\*---------------------------------------------------------------------------*/
FoamFile
{
    version     2.0;
    format      ascii;
    class       surfaceScalarField;
    location    "3e-05";
    object      phi;
}
// * * * * * * * * * * * * * * * * * * * * * * * * * * * * * * * * * * * * * //

dimensions      [1 0 -1 0 0 0 0];

internalField   nonuniform List<scalar> 
124
(
6.86993e-06
6.87149e-06
6.87724e-06
6.88537e-06
6.89446e-06
6.90382e-06
6.91313e-06
6.92228e-06
6.9312e-06
6.93987e-06
6.94825e-06
6.95631e-06
6.96402e-06
6.97135e-06
6.97829e-06
6.9848e-06
6.99085e-06
6.99643e-06
7.0015e-06
7.00604e-06
7.01003e-06
7.01345e-06
7.01628e-06
7.01849e-06
7.02006e-06
7.02098e-06
7.02122e-06
7.02077e-06
7.01961e-06
7.01772e-06
7.01509e-06
7.01171e-06
7.00755e-06
7.00261e-06
6.99687e-06
6.99033e-06
6.98297e-06
6.97479e-06
6.96578e-06
6.95592e-06
6.94522e-06
6.93367e-06
6.92126e-06
6.90799e-06
6.89387e-06
6.87888e-06
6.86303e-06
6.84632e-06
6.82875e-06
6.81033e-06
6.79105e-06
6.77093e-06
6.74996e-06
6.72816e-06
6.70553e-06
6.68208e-06
6.65782e-06
6.63276e-06
6.60691e-06
6.58028e-06
6.55288e-06
6.52473e-06
6.49584e-06
6.46622e-06
6.4359e-06
6.40488e-06
6.37318e-06
6.34082e-06
6.30781e-06
6.27418e-06
6.23994e-06
6.20511e-06
6.16972e-06
6.13377e-06
6.09729e-06
6.0603e-06
6.02282e-06
5.98487e-06
5.94647e-06
5.90765e-06
5.86842e-06
5.8288e-06
5.78882e-06
5.7485e-06
5.70785e-06
5.66691e-06
5.62569e-06
5.58421e-06
5.54249e-06
5.50056e-06
5.45843e-06
5.41613e-06
5.37367e-06
5.33108e-06
5.28837e-06
5.24556e-06
5.20268e-06
5.15974e-06
5.11675e-06
5.07375e-06
5.03073e-06
4.98773e-06
4.94476e-06
4.90183e-06
4.85895e-06
4.81615e-06
4.77344e-06
4.73083e-06
4.68833e-06
4.64597e-06
4.60374e-06
4.56167e-06
4.51976e-06
4.47802e-06
4.43647e-06
4.39511e-06
4.35396e-06
4.31301e-06
4.27229e-06
4.2318e-06
4.19155e-06
4.15154e-06
4.11177e-06
4.07226e-06
)
;

boundaryField
{
    boundary
    {
        type            empty;
        value           nonuniform 0();
    }
    inlet
    {
        type            calculated;
        value           uniform -6.87113e-06;
    }
    outlet
    {
        type            calculated;
        value           nonuniform 0();
    }
    procBoundary2to3
    {
        type            processor;
        value           uniform 4.033e-06;
    }
}


// ************************************************************************* //
