/*--------------------------------*- C++ -*----------------------------------*\
  =========                 |
  \\      /  F ield         | OpenFOAM: The Open Source CFD Toolbox
   \\    /   O peration     | Website:  https://openfoam.org
    \\  /    A nd           | Version:  7
     \\/     M anipulation  |
\*---------------------------------------------------------------------------*/
FoamFile
{
    version     2.0;
    format      ascii;
    class       volScalarField;
    location    "3e-05";
    object      Qdot;
}
// * * * * * * * * * * * * * * * * * * * * * * * * * * * * * * * * * * * * * //

dimensions      [1 -1 -3 0 0 0 0];

internalField   nonuniform List<scalar> 
125
(
-2.58049e-27
-2.24009e-27
-2.17879e-27
-2.16793e-27
-2.16544e-27
-2.16437e-27
-2.1636e-27
-2.16287e-27
-2.1621e-27
-2.16127e-27
-2.16036e-27
-2.15937e-27
-2.1583e-27
-2.15715e-27
-2.15592e-27
-2.15461e-27
-2.15323e-27
-2.15177e-27
-2.15024e-27
-2.14863e-27
-2.14697e-27
-2.14523e-27
-2.14343e-27
-2.14157e-27
-2.13966e-27
-2.13768e-27
-2.13566e-27
-2.13358e-27
-2.13145e-27
-2.12928e-27
-2.12707e-27
-2.12481e-27
-2.12252e-27
-2.12019e-27
-2.11783e-27
-2.11545e-27
-2.11304e-27
-2.1106e-27
-2.10814e-27
-2.10567e-27
-2.10318e-27
-2.10068e-27
-2.09818e-27
-2.09566e-27
-2.09314e-27
-2.09063e-27
-2.08811e-27
-2.0856e-27
-2.0831e-27
-2.0806e-27
-2.07812e-27
-2.07565e-27
-2.0732e-27
-2.07077e-27
-2.06836e-27
-2.06598e-27
-2.06362e-27
-2.06129e-27
-2.05899e-27
-2.05672e-27
-2.05448e-27
-2.05228e-27
-2.05012e-27
-2.04799e-27
-2.0459e-27
-2.04385e-27
-2.04185e-27
-2.03989e-27
-2.03797e-27
-2.0361e-27
-2.03427e-27
-2.03249e-27
-2.03075e-27
-2.02907e-27
-2.02743e-27
-2.02584e-27
-2.0243e-27
-2.0228e-27
-2.02136e-27
-2.01996e-27
-2.01861e-27
-2.01731e-27
-2.01606e-27
-2.01486e-27
-2.0137e-27
-2.01259e-27
-2.01152e-27
-2.0105e-27
-2.00952e-27
-2.00859e-27
-2.0077e-27
-2.00685e-27
-2.00604e-27
-2.00528e-27
-2.00455e-27
-2.00385e-27
-2.0032e-27
-2.00257e-27
-2.00198e-27
-2.00143e-27
-2.0009e-27
-2.0004e-27
-1.99994e-27
-1.99949e-27
-1.99908e-27
-1.99869e-27
-1.99832e-27
-1.99797e-27
-1.99764e-27
-1.99733e-27
-1.99703e-27
-1.99675e-27
-1.99649e-27
-1.99624e-27
-1.996e-27
-1.99577e-27
-1.99555e-27
-1.99533e-27
-1.99513e-27
-1.99493e-27
-1.99473e-27
-1.99455e-27
-1.99444e-27
-1.99475e-27
-1.99789e-27
)
;

boundaryField
{
    boundary
    {
        type            empty;
    }
    inlet
    {
        type            calculated;
        value           uniform 0;
    }
    outlet
    {
        type            calculated;
        value           nonuniform 0();
    }
    procBoundary2to3
    {
        type            processor;
        value           uniform 0;
    }
}


// ************************************************************************* //
