/*--------------------------------*- C++ -*----------------------------------*\
  =========                 |
  \\      /  F ield         | OpenFOAM: The Open Source CFD Toolbox
   \\    /   O peration     | Website:  https://openfoam.org
    \\  /    A nd           | Version:  7
     \\/     M anipulation  |
\*---------------------------------------------------------------------------*/
FoamFile
{
    version     2.0;
    format      ascii;
    class       volScalarField;
    location    "3e-05";
    object      T;
}
// * * * * * * * * * * * * * * * * * * * * * * * * * * * * * * * * * * * * * //

dimensions      [0 0 0 1 0 0 0];

internalField   nonuniform List<scalar> 
125
(
300.299
300.579
300.712
300.765
300.783
300.789
300.79
300.79
300.79
300.789
300.788
300.787
300.786
300.785
300.784
300.783
300.781
300.78
300.779
300.777
300.776
300.774
300.772
300.771
300.769
300.767
300.765
300.763
300.761
300.759
300.757
300.755
300.752
300.75
300.748
300.745
300.743
300.741
300.738
300.736
300.733
300.731
300.728
300.726
300.723
300.721
300.718
300.715
300.713
300.71
300.708
300.705
300.703
300.7
300.697
300.695
300.692
300.69
300.687
300.685
300.682
300.68
300.677
300.675
300.673
300.67
300.668
300.665
300.663
300.661
300.659
300.656
300.654
300.652
300.65
300.648
300.646
300.644
300.642
300.64
300.638
300.636
300.635
300.633
300.631
300.629
300.628
300.626
300.625
300.623
300.621
300.62
300.619
300.617
300.616
300.614
300.613
300.612
300.611
300.609
300.608
300.607
300.606
300.605
300.604
300.603
300.602
300.601
300.6
300.599
300.598
300.597
300.597
300.596
300.595
300.594
300.593
300.593
300.592
300.591
300.591
300.59
300.589
300.589
300.588
)
;

boundaryField
{
    boundary
    {
        type            empty;
    }
    inlet
    {
        type            fixedValue;
        value           uniform 300;
    }
    outlet
    {
        type            zeroGradient;
    }
    procBoundary2to3
    {
        type            processor;
        value           uniform 300.587;
    }
}


// ************************************************************************* //
