/*--------------------------------*- C++ -*----------------------------------*\
  =========                 |
  \\      /  F ield         | OpenFOAM: The Open Source CFD Toolbox
   \\    /   O peration     | Website:  https://openfoam.org
    \\  /    A nd           | Version:  7
     \\/     M anipulation  |
\*---------------------------------------------------------------------------*/
FoamFile
{
    version     2.0;
    format      ascii;
    class       volVectorField;
    location    "3e-05";
    object      U;
}
// * * * * * * * * * * * * * * * * * * * * * * * * * * * * * * * * * * * * * //

dimensions      [0 1 -1 0 0 0 0];

internalField   nonuniform List<vector> 
125
(
(2.35295 0 0)
(2.35422 0 0)
(2.35527 0 0)
(2.35806 0 0)
(2.3615 0 0)
(2.36472 0 0)
(2.36793 0 0)
(2.37111 0 0)
(2.37421 0 0)
(2.37723 0 0)
(2.38016 0 0)
(2.38298 0 0)
(2.38568 0 0)
(2.38827 0 0)
(2.39072 0 0)
(2.39304 0 0)
(2.39513 0 0)
(2.39723 0 0)
(2.39903 0 0)
(2.4007 0 0)
(2.40212 0 0)
(2.40342 0 0)
(2.4045 0 0)
(2.40537 0 0)
(2.40603 0 0)
(2.40646 0 0)
(2.40667 0 0)
(2.40665 0 0)
(2.40638 0 0)
(2.40587 0 0)
(2.4051 0 0)
(2.40408 0 0)
(2.4028 0 0)
(2.40125 0 0)
(2.39943 0 0)
(2.39734 0 0)
(2.39497 0 0)
(2.39231 0 0)
(2.38938 0 0)
(2.38615 0 0)
(2.38264 0 0)
(2.37884 0 0)
(2.37474 0 0)
(2.37036 0 0)
(2.36567 0 0)
(2.3607 0 0)
(2.35542 0 0)
(2.34985 0 0)
(2.34399 0 0)
(2.33784 0 0)
(2.33139 0 0)
(2.32465 0 0)
(2.31762 0 0)
(2.3103 0 0)
(2.3027 0 0)
(2.29481 0 0)
(2.28665 0 0)
(2.2782 0 0)
(2.26949 0 0)
(2.26051 0 0)
(2.25126 0 0)
(2.24175 0 0)
(2.23199 0 0)
(2.22197 0 0)
(2.21171 0 0)
(2.20121 0 0)
(2.19047 0 0)
(2.17951 0 0)
(2.16832 0 0)
(2.15691 0 0)
(2.14529 0 0)
(2.13346 0 0)
(2.12144 0 0)
(2.10922 0 0)
(2.09682 0 0)
(2.08424 0 0)
(2.07149 0 0)
(2.05858 0 0)
(2.04551 0 0)
(2.03228 0 0)
(2.01892 0 0)
(2.00542 0 0)
(1.99179 0 0)
(1.97804 0 0)
(1.96418 0 0)
(1.95019 0 0)
(1.93614 0 0)
(1.92194 0 0)
(1.90774 0 0)
(1.8934 0 0)
(1.87899 0 0)
(1.86454 0 0)
(1.85003 0 0)
(1.83547 0 0)
(1.82082 0 0)
(1.80622 0 0)
(1.79155 0 0)
(1.77684 0 0)
(1.76212 0 0)
(1.7474 0 0)
(1.73267 0 0)
(1.71794 0 0)
(1.70321 0 0)
(1.6885 0 0)
(1.6738 0 0)
(1.65916 0 0)
(1.64447 0 0)
(1.62984 0 0)
(1.61535 0 0)
(1.60076 0 0)
(1.58625 0 0)
(1.57184 0 0)
(1.55746 0 0)
(1.54313 0 0)
(1.52886 0 0)
(1.51466 0 0)
(1.50053 0 0)
(1.48647 0 0)
(1.47247 0 0)
(1.45859 0 0)
(1.44472 0 0)
(1.43099 0 0)
(1.41735 0 0)
(1.40374 0 0)
(1.39023 0 0)
)
;

boundaryField
{
    boundary
    {
        type            empty;
    }
    inlet
    {
        type            fixedValue;
        value           uniform (2.34893 0 0);
    }
    outlet
    {
        type            zeroGradient;
    }
    procBoundary2to3
    {
        type            processor;
        value           uniform (1.37688 0 0);
    }
}


// ************************************************************************* //
