/*--------------------------------*- C++ -*----------------------------------*\
  =========                 |
  \\      /  F ield         | OpenFOAM: The Open Source CFD Toolbox
   \\    /   O peration     | Website:  https://openfoam.org
    \\  /    A nd           | Version:  7
     \\/     M anipulation  |
\*---------------------------------------------------------------------------*/
FoamFile
{
    version     2.0;
    format      ascii;
    class       volScalarField;
    location    "0.00074";
    object      H;
}
// * * * * * * * * * * * * * * * * * * * * * * * * * * * * * * * * * * * * * //

dimensions      [0 0 0 0 0 0 0];

internalField   nonuniform List<scalar> 
124
(
0.000338421
0.000335136
0.000331908
0.000328733
0.000325612
0.000322543
0.000319524
0.000316555
0.000313634
0.000310759
0.000307931
0.000305147
0.000302407
0.00029971
0.000297054
0.00029444
0.000291865
0.00028933
0.000286833
0.000284373
0.00028195
0.000279563
0.000277211
0.000274893
0.000272609
0.000270358
0.000268139
0.000265952
0.000263796
0.000261671
0.000259575
0.000257509
0.000255471
0.000253462
0.00025148
0.000249525
0.000247597
0.000245696
0.000243819
0.000241968
0.000240142
0.00023834
0.000236562
0.000234808
0.000233077
0.000231368
0.000229682
0.000228018
0.000226375
0.000224753
0.000223153
0.000221573
0.000220014
0.000218474
0.000216954
0.000215454
0.000213972
0.00021251
0.000211066
0.000209641
0.000208233
0.000206844
0.000205472
0.000204117
0.00020278
0.00020146
0.000200157
0.00019887
0.0001976
0.000196346
0.000195108
0.000193887
0.000192681
0.000191491
0.000190316
0.000189157
0.000188014
0.000186886
0.000185773
0.000184674
0.000183591
0.000182523
0.00018147
0.000180431
0.000179407
0.000178397
0.000177402
0.000176421
0.000175455
0.000174502
0.000173564
0.00017264
0.000171731
0.000170835
0.000169953
0.000169084
0.00016823
0.000167388
0.000166561
0.000165746
0.000164944
0.000164154
0.000163371
0.000162595
0.000161722
0.000160959
0.000160218
0.000159492
0.000158779
0.000158078
0.000157388
0.000156709
0.000156041
0.000155383
0.000154736
0.000154101
0.000153479
0.000152873
0.000152286
0.000151727
0.000151207
0.000150748
0.000150384
0.000150168
)
;

boundaryField
{
    boundary
    {
        type            empty;
    }
    inlet
    {
        type            fixedValue;
        value           nonuniform 0();
    }
    outlet
    {
        type            zeroGradient;
    }
    procBoundary0to1
    {
        type            processor;
        value           uniform 0.000341751;
    }
}


// ************************************************************************* //
