/*--------------------------------*- C++ -*----------------------------------*\
  =========                 |
  \\      /  F ield         | OpenFOAM: The Open Source CFD Toolbox
   \\    /   O peration     | Website:  https://openfoam.org
    \\  /    A nd           | Version:  7
     \\/     M anipulation  |
\*---------------------------------------------------------------------------*/
FoamFile
{
    version     2.0;
    format      ascii;
    class       volScalarField;
    location    "0.00074";
    object      HO2;
}
// * * * * * * * * * * * * * * * * * * * * * * * * * * * * * * * * * * * * * //

dimensions      [0 0 0 0 0 0 0];

internalField   nonuniform List<scalar> 
124
(
2.79484e-06
2.77892e-06
2.76332e-06
2.74805e-06
2.7331e-06
2.71844e-06
2.70409e-06
2.69002e-06
2.67623e-06
2.66271e-06
2.64946e-06
2.63647e-06
2.62373e-06
2.61124e-06
2.59898e-06
2.58696e-06
2.57516e-06
2.56359e-06
2.55224e-06
2.54109e-06
2.53015e-06
2.51942e-06
2.50888e-06
2.49853e-06
2.48837e-06
2.4784e-06
2.4686e-06
2.45898e-06
2.44954e-06
2.44026e-06
2.43114e-06
2.42219e-06
2.4134e-06
2.40476e-06
2.39626e-06
2.38792e-06
2.37972e-06
2.37166e-06
2.36374e-06
2.35595e-06
2.3483e-06
2.34077e-06
2.33336e-06
2.32608e-06
2.31891e-06
2.31187e-06
2.30493e-06
2.2981e-06
2.29138e-06
2.28476e-06
2.27824e-06
2.27182e-06
2.2655e-06
2.25926e-06
2.25311e-06
2.24705e-06
2.24107e-06
2.23518e-06
2.22936e-06
2.22361e-06
2.21794e-06
2.21233e-06
2.20679e-06
2.20132e-06
2.19591e-06
2.19055e-06
2.18525e-06
2.18001e-06
2.17482e-06
2.16968e-06
2.16458e-06
2.15953e-06
2.15451e-06
2.14954e-06
2.1446e-06
2.13969e-06
2.13481e-06
2.12996e-06
2.12513e-06
2.12032e-06
2.11552e-06
2.11074e-06
2.10596e-06
2.10119e-06
2.09641e-06
2.09163e-06
2.08683e-06
2.08202e-06
2.07718e-06
2.0723e-06
2.0674e-06
2.06244e-06
2.05744e-06
2.05237e-06
2.04723e-06
2.04202e-06
2.03672e-06
2.03133e-06
2.02583e-06
2.02022e-06
2.0145e-06
2.00866e-06
2.00275e-06
1.99677e-06
1.98727e-06
1.98056e-06
1.97368e-06
1.96658e-06
1.95925e-06
1.95167e-06
1.94383e-06
1.93572e-06
1.92734e-06
1.91868e-06
1.90973e-06
1.9005e-06
1.891e-06
1.88123e-06
1.87126e-06
1.86115e-06
1.85106e-06
1.84133e-06
1.83262e-06
1.82644e-06
)
;

boundaryField
{
    boundary
    {
        type            empty;
    }
    inlet
    {
        type            fixedValue;
        value           nonuniform 0();
    }
    outlet
    {
        type            zeroGradient;
    }
    procBoundary0to1
    {
        type            processor;
        value           uniform 2.81105e-06;
    }
}


// ************************************************************************* //
