/*--------------------------------*- C++ -*----------------------------------*\
  =========                 |
  \\      /  F ield         | OpenFOAM: The Open Source CFD Toolbox
   \\    /   O peration     | Website:  https://openfoam.org
    \\  /    A nd           | Version:  7
     \\/     M anipulation  |
\*---------------------------------------------------------------------------*/
FoamFile
{
    version     2.0;
    format      ascii;
    class       volScalarField;
    location    "5e-05";
    object      H;
}
// * * * * * * * * * * * * * * * * * * * * * * * * * * * * * * * * * * * * * //

dimensions      [0 0 0 0 0 0 0];

internalField   nonuniform List<scalar> 
500
(
1.62761e-41
2.35249e-41
2.64459e-41
2.8133e-41
2.92085e-41
2.986e-41
3.02205e-41
3.04027e-41
3.04875e-41
3.0524e-41
3.05387e-41
3.05439e-41
3.05455e-41
3.05455e-41
3.0545e-41
3.05443e-41
3.05435e-41
3.05426e-41
3.05416e-41
3.05405e-41
3.05394e-41
3.05383e-41
3.05371e-41
3.05358e-41
3.05345e-41
3.05331e-41
3.05316e-41
3.05301e-41
3.05286e-41
3.05269e-41
3.05253e-41
3.05235e-41
3.05218e-41
3.05199e-41
3.0518e-41
3.05161e-41
3.05141e-41
3.0512e-41
3.05099e-41
3.05078e-41
3.05056e-41
3.05033e-41
3.0501e-41
3.04987e-41
3.04963e-41
3.04938e-41
3.04913e-41
3.04888e-41
3.04862e-41
3.04836e-41
3.04809e-41
3.04782e-41
3.04755e-41
3.04727e-41
3.04699e-41
3.0467e-41
3.04641e-41
3.04612e-41
3.04583e-41
3.04553e-41
3.04523e-41
3.04493e-41
3.04462e-41
3.04431e-41
3.044e-41
3.04369e-41
3.04338e-41
3.04307e-41
3.04275e-41
3.04244e-41
3.04212e-41
3.0418e-41
3.04149e-41
3.04117e-41
3.04085e-41
3.04053e-41
3.04022e-41
3.0399e-41
3.03959e-41
3.03927e-41
3.03896e-41
3.03865e-41
3.03835e-41
3.03804e-41
3.03774e-41
3.03744e-41
3.03714e-41
3.03685e-41
3.03656e-41
3.03627e-41
3.03599e-41
3.03571e-41
3.03543e-41
3.03516e-41
3.0349e-41
3.03464e-41
3.03439e-41
3.03414e-41
3.0339e-41
3.03366e-41
3.03343e-41
3.0332e-41
3.03298e-41
3.03277e-41
3.03257e-41
3.03237e-41
3.03218e-41
3.032e-41
3.03182e-41
3.03165e-41
3.03149e-41
3.03133e-41
3.03119e-41
3.03105e-41
3.03092e-41
3.03079e-41
3.03068e-41
3.03057e-41
3.03047e-41
3.03037e-41
3.03028e-41
3.03019e-41
3.03003e-41
3.02949e-41
3.02671e-41
3.02535e-41
3.02849e-41
3.02933e-41
3.02962e-41
3.02973e-41
3.02977e-41
3.02979e-41
3.02979e-41
3.02979e-41
3.02979e-41
3.0298e-41
3.02981e-41
3.02982e-41
3.02983e-41
3.02984e-41
3.02986e-41
3.02987e-41
3.02989e-41
3.0299e-41
3.02992e-41
3.02993e-41
3.02993e-41
3.02993e-41
3.02993e-41
3.02992e-41
3.02991e-41
3.02988e-41
3.02985e-41
3.02981e-41
3.02976e-41
3.02969e-41
3.02961e-41
3.02952e-41
3.02941e-41
3.02929e-41
3.02915e-41
3.02898e-41
3.0288e-41
3.0286e-41
3.02837e-41
3.02811e-41
3.02783e-41
3.02753e-41
3.02719e-41
3.02683e-41
3.02643e-41
3.02599e-41
3.02553e-41
3.02502e-41
3.02448e-41
3.0239e-41
3.02327e-41
3.02261e-41
3.0219e-41
3.02114e-41
3.02034e-41
3.01948e-41
3.01858e-41
3.01762e-41
3.01662e-41
3.01555e-41
3.01443e-41
3.01326e-41
3.01202e-41
3.01073e-41
3.00937e-41
3.00795e-41
3.00647e-41
3.00493e-41
3.00332e-41
3.00164e-41
2.9999e-41
2.99809e-41
2.99622e-41
2.99427e-41
2.99226e-41
2.99018e-41
2.98803e-41
2.98581e-41
2.98352e-41
2.98116e-41
2.97874e-41
2.97625e-41
2.97369e-41
2.97106e-41
2.96837e-41
2.96561e-41
2.96279e-41
2.9599e-41
2.95695e-41
2.95395e-41
2.95088e-41
2.94776e-41
2.94458e-41
2.94134e-41
2.93805e-41
2.93472e-41
2.93133e-41
2.92789e-41
2.92441e-41
2.92089e-41
2.91733e-41
2.91372e-41
2.91009e-41
2.90647e-41
2.9031e-41
2.90138e-41
2.90963e-41
2.97699e-41
3.39434e-41
5.88286e-41
2.06278e-40
1.07906e-39
6.24546e-39
3.68431e-38
2.18244e-37
1.29563e-36
7.71302e-36
4.61008e-35
2.77074e-34
1.67706e-33
1.02334e-32
6.29466e-32
3.89496e-31
2.4129e-30
1.48503e-29
6.53725e-29
3.74659e-28
2.19846e-27
1.2909e-26
7.57957e-26
4.44964e-25
2.6113e-24
1.53144e-23
8.97073e-23
5.24423e-22
3.05577e-21
1.77156e-20
1.01923e-19
5.79902e-19
3.24791e-18
1.78039e-17
9.48911e-17
4.88887e-16
2.43531e-15
1.1968e-14
6.18116e-14
3.6803e-13
2.5958e-12
2.09105e-11
2.20001e-10
2.11292e-09
2.03288e-08
1.93714e-07
1.74574e-06
1.32119e-05
6.93714e-05
0.000217021
0.000454159
0.000759196
0.00109786
0.00141045
0.00164083
0.00177057
0.00181417
0.0017973
0.00174309
0.00166814
0.00158308
0.00149426
0.00140531
0.00131818
0.00123391
0.00115299
0.00107564
0.00100194
0.000931912
0.000865519
0.00080273
0.000743494
0.000687755
0.000635447
0.000586493
0.000540807
0.00049829
0.000458836
0.000422325
0.000389623
0.000360165
0.000332891
0.000307709
0.000284522
0.000263228
0.000243725
0.000225909
0.000209675
0.000194922
0.000181548
0.000169455
0.000158547
0.000148734
0.000139927
0.000132042
0.000125
0.000118726
0.000113151
0.000108208
0.000103836
9.99798e-05
9.6586e-05
9.36068e-05
9.0998e-05
8.87194e-05
8.67343e-05
8.50093e-05
8.35142e-05
8.22219e-05
8.11078e-05
8.01501e-05
7.9329e-05
7.86269e-05
7.80283e-05
7.75194e-05
7.7088e-05
7.67233e-05
7.64159e-05
7.61576e-05
7.59411e-05
7.57602e-05
7.56096e-05
7.54844e-05
7.53808e-05
7.52952e-05
7.52248e-05
7.5167e-05
7.51196e-05
7.5081e-05
7.50495e-05
7.5024e-05
7.50034e-05
7.49867e-05
7.49732e-05
7.49624e-05
7.49537e-05
7.49468e-05
7.49412e-05
7.49368e-05
7.49333e-05
7.49308e-05
7.49293e-05
7.49292e-05
7.49277e-05
7.49246e-05
7.49228e-05
7.49218e-05
7.49212e-05
7.49209e-05
7.49207e-05
7.49207e-05
7.49208e-05
7.49209e-05
7.4921e-05
7.49211e-05
7.49213e-05
7.49214e-05
7.49216e-05
7.49217e-05
7.49218e-05
7.49219e-05
7.4922e-05
7.49221e-05
7.49222e-05
7.49223e-05
7.49223e-05
7.49224e-05
7.49224e-05
7.49225e-05
7.49226e-05
7.49226e-05
7.49226e-05
7.49227e-05
7.49227e-05
7.49228e-05
7.49228e-05
7.49228e-05
7.49228e-05
7.49229e-05
7.49229e-05
7.49229e-05
7.4923e-05
7.4923e-05
7.4923e-05
7.49231e-05
7.49231e-05
7.49231e-05
7.49231e-05
7.49232e-05
7.49232e-05
7.49232e-05
7.49233e-05
7.49233e-05
7.49233e-05
7.49234e-05
7.49234e-05
7.49235e-05
7.49235e-05
7.49235e-05
7.49236e-05
7.49236e-05
7.49237e-05
7.49237e-05
7.49238e-05
7.49238e-05
7.49239e-05
7.49239e-05
7.4924e-05
7.4924e-05
7.49241e-05
7.49241e-05
7.49242e-05
7.49243e-05
7.49243e-05
7.49244e-05
7.49245e-05
7.49246e-05
7.49246e-05
7.49247e-05
7.49248e-05
7.49249e-05
7.4925e-05
7.49251e-05
7.49252e-05
7.49252e-05
7.49253e-05
7.49254e-05
7.49256e-05
7.49257e-05
7.49258e-05
7.49259e-05
7.4926e-05
7.49261e-05
7.49262e-05
7.49264e-05
7.49265e-05
7.49266e-05
7.49267e-05
7.49269e-05
7.4927e-05
7.49272e-05
7.49273e-05
7.49274e-05
7.49276e-05
7.49277e-05
7.49279e-05
7.49281e-05
7.49282e-05
7.49284e-05
7.49286e-05
7.49287e-05
7.49289e-05
7.49291e-05
7.49292e-05
7.49294e-05
7.49296e-05
7.49298e-05
7.493e-05
7.49302e-05
7.49304e-05
7.49305e-05
7.49307e-05
7.49309e-05
7.49311e-05
7.49313e-05
7.49314e-05
7.49315e-05
)
;

boundaryField
{
    boundary
    {
        type            empty;
    }
    inlet
    {
        type            fixedValue;
        value           uniform 0;
    }
    outlet
    {
        type            zeroGradient;
    }
}


// ************************************************************************* //
