/*--------------------------------*- C++ -*----------------------------------*\
  =========                 |
  \\      /  F ield         | OpenFOAM: The Open Source CFD Toolbox
   \\    /   O peration     | Website:  https://openfoam.org
    \\  /    A nd           | Version:  7
     \\/     M anipulation  |
\*---------------------------------------------------------------------------*/
FoamFile
{
    version     2.0;
    format      ascii;
    class       volScalarField;
    location    "5e-05";
    object      H2;
}
// * * * * * * * * * * * * * * * * * * * * * * * * * * * * * * * * * * * * * //

dimensions      [0 0 0 0 0 0 0];

internalField   nonuniform List<scalar> 
500
(
0.0285116
0.0285116
0.0285116
0.0285116
0.0285116
0.0285116
0.0285116
0.0285116
0.0285116
0.0285116
0.0285116
0.0285116
0.0285116
0.0285116
0.0285116
0.0285116
0.0285116
0.0285116
0.0285116
0.0285116
0.0285116
0.0285116
0.0285116
0.0285116
0.0285116
0.0285116
0.0285116
0.0285116
0.0285116
0.0285116
0.0285116
0.0285116
0.0285116
0.0285116
0.0285116
0.0285116
0.0285116
0.0285116
0.0285116
0.0285116
0.0285116
0.0285116
0.0285116
0.0285116
0.0285116
0.0285116
0.0285116
0.0285116
0.0285116
0.0285116
0.0285116
0.0285116
0.0285116
0.0285116
0.0285116
0.0285116
0.0285116
0.0285116
0.0285116
0.0285116
0.0285116
0.0285116
0.0285116
0.0285116
0.0285116
0.0285116
0.0285116
0.0285116
0.0285116
0.0285116
0.0285116
0.0285116
0.0285116
0.0285116
0.0285116
0.0285116
0.0285116
0.0285116
0.0285116
0.0285116
0.0285116
0.0285116
0.0285116
0.0285116
0.0285116
0.0285116
0.0285116
0.0285116
0.0285116
0.0285116
0.0285116
0.0285116
0.0285116
0.0285116
0.0285116
0.0285116
0.0285116
0.0285116
0.0285116
0.0285116
0.0285116
0.0285116
0.0285116
0.0285116
0.0285116
0.0285116
0.0285116
0.0285116
0.0285116
0.0285116
0.0285116
0.0285116
0.0285116
0.0285116
0.0285116
0.0285116
0.0285116
0.0285116
0.0285116
0.0285116
0.0285116
0.0285116
0.0285116
0.0285116
0.0285116
0.0285116
0.0285116
0.0285116
0.0285116
0.0285116
0.0285116
0.0285116
0.0285116
0.0285116
0.0285116
0.0285116
0.0285116
0.0285116
0.0285116
0.0285116
0.0285116
0.0285116
0.0285116
0.0285116
0.0285116
0.0285116
0.0285116
0.0285116
0.0285116
0.0285116
0.0285116
0.0285116
0.0285116
0.0285116
0.0285116
0.0285116
0.0285116
0.0285116
0.0285116
0.0285116
0.0285116
0.0285116
0.0285116
0.0285116
0.0285116
0.0285116
0.0285116
0.0285116
0.0285116
0.0285116
0.0285116
0.0285116
0.0285116
0.0285116
0.0285116
0.0285116
0.0285116
0.0285116
0.0285116
0.0285116
0.0285116
0.0285116
0.0285116
0.0285116
0.0285116
0.0285116
0.0285116
0.0285116
0.0285116
0.0285116
0.0285116
0.0285116
0.0285116
0.0285116
0.0285116
0.0285116
0.0285116
0.0285116
0.0285116
0.0285116
0.0285116
0.0285116
0.0285116
0.0285116
0.0285116
0.0285116
0.0285116
0.0285116
0.0285116
0.0285116
0.0285116
0.0285116
0.0285116
0.0285116
0.0285116
0.0285116
0.0285116
0.0285116
0.0285116
0.0285116
0.0285116
0.0285116
0.0285116
0.0285116
0.0285116
0.0285116
0.0285116
0.0285116
0.0285116
0.0285116
0.0285116
0.0285116
0.0285116
0.0285116
0.0285116
0.0285116
0.0285116
0.0285116
0.0285116
0.0285116
0.0285116
0.0285116
0.0285116
0.0285116
0.0285116
0.0285116
0.0285116
0.0285116
0.0285116
0.0285116
0.0285116
0.0285116
0.0285116
0.0285116
0.0285116
0.0285116
0.0285116
0.0285116
0.0285116
0.0285116
0.0285116
0.0285116
0.0285116
0.0285116
0.0285116
0.0285116
0.0285116
0.0285116
0.0285116
0.0285116
0.0285115
0.0285114
0.0285109
0.0285093
0.0285042
0.0284887
0.0284444
0.0283253
0.028027
0.0273576
0.0261007
0.0241907
0.0217769
0.0190762
0.0161796
0.0132369
0.0105516
0.00840307
0.00686928
0.00586078
0.00523469
0.00486289
0.00465096
0.00453523
0.00447461
0.00444308
0.00442432
0.00440815
0.00438829
0.00436098
0.00432405
0.00427647
0.00421791
0.0041486
0.00406911
0.00398027
0.00388308
0.00377868
0.00366826
0.00355305
0.00343428
0.00331316
0.00319449
0.00307864
0.00296311
0.0028487
0.00273617
0.00262619
0.00251937
0.00241625
0.00231727
0.0022228
0.00213314
0.00204849
0.00196898
0.00189468
0.0018256
0.00176167
0.0017028
0.00164883
0.00159959
0.00155485
0.00151438
0.00147793
0.00144524
0.00141605
0.00139008
0.00136707
0.00134676
0.00132891
0.00131328
0.00129964
0.00128779
0.00127753
0.00126867
0.00126106
0.00125453
0.00124897
0.00124423
0.00124021
0.00123682
0.00123396
0.00123156
0.00122956
0.00122789
0.0012265
0.00122535
0.0012244
0.00122361
0.00122297
0.00122245
0.00122202
0.00122168
0.00122139
0.00122117
0.00122098
0.00122084
0.00122072
0.00122063
0.00122055
0.00122049
0.00122044
0.0012204
0.00122036
0.00122033
0.0012203
0.00122028
0.00122028
0.00122028
0.00122028
0.00122028
0.00122028
0.00122029
0.00122029
0.00122029
0.00122029
0.00122029
0.0012203
0.0012203
0.0012203
0.0012203
0.00122031
0.00122031
0.00122031
0.00122031
0.00122031
0.00122032
0.00122032
0.00122032
0.00122032
0.00122032
0.00122032
0.00122033
0.00122033
0.00122033
0.00122033
0.00122033
0.00122033
0.00122033
0.00122033
0.00122034
0.00122034
0.00122034
0.00122034
0.00122034
0.00122034
0.00122034
0.00122034
0.00122034
0.00122034
0.00122034
0.00122034
0.00122035
0.00122035
0.00122035
0.00122035
0.00122035
0.00122035
0.00122035
0.00122035
0.00122035
0.00122035
0.00122035
0.00122035
0.00122035
0.00122035
0.00122035
0.00122035
0.00122035
0.00122035
0.00122036
0.00122036
0.00122036
0.00122036
0.00122036
0.00122036
0.00122036
0.00122036
0.00122036
0.00122036
0.00122036
0.00122036
0.00122036
0.00122036
0.00122036
0.00122036
0.00122036
0.00122036
0.00122036
0.00122036
0.00122036
0.00122036
0.00122036
0.00122036
0.00122036
0.00122036
0.00122036
0.00122036
0.00122036
0.00122036
0.00122036
0.00122036
0.00122036
0.00122036
0.00122036
0.00122036
0.00122035
0.00122035
0.00122035
0.00122035
0.00122035
0.00122035
0.00122035
0.00122035
0.00122035
0.00122035
0.00122035
0.00122035
0.00122035
0.00122035
0.00122035
0.00122035
0.00122034
0.00122034
0.00122034
0.00122034
0.00122034
0.00122034
0.00122034
0.00122034
)
;

boundaryField
{
    boundary
    {
        type            empty;
    }
    inlet
    {
        type            fixedValue;
        value           uniform 0.0285116;
    }
    outlet
    {
        type            zeroGradient;
    }
}


// ************************************************************************* //
