/*--------------------------------*- C++ -*----------------------------------*\
  =========                 |
  \\      /  F ield         | OpenFOAM: The Open Source CFD Toolbox
   \\    /   O peration     | Website:  https://openfoam.org
    \\  /    A nd           | Version:  7
     \\/     M anipulation  |
\*---------------------------------------------------------------------------*/
FoamFile
{
    version     2.0;
    format      ascii;
    class       volScalarField;
    location    "5e-05";
    object      H2O;
}
// * * * * * * * * * * * * * * * * * * * * * * * * * * * * * * * * * * * * * //

dimensions      [0 0 0 0 0 0 0];

internalField   nonuniform List<scalar> 
500
(
7.5742e-48
2.03557e-47
3.32115e-47
4.41055e-47
5.21896e-47
5.75631e-47
6.08147e-47
6.26282e-47
6.35697e-47
6.40281e-47
6.42389e-47
6.43312e-47
6.43699e-47
6.43858e-47
6.43924e-47
6.43954e-47
6.43972e-47
6.43986e-47
6.43998e-47
6.44011e-47
6.44025e-47
6.44039e-47
6.44053e-47
6.44069e-47
6.44085e-47
6.44103e-47
6.44121e-47
6.4414e-47
6.4416e-47
6.4418e-47
6.44202e-47
6.44224e-47
6.44248e-47
6.44272e-47
6.44298e-47
6.44324e-47
6.44352e-47
6.4438e-47
6.4441e-47
6.44441e-47
6.44473e-47
6.44506e-47
6.4454e-47
6.44575e-47
6.44611e-47
6.44649e-47
6.44688e-47
6.44728e-47
6.44769e-47
6.44812e-47
6.44856e-47
6.44901e-47
6.44948e-47
6.44995e-47
6.45045e-47
6.45095e-47
6.45147e-47
6.452e-47
6.45255e-47
6.45311e-47
6.45369e-47
6.45428e-47
6.45488e-47
6.4555e-47
6.45614e-47
6.45678e-47
6.45745e-47
6.45813e-47
6.45882e-47
6.45953e-47
6.46025e-47
6.46099e-47
6.46175e-47
6.46252e-47
6.4633e-47
6.46411e-47
6.46492e-47
6.46576e-47
6.46661e-47
6.46747e-47
6.46835e-47
6.46925e-47
6.47016e-47
6.47109e-47
6.47203e-47
6.47299e-47
6.47397e-47
6.47496e-47
6.47597e-47
6.477e-47
6.47804e-47
6.4791e-47
6.48017e-47
6.48126e-47
6.48237e-47
6.48349e-47
6.48463e-47
6.48578e-47
6.48695e-47
6.48814e-47
6.48934e-47
6.49056e-47
6.49179e-47
6.49304e-47
6.49431e-47
6.49559e-47
6.49689e-47
6.4982e-47
6.49953e-47
6.50087e-47
6.50222e-47
6.5036e-47
6.50498e-47
6.50638e-47
6.5078e-47
6.50923e-47
6.51067e-47
6.51212e-47
6.51358e-47
6.51497e-47
6.51602e-47
6.51548e-47
6.50818e-47
6.47439e-47
6.34815e-47
6.1756e-47
6.27356e-47
6.36757e-47
6.43645e-47
6.48063e-47
6.50678e-47
6.52156e-47
6.52982e-47
6.5346e-47
6.53764e-47
6.53987e-47
6.54175e-47
6.54348e-47
6.54515e-47
6.5468e-47
6.54844e-47
6.55008e-47
6.55172e-47
6.55334e-47
6.55497e-47
6.55659e-47
6.55819e-47
6.55979e-47
6.56138e-47
6.56296e-47
6.56452e-47
6.56606e-47
6.56759e-47
6.56909e-47
6.57058e-47
6.57204e-47
6.57348e-47
6.57489e-47
6.57627e-47
6.57762e-47
6.57893e-47
6.58021e-47
6.58145e-47
6.58265e-47
6.5838e-47
6.58491e-47
6.58597e-47
6.58698e-47
6.58794e-47
6.58884e-47
6.58968e-47
6.59046e-47
6.59117e-47
6.59182e-47
6.59239e-47
6.59289e-47
6.59332e-47
6.59367e-47
6.59393e-47
6.59411e-47
6.5942e-47
6.5942e-47
6.59411e-47
6.59392e-47
6.59363e-47
6.59324e-47
6.59275e-47
6.59215e-47
6.59143e-47
6.59061e-47
6.58967e-47
6.58862e-47
6.58744e-47
6.58615e-47
6.58473e-47
6.58319e-47
6.58152e-47
6.57972e-47
6.5778e-47
6.57574e-47
6.57355e-47
6.57123e-47
6.56877e-47
6.56618e-47
6.56346e-47
6.56061e-47
6.55762e-47
6.55449e-47
6.55124e-47
6.54785e-47
6.54432e-47
6.54067e-47
6.53689e-47
6.53299e-47
6.52895e-47
6.52479e-47
6.52051e-47
6.51611e-47
6.5116e-47
6.50697e-47
6.50222e-47
6.49737e-47
6.49241e-47
6.48734e-47
6.48218e-47
6.47691e-47
6.47155e-47
6.46611e-47
6.46065e-47
6.45551e-47
6.45289e-47
6.46659e-47
6.58375e-47
7.35644e-47
1.23108e-46
4.43365e-46
2.56741e-45
1.73489e-44
1.28546e-43
1.05854e-42
9.79018e-42
1.00338e-40
1.10568e-39
1.27027e-38
1.48679e-37
1.74617e-36
2.03737e-35
2.34591e-34
2.65631e-33
2.96138e-32
3.27522e-31
4.8778e-30
5.35375e-29
5.79551e-28
6.24957e-27
6.71786e-26
7.19975e-25
7.69144e-24
8.18437e-23
8.66388e-22
9.10845e-21
9.48995e-20
9.77508e-19
9.92835e-18
9.9162e-17
9.71208e-16
9.30156e-15
8.68653e-14
7.88759e-13
6.94363e-12
5.90837e-11
4.84433e-10
3.8153e-09
2.87782e-08
2.0726e-07
1.42097e-06
9.24305e-06
5.67155e-05
0.00032285
0.00161595
0.00629163
0.0170692
0.0334473
0.0533662
0.076799
0.103305
0.130021
0.153341
0.171485
0.184676
0.194003
0.200599
0.205344
0.208851
0.211525
0.213636
0.215363
0.216828
0.218116
0.219288
0.220386
0.22144
0.22247
0.223486
0.224496
0.2255
0.226497
0.227481
0.228449
0.229393
0.230307
0.231185
0.231996
0.232751
0.233466
0.234138
0.234765
0.235348
0.235885
0.236377
0.236826
0.237232
0.237598
0.237927
0.23822
0.23848
0.238711
0.238913
0.239091
0.239247
0.239382
0.239499
0.239601
0.239689
0.239764
0.239829
0.239884
0.239931
0.239971
0.240006
0.240035
0.240059
0.24008
0.240097
0.240112
0.240124
0.240135
0.240143
0.240151
0.240157
0.240162
0.240166
0.240169
0.240172
0.240174
0.240176
0.240178
0.240179
0.24018
0.240181
0.240182
0.240182
0.240183
0.240183
0.240183
0.240184
0.240184
0.240184
0.240184
0.240184
0.240184
0.240184
0.240184
0.240184
0.240185
0.240185
0.240185
0.240185
0.240185
0.240185
0.240185
0.240185
0.240185
0.240184
0.240184
0.240184
0.240184
0.240184
0.240184
0.240184
0.240184
0.240184
0.240184
0.240184
0.240184
0.240184
0.240184
0.240184
0.240184
0.240184
0.240184
0.240184
0.240184
0.240184
0.240184
0.240184
0.240184
0.240184
0.240184
0.240184
0.240184
0.240184
0.240184
0.240184
0.240184
0.240184
0.240184
0.240184
0.240184
0.240184
0.240184
0.240184
0.240184
0.240184
0.240183
0.240183
0.240183
0.240183
0.240183
0.240183
0.240183
0.240183
0.240183
0.240183
0.240183
0.240183
0.240183
0.240183
0.240183
0.240183
0.240183
0.240183
0.240183
0.240183
0.240183
0.240183
0.240183
0.240183
0.240183
0.240183
0.240183
0.240183
0.240183
0.240183
0.240183
0.240183
0.240183
0.240183
0.240183
0.240183
0.240183
0.240183
0.240183
0.240183
0.240183
0.240183
0.240183
0.240183
0.240183
0.240183
0.240183
0.240183
0.240183
0.240183
0.240183
0.240183
0.240183
0.240183
0.240183
0.240183
0.240183
0.240183
0.240183
0.240183
0.240183
0.240183
0.240183
0.240183
0.240183
0.240183
0.240183
0.240183
0.240183
0.240183
0.240183
0.240184
0.240184
0.240184
0.240184
0.240184
)
;

boundaryField
{
    boundary
    {
        type            empty;
    }
    inlet
    {
        type            fixedValue;
        value           uniform 0;
    }
    outlet
    {
        type            zeroGradient;
    }
}


// ************************************************************************* //
