/*--------------------------------*- C++ -*----------------------------------*\
  =========                 |
  \\      /  F ield         | OpenFOAM: The Open Source CFD Toolbox
   \\    /   O peration     | Website:  https://openfoam.org
    \\  /    A nd           | Version:  7
     \\/     M anipulation  |
\*---------------------------------------------------------------------------*/
FoamFile
{
    version     2.0;
    format      ascii;
    class       volScalarField;
    location    "5e-05";
    object      H2O2;
}
// * * * * * * * * * * * * * * * * * * * * * * * * * * * * * * * * * * * * * //

dimensions      [0 0 0 0 0 0 0];

internalField   nonuniform List<scalar> 
500
(
1.64639e-52
4.66101e-52
7.90541e-52
1.07787e-51
1.29656e-51
1.44346e-51
1.53226e-51
1.5813e-51
1.60633e-51
1.61825e-51
1.62359e-51
1.62586e-51
1.62679e-51
1.62716e-51
1.62731e-51
1.62738e-51
1.62743e-51
1.62747e-51
1.6275e-51
1.62754e-51
1.62758e-51
1.62762e-51
1.62766e-51
1.62771e-51
1.62776e-51
1.62781e-51
1.62786e-51
1.62792e-51
1.62797e-51
1.62803e-51
1.62809e-51
1.62816e-51
1.62823e-51
1.6283e-51
1.62837e-51
1.62844e-51
1.62852e-51
1.6286e-51
1.62869e-51
1.62877e-51
1.62886e-51
1.62895e-51
1.62905e-51
1.62915e-51
1.62925e-51
1.62935e-51
1.62946e-51
1.62957e-51
1.62969e-51
1.6298e-51
1.62992e-51
1.63005e-51
1.63018e-51
1.63031e-51
1.63044e-51
1.63058e-51
1.63072e-51
1.63087e-51
1.63101e-51
1.63117e-51
1.63132e-51
1.63148e-51
1.63164e-51
1.63181e-51
1.63198e-51
1.63216e-51
1.63234e-51
1.63252e-51
1.6327e-51
1.63289e-51
1.63309e-51
1.63329e-51
1.63349e-51
1.6337e-51
1.63391e-51
1.63412e-51
1.63434e-51
1.63456e-51
1.63479e-51
1.63502e-51
1.63526e-51
1.63549e-51
1.63574e-51
1.63599e-51
1.63624e-51
1.63649e-51
1.63675e-51
1.63702e-51
1.63729e-51
1.63756e-51
1.63784e-51
1.63812e-51
1.63841e-51
1.6387e-51
1.63899e-51
1.63929e-51
1.6396e-51
1.6399e-51
1.64022e-51
1.64053e-51
1.64085e-51
1.64118e-51
1.64151e-51
1.64184e-51
1.64218e-51
1.64252e-51
1.64286e-51
1.64321e-51
1.64357e-51
1.64393e-51
1.64429e-51
1.64465e-51
1.64502e-51
1.6454e-51
1.64578e-51
1.64616e-51
1.64654e-51
1.64693e-51
1.64732e-51
1.6477e-51
1.64803e-51
1.64804e-51
1.64645e-51
1.63759e-51
1.60011e-51
1.5434e-51
1.57561e-51
1.60579e-51
1.62683e-51
1.63947e-51
1.64641e-51
1.65006e-51
1.652e-51
1.65309e-51
1.6538e-51
1.65435e-51
1.65482e-51
1.65527e-51
1.65571e-51
1.65615e-51
1.65658e-51
1.65702e-51
1.65745e-51
1.65788e-51
1.6583e-51
1.65873e-51
1.65915e-51
1.65957e-51
1.65999e-51
1.6604e-51
1.66081e-51
1.66121e-51
1.66161e-51
1.662e-51
1.66238e-51
1.66276e-51
1.66313e-51
1.6635e-51
1.66385e-51
1.66419e-51
1.66453e-51
1.66485e-51
1.66517e-51
1.66547e-51
1.66575e-51
1.66603e-51
1.66629e-51
1.66654e-51
1.66677e-51
1.66698e-51
1.66718e-51
1.66736e-51
1.66752e-51
1.66766e-51
1.66779e-51
1.66789e-51
1.66797e-51
1.66802e-51
1.66806e-51
1.66807e-51
1.66805e-51
1.66801e-51
1.66794e-51
1.66784e-51
1.66772e-51
1.66757e-51
1.66739e-51
1.66717e-51
1.66693e-51
1.66666e-51
1.66635e-51
1.66601e-51
1.66563e-51
1.66523e-51
1.66478e-51
1.66431e-51
1.66379e-51
1.66324e-51
1.66266e-51
1.66203e-51
1.66138e-51
1.66068e-51
1.65994e-51
1.65917e-51
1.65836e-51
1.65752e-51
1.65663e-51
1.65571e-51
1.65475e-51
1.65376e-51
1.65273e-51
1.65166e-51
1.65055e-51
1.64941e-51
1.64824e-51
1.64703e-51
1.64579e-51
1.64451e-51
1.6432e-51
1.64186e-51
1.64049e-51
1.63909e-51
1.63766e-51
1.6362e-51
1.63471e-51
1.6332e-51
1.63166e-51
1.6301e-51
1.62851e-51
1.62691e-51
1.62538e-51
1.62435e-51
1.62657e-51
1.64922e-51
1.79947e-51
2.74742e-51
8.69128e-51
4.60985e-50
2.84881e-49
1.87242e-48
1.35776e-47
1.19665e-46
1.38327e-45
2.01117e-44
3.30667e-43
5.70397e-42
9.99288e-41
1.76096e-39
3.12171e-38
5.57871e-37
1.00009e-35
2.48343e-34
4.0185e-33
6.37716e-32
9.97684e-31
1.53761e-29
2.33252e-28
3.47968e-27
5.1e-26
7.33614e-25
1.03454e-23
1.42854e-22
1.92901e-21
2.54369e-20
3.27054e-19
4.09335e-18
4.97801e-17
5.87073e-16
6.69959e-15
7.38073e-14
7.82939e-13
7.97482e-12
7.77623e-11
7.23542e-10
6.40079e-09
5.35813e-08
4.20462e-07
3.0103e-06
1.80616e-05
7.21743e-05
0.000135724
0.000146815
9.72782e-05
4.40488e-05
1.67507e-05
6.9907e-06
4.34971e-06
4.07947e-06
4.48971e-06
4.9868e-06
5.36655e-06
5.57714e-06
5.62549e-06
5.53651e-06
5.33734e-06
5.05295e-06
4.70611e-06
4.31823e-06
3.90958e-06
3.49861e-06
3.1009e-06
2.72824e-06
2.38827e-06
2.0848e-06
1.81852e-06
1.58786e-06
1.38991e-06
1.22107e-06
1.07758e-06
9.55794e-07
8.52427e-07
7.64582e-07
6.92002e-07
6.30646e-07
5.77408e-07
5.31062e-07
4.90581e-07
4.55107e-07
4.23927e-07
3.96443e-07
3.72156e-07
3.50649e-07
3.31571e-07
3.14625e-07
2.99562e-07
2.86168e-07
2.74261e-07
2.6368e-07
2.54288e-07
2.45961e-07
2.38592e-07
2.32084e-07
2.26347e-07
2.21303e-07
2.16879e-07
2.13009e-07
2.09634e-07
2.06697e-07
2.0415e-07
2.01947e-07
2.00047e-07
1.98413e-07
1.97011e-07
1.95813e-07
1.94791e-07
1.93922e-07
1.93184e-07
1.92561e-07
1.92035e-07
1.91592e-07
1.9122e-07
1.90909e-07
1.90649e-07
1.90432e-07
1.90252e-07
1.90102e-07
1.89978e-07
1.89876e-07
1.89791e-07
1.89721e-07
1.89663e-07
1.89615e-07
1.89576e-07
1.89543e-07
1.89516e-07
1.89494e-07
1.89475e-07
1.89459e-07
1.89446e-07
1.89434e-07
1.89425e-07
1.89416e-07
1.89408e-07
1.89401e-07
1.89394e-07
1.89389e-07
1.89384e-07
1.89376e-07
1.89372e-07
1.89369e-07
1.89365e-07
1.89362e-07
1.89359e-07
1.89356e-07
1.89353e-07
1.8935e-07
1.89347e-07
1.89344e-07
1.89342e-07
1.89339e-07
1.89336e-07
1.89333e-07
1.8933e-07
1.89327e-07
1.89324e-07
1.89321e-07
1.89318e-07
1.89315e-07
1.89311e-07
1.89308e-07
1.89305e-07
1.89302e-07
1.89299e-07
1.89296e-07
1.89293e-07
1.8929e-07
1.89287e-07
1.89284e-07
1.89281e-07
1.89278e-07
1.89275e-07
1.89272e-07
1.89269e-07
1.89266e-07
1.89263e-07
1.8926e-07
1.89257e-07
1.89254e-07
1.89251e-07
1.89248e-07
1.89245e-07
1.89242e-07
1.89239e-07
1.89236e-07
1.89233e-07
1.89231e-07
1.89228e-07
1.89225e-07
1.89222e-07
1.89219e-07
1.89217e-07
1.89214e-07
1.89211e-07
1.89208e-07
1.89206e-07
1.89203e-07
1.892e-07
1.89198e-07
1.89195e-07
1.89193e-07
1.8919e-07
1.89188e-07
1.89185e-07
1.89183e-07
1.8918e-07
1.89178e-07
1.89176e-07
1.89173e-07
1.89171e-07
1.89169e-07
1.89167e-07
1.89165e-07
1.89163e-07
1.89161e-07
1.89159e-07
1.89157e-07
1.89155e-07
1.89153e-07
1.89151e-07
1.8915e-07
1.89148e-07
1.89146e-07
1.89145e-07
1.89143e-07
1.89142e-07
1.8914e-07
1.89139e-07
1.89138e-07
1.89137e-07
1.89135e-07
1.89134e-07
1.89133e-07
1.89132e-07
1.89131e-07
1.8913e-07
1.89129e-07
1.89128e-07
1.89128e-07
1.89127e-07
1.89126e-07
1.89126e-07
1.89125e-07
1.89125e-07
1.89124e-07
1.89124e-07
1.89124e-07
1.89123e-07
1.89123e-07
1.89123e-07
1.89123e-07
1.89123e-07
1.89122e-07
1.89122e-07
1.89122e-07
1.89122e-07
1.89122e-07
1.89122e-07
1.89122e-07
1.89121e-07
1.8912e-07
)
;

boundaryField
{
    boundary
    {
        type            empty;
    }
    inlet
    {
        type            fixedValue;
        value           uniform 0;
    }
    outlet
    {
        type            zeroGradient;
    }
}


// ************************************************************************* //
