/*--------------------------------*- C++ -*----------------------------------*\
  =========                 |
  \\      /  F ield         | OpenFOAM: The Open Source CFD Toolbox
   \\    /   O peration     | Website:  https://openfoam.org
    \\  /    A nd           | Version:  7
     \\/     M anipulation  |
\*---------------------------------------------------------------------------*/
FoamFile
{
    version     2.0;
    format      ascii;
    class       volScalarField;
    location    "5e-05";
    object      HO2;
}
// * * * * * * * * * * * * * * * * * * * * * * * * * * * * * * * * * * * * * //

dimensions      [0 0 0 0 0 0 0];

internalField   nonuniform List<scalar> 
500
(
5.58593e-38
1.22891e-37
1.80365e-37
2.24576e-37
2.55174e-37
2.74376e-37
2.85409e-37
2.91268e-37
2.94166e-37
2.95512e-37
2.96103e-37
2.96349e-37
2.96447e-37
2.96486e-37
2.96501e-37
2.96508e-37
2.96512e-37
2.96515e-37
2.96518e-37
2.96521e-37
2.96524e-37
2.96527e-37
2.96531e-37
2.96534e-37
2.96538e-37
2.96542e-37
2.96546e-37
2.96551e-37
2.96555e-37
2.9656e-37
2.96565e-37
2.9657e-37
2.96576e-37
2.96582e-37
2.96588e-37
2.96594e-37
2.966e-37
2.96607e-37
2.96614e-37
2.96621e-37
2.96629e-37
2.96637e-37
2.96645e-37
2.96653e-37
2.96662e-37
2.96671e-37
2.9668e-37
2.9669e-37
2.967e-37
2.9671e-37
2.96721e-37
2.96732e-37
2.96743e-37
2.96755e-37
2.96767e-37
2.96779e-37
2.96792e-37
2.96805e-37
2.96819e-37
2.96832e-37
2.96847e-37
2.96861e-37
2.96876e-37
2.96892e-37
2.96908e-37
2.96924e-37
2.96941e-37
2.96958e-37
2.96975e-37
2.96993e-37
2.97011e-37
2.9703e-37
2.97049e-37
2.97069e-37
2.97089e-37
2.97109e-37
2.9713e-37
2.97152e-37
2.97173e-37
2.97196e-37
2.97218e-37
2.97241e-37
2.97265e-37
2.97289e-37
2.97314e-37
2.97338e-37
2.97364e-37
2.9739e-37
2.97416e-37
2.97443e-37
2.9747e-37
2.97498e-37
2.97526e-37
2.97554e-37
2.97584e-37
2.97613e-37
2.97643e-37
2.97673e-37
2.97704e-37
2.97736e-37
2.97767e-37
2.978e-37
2.97832e-37
2.97865e-37
2.97899e-37
2.97933e-37
2.97967e-37
2.98002e-37
2.98037e-37
2.98073e-37
2.98109e-37
2.98146e-37
2.98182e-37
2.9822e-37
2.98257e-37
2.98295e-37
2.98333e-37
2.98372e-37
2.98411e-37
2.98449e-37
2.98481e-37
2.98481e-37
2.9832e-37
2.97421e-37
2.93591e-37
2.87869e-37
2.91216e-37
2.94266e-37
2.96372e-37
2.97632e-37
2.98323e-37
2.98684e-37
2.98874e-37
2.98981e-37
2.9905e-37
2.99103e-37
2.99149e-37
2.99193e-37
2.99235e-37
2.99276e-37
2.99318e-37
2.99359e-37
2.99399e-37
2.9944e-37
2.9948e-37
2.99519e-37
2.99558e-37
2.99596e-37
2.99634e-37
2.99671e-37
2.99708e-37
2.99743e-37
2.99778e-37
2.99811e-37
2.99844e-37
2.99876e-37
2.99906e-37
2.99935e-37
2.99963e-37
2.9999e-37
3.00015e-37
3.00038e-37
3.0006e-37
3.0008e-37
3.00098e-37
3.00115e-37
3.00129e-37
3.00141e-37
3.00151e-37
3.00159e-37
3.00164e-37
3.00167e-37
3.00167e-37
3.00165e-37
3.0016e-37
3.00151e-37
3.0014e-37
3.00126e-37
3.00108e-37
3.00088e-37
3.00063e-37
3.00036e-37
3.00004e-37
2.99969e-37
2.9993e-37
2.99887e-37
2.9984e-37
2.99789e-37
2.99734e-37
2.99675e-37
2.99611e-37
2.99543e-37
2.9947e-37
2.99393e-37
2.99311e-37
2.99224e-37
2.99133e-37
2.99037e-37
2.98936e-37
2.9883e-37
2.9872e-37
2.98604e-37
2.98484e-37
2.98358e-37
2.98228e-37
2.98093e-37
2.97953e-37
2.97808e-37
2.97658e-37
2.97503e-37
2.97344e-37
2.9718e-37
2.97011e-37
2.96838e-37
2.9666e-37
2.96478e-37
2.96291e-37
2.96101e-37
2.95906e-37
2.95707e-37
2.95505e-37
2.95298e-37
2.95088e-37
2.94875e-37
2.94658e-37
2.94438e-37
2.94215e-37
2.93988e-37
2.93759e-37
2.9353e-37
2.93311e-37
2.93169e-37
2.93518e-37
2.96887e-37
3.1883e-37
4.55022e-37
1.2942e-36
6.45909e-36
3.82263e-35
2.33329e-34
1.42804e-33
8.70574e-33
5.26748e-32
3.15197e-31
1.85871e-30
1.0772e-29
6.12986e-29
3.43174e-28
1.90026e-27
1.04966e-26
5.84978e-26
3.52984e-25
1.96961e-24
1.08804e-23
6.02007e-23
3.33888e-22
1.85637e-21
1.03477e-20
5.78439e-20
3.24459e-19
1.82796e-18
1.03595e-17
5.9192e-17
3.42073e-16
2.0075e-15
1.2018e-14
7.37002e-14
4.64187e-13
3.00177e-12
1.9848e-11
1.33073e-10
8.93321e-10
5.90441e-09
3.77854e-08
2.30409e-07
1.32507e-06
7.05005e-06
3.33348e-05
0.000129722
0.000356308
0.000534852
0.00050049
0.000389192
0.000276206
0.000191556
0.000132515
9.13336e-05
6.29144e-05
4.38875e-05
3.14387e-05
2.33151e-05
1.79242e-05
1.42362e-05
1.16171e-05
9.68368e-06
8.20472e-06
7.0387e-06
6.0973e-06
5.32389e-06
4.68108e-06
4.14336e-06
3.69256e-06
3.31514e-06
3.00047e-06
2.73977e-06
2.52549e-06
2.35095e-06
2.2101e-06
2.0975e-06
2.00826e-06
1.93808e-06
1.88319e-06
1.8417e-06
1.80953e-06
1.78404e-06
1.7638e-06
1.74768e-06
1.73483e-06
1.7246e-06
1.71649e-06
1.71015e-06
1.70528e-06
1.70168e-06
1.69917e-06
1.69758e-06
1.6968e-06
1.69669e-06
1.69713e-06
1.69802e-06
1.69926e-06
1.70076e-06
1.70243e-06
1.70422e-06
1.70604e-06
1.70787e-06
1.70965e-06
1.71136e-06
1.71297e-06
1.71447e-06
1.71586e-06
1.71712e-06
1.71826e-06
1.71928e-06
1.72019e-06
1.72099e-06
1.72169e-06
1.72231e-06
1.72284e-06
1.72331e-06
1.72371e-06
1.72405e-06
1.72435e-06
1.7246e-06
1.72482e-06
1.725e-06
1.72516e-06
1.7253e-06
1.72541e-06
1.72551e-06
1.7256e-06
1.72567e-06
1.72574e-06
1.7258e-06
1.72585e-06
1.72589e-06
1.72593e-06
1.72597e-06
1.726e-06
1.72603e-06
1.72606e-06
1.72608e-06
1.72611e-06
1.72613e-06
1.72615e-06
1.72614e-06
1.726e-06
1.72593e-06
1.72615e-06
1.72623e-06
1.72627e-06
1.72629e-06
1.7263e-06
1.72632e-06
1.72633e-06
1.72634e-06
1.72635e-06
1.72637e-06
1.72638e-06
1.72639e-06
1.7264e-06
1.72641e-06
1.72643e-06
1.72644e-06
1.72645e-06
1.72646e-06
1.72647e-06
1.72648e-06
1.72649e-06
1.7265e-06
1.72651e-06
1.72652e-06
1.72652e-06
1.72653e-06
1.72654e-06
1.72655e-06
1.72656e-06
1.72657e-06
1.72658e-06
1.72659e-06
1.72659e-06
1.7266e-06
1.72661e-06
1.72662e-06
1.72662e-06
1.72663e-06
1.72664e-06
1.72664e-06
1.72665e-06
1.72666e-06
1.72666e-06
1.72667e-06
1.72667e-06
1.72668e-06
1.72668e-06
1.72669e-06
1.72669e-06
1.7267e-06
1.7267e-06
1.7267e-06
1.72671e-06
1.72671e-06
1.72671e-06
1.72671e-06
1.72671e-06
1.72672e-06
1.72672e-06
1.72672e-06
1.72672e-06
1.72672e-06
1.72672e-06
1.72672e-06
1.72671e-06
1.72671e-06
1.72671e-06
1.72671e-06
1.7267e-06
1.7267e-06
1.72669e-06
1.72669e-06
1.72668e-06
1.72668e-06
1.72667e-06
1.72667e-06
1.72666e-06
1.72665e-06
1.72664e-06
1.72663e-06
1.72662e-06
1.72661e-06
1.7266e-06
1.72659e-06
1.72658e-06
1.72656e-06
1.72655e-06
1.72654e-06
1.72652e-06
1.72651e-06
1.72649e-06
1.72648e-06
1.72646e-06
1.72644e-06
1.72642e-06
1.7264e-06
1.72638e-06
1.72636e-06
1.72634e-06
1.72632e-06
1.7263e-06
1.72628e-06
1.72625e-06
1.72623e-06
1.72621e-06
1.72618e-06
1.72616e-06
1.72613e-06
1.7261e-06
1.72608e-06
1.72605e-06
1.72602e-06
1.72599e-06
1.72596e-06
1.72593e-06
1.7259e-06
1.72587e-06
1.72584e-06
1.72581e-06
1.72578e-06
1.72576e-06
1.72573e-06
1.72571e-06
)
;

boundaryField
{
    boundary
    {
        type            empty;
    }
    inlet
    {
        type            fixedValue;
        value           uniform 0;
    }
    outlet
    {
        type            zeroGradient;
    }
}


// ************************************************************************* //
