/*--------------------------------*- C++ -*----------------------------------*\
  =========                 |
  \\      /  F ield         | OpenFOAM: The Open Source CFD Toolbox
   \\    /   O peration     | Website:  https://openfoam.org
    \\  /    A nd           | Version:  7
     \\/     M anipulation  |
\*---------------------------------------------------------------------------*/
FoamFile
{
    version     2.0;
    format      ascii;
    class       volScalarField;
    location    "5e-05";
    object      O;
}
// * * * * * * * * * * * * * * * * * * * * * * * * * * * * * * * * * * * * * //

dimensions      [0 0 0 0 0 0 0];

internalField   nonuniform List<scalar> 
500
(
1.60004e-47
3.71016e-47
5.56012e-47
7.02475e-47
8.0755e-47
8.76361e-47
9.17881e-47
9.41179e-47
9.53434e-47
9.59517e-47
9.62383e-47
9.63671e-47
9.64226e-47
9.64459e-47
9.64555e-47
9.64596e-47
9.64617e-47
9.64629e-47
9.6464e-47
9.6465e-47
9.6466e-47
9.64671e-47
9.64682e-47
9.64694e-47
9.64706e-47
9.64719e-47
9.64733e-47
9.64748e-47
9.64763e-47
9.64779e-47
9.64796e-47
9.64814e-47
9.64833e-47
9.64852e-47
9.64873e-47
9.64894e-47
9.64917e-47
9.6494e-47
9.64965e-47
9.64991e-47
9.65017e-47
9.65045e-47
9.65074e-47
9.65104e-47
9.65136e-47
9.65169e-47
9.65203e-47
9.65238e-47
9.65274e-47
9.65312e-47
9.65352e-47
9.65392e-47
9.65435e-47
9.65478e-47
9.65523e-47
9.6557e-47
9.65618e-47
9.65668e-47
9.65719e-47
9.65772e-47
9.65826e-47
9.65882e-47
9.6594e-47
9.65999e-47
9.6606e-47
9.66123e-47
9.66188e-47
9.66254e-47
9.66322e-47
9.66391e-47
9.66463e-47
9.66536e-47
9.66611e-47
9.66688e-47
9.66766e-47
9.66847e-47
9.66929e-47
9.67013e-47
9.67099e-47
9.67187e-47
9.67276e-47
9.67368e-47
9.67461e-47
9.67557e-47
9.67654e-47
9.67753e-47
9.67854e-47
9.67957e-47
9.68061e-47
9.68168e-47
9.68276e-47
9.68387e-47
9.68499e-47
9.68613e-47
9.6873e-47
9.68847e-47
9.68967e-47
9.69089e-47
9.69213e-47
9.69338e-47
9.69465e-47
9.69595e-47
9.69726e-47
9.69858e-47
9.69993e-47
9.70129e-47
9.70267e-47
9.70407e-47
9.70548e-47
9.70692e-47
9.70836e-47
9.70983e-47
9.71131e-47
9.7128e-47
9.71431e-47
9.71584e-47
9.71738e-47
9.71892e-47
9.72045e-47
9.72184e-47
9.72266e-47
9.72106e-47
9.70999e-47
9.66488e-47
9.51339e-47
9.35049e-47
9.47569e-47
9.58153e-47
9.65184e-47
9.69354e-47
9.71708e-47
9.73029e-47
9.73791e-47
9.74257e-47
9.74569e-47
9.74803e-47
9.75e-47
9.75179e-47
9.7535e-47
9.75517e-47
9.75682e-47
9.75846e-47
9.76008e-47
9.76168e-47
9.76326e-47
9.76482e-47
9.76636e-47
9.76788e-47
9.76936e-47
9.77082e-47
9.77224e-47
9.77363e-47
9.77498e-47
9.77629e-47
9.77756e-47
9.77878e-47
9.77994e-47
9.78106e-47
9.78212e-47
9.78312e-47
9.78405e-47
9.78492e-47
9.78571e-47
9.78643e-47
9.78708e-47
9.78764e-47
9.78811e-47
9.78849e-47
9.78878e-47
9.78897e-47
9.78906e-47
9.78904e-47
9.78891e-47
9.78866e-47
9.78829e-47
9.7878e-47
9.78718e-47
9.78642e-47
9.78553e-47
9.7845e-47
9.78332e-47
9.78199e-47
9.7805e-47
9.77886e-47
9.77705e-47
9.77508e-47
9.77294e-47
9.77062e-47
9.76812e-47
9.76544e-47
9.76258e-47
9.75953e-47
9.75629e-47
9.75285e-47
9.74922e-47
9.74539e-47
9.74136e-47
9.73713e-47
9.73269e-47
9.72805e-47
9.7232e-47
9.71814e-47
9.71288e-47
9.70741e-47
9.70173e-47
9.69584e-47
9.68975e-47
9.68346e-47
9.67696e-47
9.67026e-47
9.66336e-47
9.65626e-47
9.64898e-47
9.6415e-47
9.63383e-47
9.62598e-47
9.61796e-47
9.60975e-47
9.60138e-47
9.59284e-47
9.58415e-47
9.5753e-47
9.56629e-47
9.55715e-47
9.54786e-47
9.53844e-47
9.5289e-47
9.51929e-47
9.50986e-47
9.50226e-47
9.50683e-47
9.58923e-47
1.01655e-46
1.38757e-46
3.75365e-46
1.89357e-45
1.18117e-44
7.89669e-44
5.62353e-43
4.36157e-42
3.74344e-41
3.53608e-40
3.58864e-39
3.80253e-38
4.11281e-37
4.47732e-36
4.87131e-35
5.28661e-34
5.73291e-33
6.23213e-32
6.77963e-31
9.65477e-30
9.55193e-29
9.18595e-28
8.67327e-27
8.03481e-26
7.29597e-25
6.48705e-24
5.64118e-23
4.79189e-22
3.97061e-21
3.20453e-20
2.51477e-19
1.91535e-18
1.4129e-17
1.00713e-16
6.91888e-16
4.56763e-15
2.88815e-14
1.74263e-13
9.99161e-13
5.41868e-12
2.76561e-11
1.32149e-10
5.88346e-10
2.4337e-09
9.38845e-09
3.47321e-08
1.37602e-07
7.37742e-07
5.48593e-06
3.57837e-05
0.000163122
0.00058051
0.00145739
0.00263114
0.00373161
0.00449991
0.00489601
0.00500563
0.00493347
0.00476002
0.00453759
0.00429734
0.00405659
0.00382414
0.00360366
0.00339598
0.00320043
0.00301575
0.00284057
0.00267369
0.00251421
0.00236152
0.0022153
0.00207546
0.00194202
0.00181512
0.00169492
0.00158154
0.00147509
0.00137562
0.00128586
0.0012041
0.00112801
0.00105743
0.000992173
0.000932031
0.000876768
0.000826132
0.000779864
0.000737698
0.00069937
0.00066462
0.000633196
0.000604853
0.000579355
0.00055648
0.000536015
0.000517756
0.000501514
0.000487108
0.000474369
0.000463138
0.000453267
0.000444619
0.000437065
0.000430487
0.000424778
0.000419836
0.000415573
0.000411907
0.000408763
0.000406074
0.000403783
0.000401835
0.000400185
0.000398791
0.000397616
0.00039663
0.000395804
0.000395114
0.000394539
0.000394062
0.000393667
0.000393341
0.000393073
0.000392853
0.000392673
0.000392526
0.000392407
0.00039231
0.000392232
0.000392169
0.000392118
0.000392078
0.000392046
0.00039202
0.000392
0.000391984
0.000391971
0.000391961
0.000391953
0.000391946
0.000391938
0.00039193
0.000391923
0.000391924
0.000391925
0.000391927
0.000391928
0.000391929
0.00039193
0.000391931
0.000391933
0.000391934
0.000391936
0.000391938
0.000391939
0.000391941
0.000391942
0.000391943
0.000391944
0.000391946
0.000391947
0.000391948
0.000391949
0.00039195
0.00039195
0.000391951
0.000391952
0.000391953
0.000391954
0.000391955
0.000391956
0.000391957
0.000391957
0.000391958
0.000391959
0.00039196
0.000391961
0.000391961
0.000391962
0.000391963
0.000391964
0.000391965
0.000391966
0.000391966
0.000391967
0.000391968
0.000391969
0.00039197
0.00039197
0.000391971
0.000391972
0.000391973
0.000391973
0.000391974
0.000391975
0.000391976
0.000391977
0.000391977
0.000391978
0.000391979
0.00039198
0.00039198
0.000391981
0.000391982
0.000391982
0.000391983
0.000391984
0.000391985
0.000391985
0.000391986
0.000391987
0.000391987
0.000391988
0.000391989
0.000391989
0.00039199
0.000391991
0.000391991
0.000391992
0.000391993
0.000391993
0.000391994
0.000391994
0.000391995
0.000391996
0.000391996
0.000391997
0.000391997
0.000391998
0.000391998
0.000391999
0.000392
0.000392
0.000392001
0.000392001
0.000392002
0.000392002
0.000392003
0.000392003
0.000392003
0.000392004
0.000392004
0.000392005
0.000392005
0.000392006
0.000392006
0.000392006
0.000392007
0.000392007
0.000392008
0.000392008
0.000392008
0.000392009
0.000392009
0.000392009
0.00039201
0.00039201
0.00039201
0.00039201
0.000392011
0.000392011
0.000392011
0.000392012
0.000392012
0.000392012
0.000392012
)
;

boundaryField
{
    boundary
    {
        type            empty;
    }
    inlet
    {
        type            fixedValue;
        value           uniform 0;
    }
    outlet
    {
        type            zeroGradient;
    }
}


// ************************************************************************* //
