/*--------------------------------*- C++ -*----------------------------------*\
  =========                 |
  \\      /  F ield         | OpenFOAM: The Open Source CFD Toolbox
   \\    /   O peration     | Website:  https://openfoam.org
    \\  /    A nd           | Version:  7
     \\/     M anipulation  |
\*---------------------------------------------------------------------------*/
FoamFile
{
    version     2.0;
    format      ascii;
    class       volScalarField;
    location    "5e-05";
    object      OH;
}
// * * * * * * * * * * * * * * * * * * * * * * * * * * * * * * * * * * * * * //

dimensions      [0 0 0 0 0 0 0];

internalField   nonuniform List<scalar> 
500
(
1.01902e-47
2.07815e-47
2.8615e-47
3.40906e-47
3.76504e-47
3.97903e-47
4.09829e-47
4.16031e-47
4.19065e-47
4.2047e-47
4.2109e-47
4.21351e-47
4.21457e-47
4.21498e-47
4.21513e-47
4.21517e-47
4.21518e-47
4.21517e-47
4.21516e-47
4.21514e-47
4.21512e-47
4.21511e-47
4.21509e-47
4.21507e-47
4.21505e-47
4.21502e-47
4.215e-47
4.21498e-47
4.21496e-47
4.21494e-47
4.21491e-47
4.21489e-47
4.21487e-47
4.21485e-47
4.21483e-47
4.21481e-47
4.21479e-47
4.21478e-47
4.21476e-47
4.21474e-47
4.21473e-47
4.21472e-47
4.21471e-47
4.2147e-47
4.21469e-47
4.21469e-47
4.21469e-47
4.21468e-47
4.21469e-47
4.21469e-47
4.2147e-47
4.21471e-47
4.21472e-47
4.21474e-47
4.21476e-47
4.21478e-47
4.21481e-47
4.21483e-47
4.21487e-47
4.2149e-47
4.21494e-47
4.21499e-47
4.21503e-47
4.21508e-47
4.21514e-47
4.2152e-47
4.21526e-47
4.21533e-47
4.2154e-47
4.21548e-47
4.21556e-47
4.21565e-47
4.21574e-47
4.21583e-47
4.21593e-47
4.21604e-47
4.21614e-47
4.21626e-47
4.21638e-47
4.2165e-47
4.21663e-47
4.21676e-47
4.2169e-47
4.21705e-47
4.21719e-47
4.21735e-47
4.21751e-47
4.21767e-47
4.21784e-47
4.21801e-47
4.21819e-47
4.21837e-47
4.21856e-47
4.21876e-47
4.21896e-47
4.21916e-47
4.21937e-47
4.21958e-47
4.2198e-47
4.22002e-47
4.22025e-47
4.22048e-47
4.22072e-47
4.22096e-47
4.22121e-47
4.22145e-47
4.22171e-47
4.22197e-47
4.22223e-47
4.22249e-47
4.22276e-47
4.22303e-47
4.22331e-47
4.22359e-47
4.22387e-47
4.22415e-47
4.22443e-47
4.22472e-47
4.225e-47
4.22527e-47
4.22544e-47
4.22525e-47
4.22365e-47
4.2175e-47
4.19816e-47
4.1779e-47
4.19194e-47
4.20493e-47
4.21508e-47
4.22151e-47
4.22515e-47
4.22716e-47
4.22829e-47
4.22897e-47
4.22943e-47
4.22978e-47
4.23006e-47
4.23032e-47
4.23056e-47
4.23079e-47
4.23101e-47
4.23121e-47
4.2314e-47
4.23158e-47
4.23174e-47
4.23189e-47
4.23202e-47
4.23213e-47
4.23223e-47
4.2323e-47
4.23236e-47
4.23239e-47
4.2324e-47
4.23238e-47
4.23233e-47
4.23226e-47
4.23216e-47
4.23202e-47
4.23186e-47
4.23166e-47
4.23142e-47
4.23115e-47
4.23084e-47
4.23048e-47
4.23009e-47
4.22964e-47
4.22916e-47
4.22862e-47
4.22803e-47
4.2274e-47
4.2267e-47
4.22596e-47
4.22515e-47
4.22429e-47
4.22336e-47
4.22237e-47
4.22131e-47
4.22019e-47
4.219e-47
4.21774e-47
4.2164e-47
4.21499e-47
4.2135e-47
4.21193e-47
4.21029e-47
4.20856e-47
4.20675e-47
4.20485e-47
4.20287e-47
4.20079e-47
4.19863e-47
4.19638e-47
4.19404e-47
4.19161e-47
4.18908e-47
4.18646e-47
4.18374e-47
4.18093e-47
4.17802e-47
4.17502e-47
4.17192e-47
4.16873e-47
4.16544e-47
4.16205e-47
4.15857e-47
4.15499e-47
4.15133e-47
4.14757e-47
4.14371e-47
4.13977e-47
4.13574e-47
4.13163e-47
4.12743e-47
4.12314e-47
4.11878e-47
4.11434e-47
4.10982e-47
4.10523e-47
4.10056e-47
4.09583e-47
4.09104e-47
4.08618e-47
4.08127e-47
4.07629e-47
4.07127e-47
4.06619e-47
4.06107e-47
4.05591e-47
4.05078e-47
4.04596e-47
4.0434e-47
4.05513e-47
4.15751e-47
4.84398e-47
9.42134e-47
4.14795e-46
2.85812e-45
2.36666e-44
2.22543e-43
2.3115e-42
2.56671e-41
2.95891e-40
3.46916e-39
4.08333e-38
4.78496e-37
5.54826e-36
6.33093e-35
7.06545e-34
7.64703e-33
7.92351e-32
7.73732e-31
9.2317e-30
9.24623e-29
9.06227e-28
8.73104e-27
8.26395e-26
7.67859e-25
6.99846e-24
6.25153e-23
5.46818e-22
4.67902e-21
3.91273e-20
3.19403e-19
2.5423e-18
1.97061e-17
1.48555e-16
1.08765e-15
7.72329e-15
5.31229e-14
3.53637e-13
2.27889e-12
1.4245e-11
8.65649e-11
5.11147e-10
2.93734e-09
1.64491e-08
9.0195e-08
4.92915e-07
2.85418e-06
1.9289e-05
0.000131796
0.000485423
0.000772869
0.000902712
0.00117774
0.00181448
0.00282138
0.00402359
0.00520721
0.00623535
0.00706514
0.00771288
0.0082175
0.00861912
0.00895018
0.0092335
0.00948316
0.00970642
0.00990564
0.0100801
0.0102273
0.0103442
0.0104281
0.0104767
0.0104891
0.0104653
0.0104065
0.010315
0.0101937
0.0100463
0.00987673
0.00968924
0.00949416
0.0092943
0.00908791
0.00887779
0.00866656
0.00845656
0.00824984
0.00804819
0.00785309
0.00766576
0.00748716
0.00731802
0.00715886
0.00701
0.00687159
0.00674364
0.00662601
0.00651846
0.00642065
0.00633217
0.00625253
0.0061812
0.00611764
0.00606126
0.00601148
0.00596773
0.00592945
0.00589609
0.00586713
0.00584211
0.00582056
0.00580207
0.00578627
0.00577282
0.0057614
0.00575174
0.0057436
0.00573676
0.00573103
0.00572625
0.00572227
0.00571898
0.00571625
0.00571401
0.00571217
0.00571066
0.00570943
0.00570844
0.00570764
0.00570699
0.00570647
0.00570606
0.00570573
0.00570548
0.00570528
0.00570512
0.005705
0.00570491
0.00570485
0.0057048
0.00570476
0.00570472
0.00570464
0.00570445
0.00570437
0.00570455
0.00570464
0.00570469
0.00570473
0.00570475
0.00570478
0.00570481
0.00570483
0.00570486
0.00570489
0.00570491
0.00570494
0.00570496
0.00570499
0.00570501
0.00570503
0.00570505
0.00570507
0.00570509
0.00570511
0.00570513
0.00570515
0.00570517
0.00570519
0.00570521
0.00570523
0.00570525
0.00570527
0.00570528
0.0057053
0.00570532
0.00570534
0.00570535
0.00570537
0.00570539
0.00570541
0.00570542
0.00570544
0.00570545
0.00570547
0.00570549
0.0057055
0.00570552
0.00570553
0.00570555
0.00570556
0.00570558
0.00570559
0.00570561
0.00570562
0.00570563
0.00570565
0.00570566
0.00570567
0.00570569
0.0057057
0.00570571
0.00570572
0.00570573
0.00570575
0.00570576
0.00570577
0.00570578
0.00570579
0.0057058
0.0057058
0.00570581
0.00570582
0.00570583
0.00570584
0.00570584
0.00570585
0.00570585
0.00570586
0.00570586
0.00570587
0.00570587
0.00570588
0.00570588
0.00570588
0.00570588
0.00570588
0.00570588
0.00570588
0.00570588
0.00570588
0.00570588
0.00570588
0.00570587
0.00570587
0.00570587
0.00570586
0.00570586
0.00570585
0.00570585
0.00570584
0.00570583
0.00570582
0.00570581
0.0057058
0.0057058
0.00570578
0.00570577
0.00570576
0.00570575
0.00570574
0.00570572
0.00570571
0.0057057
0.00570568
0.00570567
0.00570565
0.00570563
0.00570562
0.0057056
0.00570558
0.00570556
0.00570555
0.00570553
0.00570551
0.0057055
0.00570548
0.00570547
)
;

boundaryField
{
    boundary
    {
        type            empty;
    }
    inlet
    {
        type            fixedValue;
        value           uniform 0;
    }
    outlet
    {
        type            zeroGradient;
    }
}


// ************************************************************************* //
