/*--------------------------------*- C++ -*----------------------------------*\
  =========                 |
  \\      /  F ield         | OpenFOAM: The Open Source CFD Toolbox
   \\    /   O peration     | Website:  https://openfoam.org
    \\  /    A nd           | Version:  7
     \\/     M anipulation  |
\*---------------------------------------------------------------------------*/
FoamFile
{
    version     2.0;
    format      ascii;
    class       volScalarField;
    location    "5e-05";
    object      p;
}
// * * * * * * * * * * * * * * * * * * * * * * * * * * * * * * * * * * * * * //

dimensions      [1 -1 -2 0 0 0 0];

internalField   nonuniform List<scalar> 
500
(
102704
102704
102704
102704
102704
102704
102704
102704
102704
102704
102704
102704
102704
102704
102704
102704
102704
102704
102704
102704
102704
102703
102703
102703
102703
102703
102703
102703
102703
102703
102703
102702
102702
102702
102702
102702
102702
102702
102701
102701
102701
102701
102701
102701
102700
102700
102700
102700
102699
102699
102699
102699
102699
102698
102698
102698
102697
102697
102697
102697
102696
102696
102696
102695
102695
102694
102694
102694
102693
102693
102693
102692
102692
102691
102691
102690
102690
102689
102689
102688
102688
102687
102687
102686
102686
102685
102685
102684
102684
102683
102682
102682
102681
102681
102680
102679
102679
102678
102677
102677
102676
102675
102675
102674
102673
102672
102672
102671
102670
102669
102669
102668
102667
102666
102665
102665
102664
102663
102662
102661
102660
102660
102659
102658
102657
102656
102655
102654
102654
102653
102652
102651
102650
102649
102648
102647
102646
102646
102645
102644
102643
102642
102641
102640
102639
102638
102637
102636
102636
102635
102634
102633
102632
102631
102630
102629
102628
102628
102627
102626
102625
102624
102623
102622
102621
102621
102620
102619
102618
102617
102616
102615
102615
102614
102613
102612
102611
102610
102610
102609
102608
102607
102606
102606
102605
102604
102603
102602
102602
102601
102600
102599
102598
102598
102597
102596
102595
102595
102594
102593
102592
102591
102591
102590
102589
102588
102588
102587
102586
102585
102585
102584
102583
102582
102581
102581
102580
102579
102578
102577
102577
102576
102575
102574
102573
102573
102572
102571
102570
102569
102568
102568
102567
102566
102565
102564
102563
102562
102562
102561
102560
102559
102558
102557
102556
102555
102554
102553
102552
102551
102550
102549
102548
102547
102546
102545
102544
102543
102541
102540
102539
102538
102536
102535
102533
102532
102530
102529
102527
102525
102523
102521
102519
102517
102515
102513
102511
102509
102506
102504
102501
102499
102497
102495
102492
102490
102489
102487
102486
102485
102484
102483
102482
102482
102481
102481
102481
102480
102480
102479
102479
102479
102478
102478
102478
102477
102477
102476
102476
102476
102475
102475
102474
102474
102474
102473
102473
102472
102472
102472
102471
102471
102470
102470
102469
102469
102468
102468
102467
102467
102466
102466
102465
102464
102464
102463
102463
102462
102461
102461
102460
102460
102459
102458
102458
102457
102456
102456
102455
102454
102453
102453
102452
102451
102451
102450
102449
102448
102448
102447
102446
102445
102444
102444
102443
102442
102441
102441
102440
102439
102438
102437
102436
102436
102435
102434
102433
102432
102431
102431
102430
102429
102428
102427
102426
102425
102424
102423
102423
102422
102421
102420
102419
102418
102417
102416
102415
102414
102413
102412
102411
102410
102409
102408
102407
102406
102405
102404
102403
102402
102401
102400
102399
102398
102397
102396
102395
102394
102393
102392
102390
102389
102388
102387
102386
102385
102384
102383
102381
102380
102379
102378
102377
102375
102374
102373
102372
102371
102369
102368
102367
102366
102364
102363
102362
102361
102359
102358
102357
102355
102354
102353
102351
102350
102349
102347
102346
102345
102343
102342
102341
102339
102338
102336
102335
102334
102332
102331
102329
102328
102326
102325
102324
102322
102321
102319
102318
102316
102315
102313
102312
102310
102309
102307
102306
102304
102303
102301
102300
102298
102296
102295
102293
102292
102290
102289
102287
102285
102284
102282
)
;

boundaryField
{
    boundary
    {
        type            empty;
    }
    inlet
    {
        type            zeroGradient;
    }
    outlet
    {
        type            waveTransmissive;
        gamma           1.4;
        value           uniform 102281;
    }
}


// ************************************************************************* //
