/*--------------------------------*- C++ -*----------------------------------*\
  =========                 |
  \\      /  F ield         | OpenFOAM: The Open Source CFD Toolbox
   \\    /   O peration     | Website:  https://openfoam.org
    \\  /    A nd           | Version:  7
     \\/     M anipulation  |
\*---------------------------------------------------------------------------*/
FoamFile
{
    version     2.0;
    format      ascii;
    class       surfaceScalarField;
    location    "5e-05";
    object      phi;
}
// * * * * * * * * * * * * * * * * * * * * * * * * * * * * * * * * * * * * * //

dimensions      [1 0 -1 0 0 0 0];

internalField   nonuniform List<scalar> 
499
(
6.87977e-06
6.85823e-06
6.83759e-06
6.81825e-06
6.80032e-06
6.78364e-06
6.76785e-06
6.7526e-06
6.73763e-06
6.72281e-06
6.70805e-06
6.6933e-06
6.67856e-06
6.66382e-06
6.64907e-06
6.63431e-06
6.61955e-06
6.60477e-06
6.58999e-06
6.57519e-06
6.56039e-06
6.54557e-06
6.53074e-06
6.5159e-06
6.50104e-06
6.48617e-06
6.47129e-06
6.45639e-06
6.44147e-06
6.42654e-06
6.41159e-06
6.39663e-06
6.38165e-06
6.36664e-06
6.35162e-06
6.33659e-06
6.32153e-06
6.30645e-06
6.29135e-06
6.27623e-06
6.26108e-06
6.24592e-06
6.23073e-06
6.21552e-06
6.20028e-06
6.18502e-06
6.16974e-06
6.15443e-06
6.1391e-06
6.12374e-06
6.10836e-06
6.09295e-06
6.07751e-06
6.06205e-06
6.04656e-06
6.03105e-06
6.01551e-06
5.99994e-06
5.98434e-06
5.96872e-06
5.95307e-06
5.93739e-06
5.92169e-06
5.90596e-06
5.8902e-06
5.87442e-06
5.85861e-06
5.84278e-06
5.82692e-06
5.81103e-06
5.79512e-06
5.77919e-06
5.76324e-06
5.74726e-06
5.73126e-06
5.71523e-06
5.69919e-06
5.68313e-06
5.66705e-06
5.65095e-06
5.63483e-06
5.6187e-06
5.60256e-06
5.5864e-06
5.57023e-06
5.55405e-06
5.53786e-06
5.52166e-06
5.50546e-06
5.48925e-06
5.47304e-06
5.45683e-06
5.44062e-06
5.42442e-06
5.40821e-06
5.39202e-06
5.37583e-06
5.35966e-06
5.3435e-06
5.32735e-06
5.31123e-06
5.29512e-06
5.27904e-06
5.26298e-06
5.24695e-06
5.23095e-06
5.21498e-06
5.19906e-06
5.18317e-06
5.16732e-06
5.15152e-06
5.13576e-06
5.12006e-06
5.10441e-06
5.08882e-06
5.07329e-06
5.05783e-06
5.04243e-06
5.0271e-06
5.01185e-06
4.99667e-06
4.98157e-06
4.96656e-06
4.95163e-06
4.93679e-06
4.92206e-06
4.90741e-06
4.89286e-06
4.87841e-06
4.86408e-06
4.84986e-06
4.83576e-06
4.82177e-06
4.80791e-06
4.79417e-06
4.78056e-06
4.76708e-06
4.75373e-06
4.74053e-06
4.72746e-06
4.71455e-06
4.70178e-06
4.68916e-06
4.67669e-06
4.66439e-06
4.65224e-06
4.64026e-06
4.62844e-06
4.61679e-06
4.60531e-06
4.59401e-06
4.58289e-06
4.57194e-06
4.56117e-06
4.55059e-06
4.5402e-06
4.52999e-06
4.51998e-06
4.51015e-06
4.50052e-06
4.49108e-06
4.48185e-06
4.47281e-06
4.46397e-06
4.45533e-06
4.44689e-06
4.43865e-06
4.43062e-06
4.4228e-06
4.41518e-06
4.40776e-06
4.40055e-06
4.39354e-06
4.38674e-06
4.38015e-06
4.37376e-06
4.36757e-06
4.36159e-06
4.35581e-06
4.35024e-06
4.34486e-06
4.33968e-06
4.33471e-06
4.32992e-06
4.32534e-06
4.32094e-06
4.31674e-06
4.31273e-06
4.3089e-06
4.30525e-06
4.30179e-06
4.2985e-06
4.29538e-06
4.29244e-06
4.28967e-06
4.28706e-06
4.2846e-06
4.28231e-06
4.28017e-06
4.27817e-06
4.27632e-06
4.2746e-06
4.27302e-06
4.27157e-06
4.27024e-06
4.26903e-06
4.26793e-06
4.26693e-06
4.26604e-06
4.26524e-06
4.26453e-06
4.2639e-06
4.26334e-06
4.26285e-06
4.26243e-06
4.26206e-06
4.26173e-06
4.26145e-06
4.2612e-06
4.26098e-06
4.26077e-06
4.26057e-06
4.26038e-06
4.26017e-06
4.25996e-06
4.25973e-06
4.25946e-06
4.25916e-06
4.25882e-06
4.25842e-06
4.25796e-06
4.25744e-06
4.25684e-06
4.25616e-06
4.25539e-06
4.25453e-06
4.25357e-06
4.2525e-06
4.25132e-06
4.25002e-06
4.24861e-06
4.24707e-06
4.2454e-06
4.24361e-06
4.2417e-06
4.23965e-06
4.23748e-06
4.23519e-06
4.23279e-06
4.23027e-06
4.22765e-06
4.22495e-06
4.22214e-06
4.21926e-06
4.21633e-06
4.21336e-06
4.21037e-06
4.20738e-06
4.20442e-06
4.20149e-06
4.19864e-06
4.19588e-06
4.19324e-06
4.19076e-06
4.18845e-06
4.18633e-06
4.18445e-06
4.1828e-06
4.1814e-06
4.18027e-06
4.17938e-06
4.17872e-06
4.17826e-06
4.17799e-06
4.17813e-06
4.18018e-06
4.19094e-06
4.23694e-06
4.40323e-06
4.82348e-06
5.36218e-06
5.74606e-06
5.95854e-06
6.06957e-06
6.12984e-06
6.16384e-06
6.18296e-06
6.1928e-06
6.19618e-06
6.19379e-06
6.18472e-06
6.16745e-06
6.14058e-06
6.10326e-06
6.05534e-06
5.99735e-06
5.93039e-06
5.856e-06
5.77595e-06
5.69218e-06
5.60658e-06
5.52092e-06
5.4368e-06
5.35557e-06
5.27834e-06
5.20595e-06
5.13902e-06
5.07794e-06
5.02292e-06
4.97398e-06
4.931e-06
4.89377e-06
4.86368e-06
4.83804e-06
4.81654e-06
4.79882e-06
4.78453e-06
4.77329e-06
4.76473e-06
4.75847e-06
4.75416e-06
4.75147e-06
4.7501e-06
4.74977e-06
4.75023e-06
4.75126e-06
4.75268e-06
4.75433e-06
4.75607e-06
4.75781e-06
4.75945e-06
4.76094e-06
4.76222e-06
4.76327e-06
4.76406e-06
4.76459e-06
4.76485e-06
4.76484e-06
4.76458e-06
4.76408e-06
4.76334e-06
4.76239e-06
4.76124e-06
4.75991e-06
4.75841e-06
4.75676e-06
4.75498e-06
4.75307e-06
4.75105e-06
4.74893e-06
4.74672e-06
4.74444e-06
4.74208e-06
4.73966e-06
4.73719e-06
4.73467e-06
4.7321e-06
4.72949e-06
4.72684e-06
4.72416e-06
4.72145e-06
4.71871e-06
4.71594e-06
4.71315e-06
4.71034e-06
4.7075e-06
4.70465e-06
4.70177e-06
4.69887e-06
4.69596e-06
4.69302e-06
4.69007e-06
4.6871e-06
4.68411e-06
4.6811e-06
4.67808e-06
4.67503e-06
4.67197e-06
4.6689e-06
4.6658e-06
4.66269e-06
4.65956e-06
4.65641e-06
4.65325e-06
4.65006e-06
4.64686e-06
4.64363e-06
4.64039e-06
4.63713e-06
4.63385e-06
4.63056e-06
4.62724e-06
4.6239e-06
4.62055e-06
4.61717e-06
4.61377e-06
4.61036e-06
4.60692e-06
4.60346e-06
4.59998e-06
4.59648e-06
4.59296e-06
4.58942e-06
4.58586e-06
4.58227e-06
4.57866e-06
4.57503e-06
4.57138e-06
4.56771e-06
4.56401e-06
4.56029e-06
4.55655e-06
4.55279e-06
4.549e-06
4.54519e-06
4.54136e-06
4.5375e-06
4.53362e-06
4.52971e-06
4.52578e-06
4.52183e-06
4.51786e-06
4.51386e-06
4.50983e-06
4.50578e-06
4.50171e-06
4.49761e-06
4.49349e-06
4.48935e-06
4.48518e-06
4.48098e-06
4.47676e-06
4.47252e-06
4.46825e-06
4.46396e-06
4.45964e-06
4.4553e-06
4.45093e-06
4.44654e-06
4.44212e-06
4.43768e-06
4.43322e-06
4.42873e-06
4.42421e-06
4.41968e-06
4.41511e-06
4.41053e-06
4.40592e-06
4.40128e-06
4.39662e-06
4.39194e-06
4.38724e-06
4.38251e-06
4.37775e-06
4.37297e-06
4.36817e-06
4.36335e-06
4.3585e-06
4.35363e-06
4.34874e-06
4.34382e-06
4.33888e-06
4.33392e-06
4.32893e-06
4.32393e-06
4.3189e-06
4.31385e-06
4.30878e-06
4.30368e-06
4.29857e-06
4.29343e-06
4.28827e-06
4.28309e-06
4.27789e-06
4.27267e-06
4.26743e-06
4.26216e-06
4.25688e-06
4.25158e-06
4.24626e-06
4.24091e-06
4.23555e-06
4.23017e-06
4.22477e-06
4.21935e-06
4.21392e-06
4.20846e-06
4.20299e-06
4.1975e-06
4.19199e-06
4.18646e-06
4.18092e-06
4.17535e-06
4.16978e-06
4.16418e-06
4.15857e-06
4.15294e-06
4.1473e-06
4.14164e-06
)
;

boundaryField
{
    boundary
    {
        type            empty;
        value           nonuniform 0();
    }
    inlet
    {
        type            calculated;
        value           uniform -6.90163e-06;
    }
    outlet
    {
        type            calculated;
        value           uniform 4.13597e-06;
    }
}


// ************************************************************************* //
