/*--------------------------------*- C++ -*----------------------------------*\
  =========                 |
  \\      /  F ield         | OpenFOAM: The Open Source CFD Toolbox
   \\    /   O peration     | Website:  https://openfoam.org
    \\  /    A nd           | Version:  7
     \\/     M anipulation  |
\*---------------------------------------------------------------------------*/
FoamFile
{
    version     2.0;
    format      ascii;
    class       volScalarField;
    location    "5e-05";
    object      Qdot;
}
// * * * * * * * * * * * * * * * * * * * * * * * * * * * * * * * * * * * * * //

dimensions      [1 -1 -3 0 0 0 0];

internalField   nonuniform List<scalar> 
500
(
-2.59823e-27
-2.1517e-27
-2.15941e-27
-2.23923e-27
-2.30648e-27
-2.34834e-27
-2.37046e-27
-2.38084e-27
-2.38527e-27
-2.38702e-27
-2.38766e-27
-2.38787e-27
-2.38793e-27
-2.38793e-27
-2.38792e-27
-2.3879e-27
-2.38788e-27
-2.38785e-27
-2.38782e-27
-2.38779e-27
-2.38776e-27
-2.38773e-27
-2.38769e-27
-2.38765e-27
-2.38761e-27
-2.38756e-27
-2.38752e-27
-2.38747e-27
-2.38741e-27
-2.38736e-27
-2.3873e-27
-2.38723e-27
-2.38717e-27
-2.3871e-27
-2.38703e-27
-2.38695e-27
-2.38687e-27
-2.38679e-27
-2.3867e-27
-2.3866e-27
-2.38651e-27
-2.38641e-27
-2.3863e-27
-2.38619e-27
-2.38608e-27
-2.38596e-27
-2.38584e-27
-2.38571e-27
-2.38557e-27
-2.38544e-27
-2.38529e-27
-2.38514e-27
-2.38499e-27
-2.38483e-27
-2.38466e-27
-2.38449e-27
-2.38431e-27
-2.38413e-27
-2.38394e-27
-2.38375e-27
-2.38355e-27
-2.38334e-27
-2.38313e-27
-2.38291e-27
-2.38268e-27
-2.38245e-27
-2.38221e-27
-2.38197e-27
-2.38172e-27
-2.38146e-27
-2.3812e-27
-2.38093e-27
-2.38066e-27
-2.38037e-27
-2.38009e-27
-2.37979e-27
-2.37949e-27
-2.37918e-27
-2.37887e-27
-2.37855e-27
-2.37822e-27
-2.37789e-27
-2.37755e-27
-2.37721e-27
-2.37686e-27
-2.37651e-27
-2.37614e-27
-2.37578e-27
-2.37541e-27
-2.37503e-27
-2.37465e-27
-2.37426e-27
-2.37386e-27
-2.37347e-27
-2.37306e-27
-2.37266e-27
-2.37225e-27
-2.37183e-27
-2.37141e-27
-2.37099e-27
-2.37056e-27
-2.37013e-27
-2.36969e-27
-2.36925e-27
-2.36881e-27
-2.36837e-27
-2.36792e-27
-2.36747e-27
-2.36702e-27
-2.36657e-27
-2.36611e-27
-2.36565e-27
-2.36519e-27
-2.36473e-27
-2.36427e-27
-2.3638e-27
-2.36334e-27
-2.36287e-27
-2.36241e-27
-2.36194e-27
-2.36148e-27
-2.36101e-27
-2.36059e-27
-2.36042e-27
-2.36226e-27
-2.36228e-27
-2.3589e-27
-2.35808e-27
-2.35765e-27
-2.35723e-27
-2.35679e-27
-2.35634e-27
-2.35588e-27
-2.35542e-27
-2.35496e-27
-2.3545e-27
-2.35404e-27
-2.35358e-27
-2.35312e-27
-2.35266e-27
-2.35221e-27
-2.35175e-27
-2.35129e-27
-2.35083e-27
-2.35037e-27
-2.3499e-27
-2.34944e-27
-2.34897e-27
-2.34851e-27
-2.34804e-27
-2.34757e-27
-2.34709e-27
-2.34661e-27
-2.34613e-27
-2.34564e-27
-2.34515e-27
-2.34465e-27
-2.34415e-27
-2.34363e-27
-2.34312e-27
-2.34259e-27
-2.34205e-27
-2.34151e-27
-2.34095e-27
-2.34039e-27
-2.33981e-27
-2.33922e-27
-2.33861e-27
-2.338e-27
-2.33736e-27
-2.33671e-27
-2.33605e-27
-2.33536e-27
-2.33466e-27
-2.33394e-27
-2.33319e-27
-2.33243e-27
-2.33164e-27
-2.33083e-27
-2.32999e-27
-2.32913e-27
-2.32824e-27
-2.32732e-27
-2.32638e-27
-2.3254e-27
-2.3244e-27
-2.32336e-27
-2.32229e-27
-2.32119e-27
-2.32005e-27
-2.31888e-27
-2.31767e-27
-2.31643e-27
-2.31515e-27
-2.31383e-27
-2.31247e-27
-2.31108e-27
-2.30964e-27
-2.30817e-27
-2.30665e-27
-2.3051e-27
-2.3035e-27
-2.30186e-27
-2.30018e-27
-2.29846e-27
-2.2967e-27
-2.2949e-27
-2.29306e-27
-2.29117e-27
-2.28925e-27
-2.28728e-27
-2.28528e-27
-2.28324e-27
-2.28116e-27
-2.27904e-27
-2.27689e-27
-2.2747e-27
-2.27247e-27
-2.27022e-27
-2.26793e-27
-2.2656e-27
-2.26325e-27
-2.26087e-27
-2.25846e-27
-2.25602e-27
-2.25356e-27
-2.25108e-27
-2.24856e-27
-2.24602e-27
-2.24337e-27
-2.24026e-27
-2.23449e-27
-2.21307e-27
-2.09909e-27
-1.43744e-27
2.46505e-27
2.55434e-26
1.62064e-25
9.69549e-25
5.74482e-24
3.39834e-23
2.01019e-22
1.18993e-21
7.05597e-21
4.19743e-20
2.5103e-19
1.51346e-18
9.22617e-18
5.70016e-17
3.56832e-16
2.24983e-15
1.02549e-14
5.92415e-14
3.47831e-13
2.04349e-12
1.20094e-11
7.06121e-11
4.15457e-10
2.44651e-09
1.44217e-08
8.51064e-08
5.02717e-07
2.97075e-06
1.75423e-05
0.000103294
0.000604456
0.00349712
0.0198562
0.109516
0.57923
2.90484
14.051
81.9444
621.608
5757.6
46836.6
427313
4.25315e+06
4.42561e+07
4.1272e+08
2.55949e+09
7.9023e+09
1.22473e+10
1.30883e+10
1.28485e+10
1.25317e+10
1.17837e+10
1.03548e+10
8.59478e+09
6.92624e+09
5.53648e+09
4.43889e+09
3.58384e+09
2.91468e+09
2.38505e+09
1.96071e+09
1.61709e+09
1.33656e+09
1.10624e+09
9.16421e+08
7.59656e+08
6.30019e+08
5.22742e+08
4.3392e+08
3.60308e+08
2.99276e+08
2.48625e+08
2.06513e+08
1.71463e+08
1.4226e+08
1.17908e+08
9.76421e+07
8.11253e+07
6.73707e+07
5.57004e+07
4.58462e+07
3.75247e+07
3.0508e+07
2.46051e+07
1.96501e+07
1.5511e+07
1.20673e+07
9.21737e+06
6.87603e+06
4.96346e+06
3.41404e+06
2.17286e+06
1.19092e+06
421811
-168992
-611483
-945426
-1.17102e+06
-1.32879e+06
-1.42373e+06
-1.47316e+06
-1.48786e+06
-1.47629e+06
-1.44565e+06
-1.40157e+06
-1.34871e+06
-1.28985e+06
-1.23101e+06
-1.16746e+06
-1.10712e+06
-1.04937e+06
-994202
-942993
-895593
-852331
-813340
-778260
-747142
-719583
-695380
-674063
-656266
-640698
-627411
-615474
-606865
-598797
-592550
-587162
-582868
-579478
-576852
-574896
-573556
-572835
-572845
-573931
-576962
-584096
-600955
-641357
-651934
-614029
-595684
-586117
-581503
-579340
-578434
-578192
-578313
-578641
-579092
-579619
-580193
-580797
-581421
-582059
-582705
-583357
-584012
-584667
-585320
-585969
-586614
-587254
-587887
-588512
-589130
-589740
-590341
-590934
-591518
-592094
-592660
-593219
-593769
-594310
-594843
-595366
-595880
-596384
-596879
-597364
-597839
-598304
-598759
-599204
-599638
-600063
-600478
-600881
-601272
-601651
-602019
-602375
-602719
-603051
-603370
-603676
-603969
-604248
-604512
-604762
-604997
-605216
-605419
-605606
-605777
-605932
-606071
-606191
-606294
-606377
-606442
-606488
-606514
-606522
-606510
-606478
-606426
-606354
-606262
-606149
-606015
-605860
-605684
-605487
-605268
-605027
-604765
-604481
-604175
-603847
-603496
-603123
-602728
-602312
-601874
-601415
-600931
-600424
-599892
-599335
-598756
-598157
-597537
-596897
-596229
-595545
-594840
-594112
-593363
-592592
-591802
-590992
-590163
-589314
-588451
-587577
-586692
-585797
-584897
-583998
-583140
-582477
)
;

boundaryField
{
    boundary
    {
        type            empty;
    }
    inlet
    {
        type            calculated;
        value           uniform 0;
    }
    outlet
    {
        type            calculated;
        value           uniform 0;
    }
}


// ************************************************************************* //
