/*--------------------------------*- C++ -*----------------------------------*\
  =========                 |
  \\      /  F ield         | OpenFOAM: The Open Source CFD Toolbox
   \\    /   O peration     | Website:  https://openfoam.org
    \\  /    A nd           | Version:  7
     \\/     M anipulation  |
\*---------------------------------------------------------------------------*/
FoamFile
{
    version     2.0;
    format      ascii;
    class       volScalarField;
    location    "5e-05";
    object      rho;
}
// * * * * * * * * * * * * * * * * * * * * * * * * * * * * * * * * * * * * * //

dimensions      [1 -3 0 0 0 0 0];

internalField   nonuniform List<scalar> 
500
(
0.860501
0.859724
0.859078
0.858591
0.858265
0.85807
0.857965
0.857913
0.857889
0.857879
0.857875
0.857873
0.857873
0.857872
0.857872
0.857872
0.857871
0.857871
0.857871
0.85787
0.85787
0.85787
0.857869
0.857869
0.857868
0.857868
0.857867
0.857867
0.857866
0.857866
0.857865
0.857864
0.857864
0.857863
0.857862
0.857861
0.857861
0.85786
0.857859
0.857858
0.857857
0.857856
0.857855
0.857854
0.857853
0.857852
0.85785
0.857849
0.857848
0.857847
0.857845
0.857844
0.857842
0.857841
0.857839
0.857838
0.857836
0.857834
0.857832
0.857831
0.857829
0.857827
0.857825
0.857823
0.857821
0.857819
0.857816
0.857814
0.857812
0.857809
0.857807
0.857804
0.857801
0.857799
0.857796
0.857793
0.85779
0.857787
0.857784
0.857781
0.857778
0.857775
0.857771
0.857768
0.857764
0.857761
0.857757
0.857753
0.85775
0.857746
0.857742
0.857738
0.857734
0.85773
0.857725
0.857721
0.857717
0.857712
0.857707
0.857703
0.857698
0.857693
0.857688
0.857684
0.857678
0.857673
0.857668
0.857663
0.857658
0.857652
0.857647
0.857641
0.857636
0.85763
0.857624
0.857619
0.857613
0.857607
0.857601
0.857595
0.857589
0.857583
0.857577
0.857571
0.857566
0.857561
0.857554
0.857547
0.85754
0.857533
0.857526
0.85752
0.857513
0.857507
0.8575
0.857493
0.857487
0.85748
0.857474
0.857467
0.85746
0.857454
0.857447
0.857441
0.857434
0.857427
0.857421
0.857414
0.857408
0.857401
0.857395
0.857389
0.857382
0.857376
0.85737
0.857363
0.857357
0.857351
0.857345
0.857339
0.857333
0.857328
0.857322
0.857316
0.857311
0.857305
0.8573
0.857295
0.85729
0.857285
0.85728
0.857275
0.85727
0.857266
0.857261
0.857257
0.857253
0.857249
0.857245
0.857242
0.857238
0.857235
0.857232
0.857229
0.857226
0.857223
0.857221
0.857218
0.857216
0.857214
0.857213
0.857211
0.85721
0.857208
0.857207
0.857207
0.857206
0.857206
0.857205
0.857205
0.857205
0.857206
0.857206
0.857207
0.857208
0.857209
0.85721
0.857212
0.857213
0.857215
0.857217
0.857219
0.857222
0.857224
0.857227
0.85723
0.857233
0.857236
0.857239
0.857242
0.857246
0.857249
0.857253
0.857257
0.857261
0.857265
0.857269
0.857273
0.857277
0.857281
0.857286
0.85729
0.857294
0.857299
0.857303
0.857308
0.857312
0.857317
0.857322
0.857326
0.857331
0.857335
0.85734
0.857345
0.857349
0.857354
0.857359
0.857363
0.857368
0.857374
0.85738
0.857386
0.857389
0.857393
0.857397
0.857401
0.857406
0.85741
0.857415
0.85742
0.857424
0.857429
0.857434
0.857438
0.857442
0.857447
0.857451
0.857455
0.857459
0.857463
0.857466
0.85747
0.857474
0.857475
0.85745
0.857261
0.856237
0.851418
0.831258
0.764295
0.628828
0.482526
0.378542
0.313227
0.270522
0.240879
0.219892
0.205005
0.194302
0.186351
0.180162
0.175088
0.170716
0.166791
0.163155
0.159721
0.156442
0.153301
0.150298
0.147441
0.144743
0.142217
0.139873
0.137718
0.135757
0.133988
0.132408
0.131012
0.12979
0.128732
0.127826
0.127061
0.126441
0.125936
0.12552
0.125184
0.124918
0.124714
0.124563
0.124457
0.124387
0.124349
0.124335
0.124341
0.124362
0.124393
0.124432
0.124476
0.124523
0.12457
0.124617
0.124663
0.124706
0.124747
0.124784
0.124818
0.124849
0.124877
0.124901
0.124923
0.124942
0.124959
0.124973
0.124985
0.124995
0.125004
0.125011
0.125017
0.125022
0.125026
0.125029
0.125031
0.125033
0.125034
0.125035
0.125036
0.125036
0.125036
0.125035
0.125035
0.125034
0.125033
0.125032
0.125031
0.12503
0.125029
0.125028
0.125027
0.125026
0.125025
0.125023
0.125022
0.125021
0.12502
0.125018
0.125017
0.125016
0.125015
0.125013
0.125012
0.125011
0.12501
0.125008
0.125007
0.125006
0.125004
0.125003
0.125002
0.125
0.124999
0.124998
0.124996
0.124995
0.124994
0.124992
0.124991
0.12499
0.124988
0.124987
0.124986
0.124984
0.124983
0.124981
0.12498
0.124979
0.124977
0.124976
0.124974
0.124973
0.124972
0.12497
0.124969
0.124967
0.124966
0.124964
0.124963
0.124961
0.12496
0.124958
0.124957
0.124956
0.124954
0.124953
0.124951
0.12495
0.124948
0.124946
0.124945
0.124943
0.124942
0.12494
0.124939
0.124937
0.124936
0.124934
0.124933
0.124931
0.124929
0.124928
0.124926
0.124925
0.124923
0.124922
0.12492
0.124918
0.124917
0.124915
0.124914
0.124912
0.12491
0.124909
0.124907
0.124906
0.124904
0.124902
0.124901
0.124899
0.124897
0.124896
0.124894
0.124893
0.124891
0.124889
0.124888
0.124886
0.124884
0.124883
0.124881
0.12488
0.124878
0.124876
0.124875
0.124873
0.124871
0.12487
0.124868
0.124867
0.124865
0.124863
0.124862
0.12486
0.124858
0.124857
0.124855
0.124854
0.124852
0.12485
0.124849
0.124847
0.124845
0.124844
0.124842
0.124841
0.124839
0.124837
0.124836
0.124834
0.124832
0.124831
0.124829
)
;

boundaryField
{
    boundary
    {
        type            empty;
    }
    inlet
    {
        type            calculated;
        value           uniform 0.861118;
    }
    outlet
    {
        type            calculated;
        value           uniform 0.124828;
    }
}


// ************************************************************************* //
