/*--------------------------------*- C++ -*----------------------------------*\
  =========                 |
  \\      /  F ield         | OpenFOAM: The Open Source CFD Toolbox
   \\    /   O peration     | Website:  https://openfoam.org
    \\  /    A nd           | Version:  7
     \\/     M anipulation  |
\*---------------------------------------------------------------------------*/
FoamFile
{
    version     2.0;
    format      ascii;
    class       volScalarField;
    location    "5e-05";
    object      T;
}
// * * * * * * * * * * * * * * * * * * * * * * * * * * * * * * * * * * * * * //

dimensions      [0 0 0 1 0 0 0];

internalField   nonuniform List<scalar> 
500
(
300.215
300.486
300.712
300.883
300.997
301.065
301.102
301.121
301.129
301.132
301.134
301.134
301.134
301.134
301.134
301.134
301.134
301.134
301.134
301.134
301.134
301.134
301.134
301.134
301.133
301.133
301.133
301.133
301.133
301.133
301.133
301.133
301.132
301.132
301.132
301.132
301.132
301.132
301.132
301.131
301.131
301.131
301.131
301.131
301.13
301.13
301.13
301.13
301.13
301.129
301.129
301.129
301.129
301.129
301.128
301.128
301.128
301.128
301.127
301.127
301.127
301.126
301.126
301.126
301.126
301.125
301.125
301.125
301.124
301.124
301.124
301.123
301.123
301.123
301.122
301.122
301.122
301.121
301.121
301.121
301.12
301.12
301.12
301.119
301.119
301.119
301.118
301.118
301.118
301.117
301.117
301.117
301.116
301.116
301.115
301.115
301.115
301.114
301.114
301.114
301.113
301.113
301.112
301.112
301.112
301.111
301.111
301.111
301.11
301.11
301.11
301.109
301.109
301.108
301.108
301.108
301.107
301.107
301.107
301.106
301.106
301.106
301.105
301.105
301.104
301.103
301.103
301.103
301.103
301.103
301.103
301.102
301.102
301.102
301.101
301.101
301.101
301.1
301.1
301.1
301.099
301.099
301.099
301.098
301.098
301.098
301.097
301.097
301.097
301.096
301.096
301.095
301.095
301.095
301.094
301.094
301.093
301.093
301.092
301.092
301.091
301.091
301.09
301.09
301.089
301.088
301.088
301.087
301.086
301.086
301.085
301.084
301.083
301.082
301.082
301.081
301.08
301.079
301.078
301.076
301.075
301.074
301.073
301.072
301.07
301.069
301.067
301.066
301.064
301.063
301.061
301.059
301.057
301.056
301.054
301.052
301.05
301.047
301.045
301.043
301.041
301.038
301.036
301.033
301.031
301.028
301.025
301.023
301.02
301.017
301.014
301.011
301.008
301.005
301.001
300.998
300.995
300.991
300.988
300.984
300.981
300.977
300.973
300.97
300.966
300.962
300.958
300.954
300.951
300.947
300.943
300.939
300.935
300.931
300.926
300.922
300.918
300.914
300.91
300.906
300.901
300.897
300.893
300.888
300.884
300.88
300.875
300.871
300.866
300.861
300.856
300.851
300.847
300.843
300.838
300.833
300.828
300.823
300.818
300.813
300.807
300.802
300.796
300.791
300.785
300.779
300.773
300.766
300.76
300.754
300.747
300.74
300.735
300.733
300.75
300.855
301.336
303.377
311.586
340.864
418.33
551.796
712.178
870.765
1018.39
1152.58
1269.3
1366.16
1444.69
1508.82
1562.73
1609.88
1652.87
1693.54
1733.1
1772.3
1811.52
1850.88
1890.3
1929.57
1968.4
2006.43
2043.32
2078.75
2112.43
2144.12
2173.63
2200.85
2225.71
2248.2
2268.36
2286.26
2301.56
2314.73
2326.31
2336.38
2345.09
2352.57
2358.95
2364.36
2368.92
2372.74
2375.93
2378.59
2380.79
2382.6
2384.11
2385.35
2386.37
2387.22
2387.92
2388.5
2388.99
2389.39
2389.74
2390.03
2390.27
2390.49
2390.67
2390.82
2390.96
2391.08
2391.18
2391.27
2391.35
2391.42
2391.48
2391.53
2391.58
2391.62
2391.65
2391.68
2391.71
2391.74
2391.76
2391.78
2391.8
2391.81
2391.83
2391.84
2391.85
2391.86
2391.87
2391.88
2391.89
2391.9
2391.91
2391.92
2391.92
2391.93
2391.94
2391.94
2391.95
2391.95
2391.96
2391.97
2391.97
2391.98
2391.98
2391.98
2391.99
2391.99
2392
2392
2392.01
2392.01
2392.01
2392.02
2392.02
2392.03
2392.03
2392.03
2392.04
2392.04
2392.04
2392.05
2392.05
2392.06
2392.06
2392.06
2392.07
2392.07
2392.07
2392.08
2392.08
2392.08
2392.09
2392.09
2392.09
2392.1
2392.1
2392.1
2392.1
2392.11
2392.11
2392.11
2392.12
2392.12
2392.12
2392.12
2392.13
2392.13
2392.13
2392.13
2392.14
2392.14
2392.14
2392.14
2392.15
2392.15
2392.15
2392.15
2392.15
2392.16
2392.16
2392.16
2392.16
2392.16
2392.16
2392.17
2392.17
2392.17
2392.17
2392.17
2392.17
2392.17
2392.17
2392.17
2392.17
2392.17
2392.17
2392.17
2392.17
2392.17
2392.17
2392.17
2392.17
2392.17
2392.17
2392.17
2392.17
2392.17
2392.16
2392.16
2392.16
2392.16
2392.16
2392.16
2392.15
2392.15
2392.15
2392.15
2392.14
2392.14
2392.14
2392.13
2392.13
2392.13
2392.12
2392.12
2392.12
2392.11
2392.11
2392.1
2392.1
2392.09
2392.09
2392.09
2392.08
2392.08
2392.07
2392.06
2392.06
2392.05
2392.05
2392.04
2392.04
2392.03
2392.03
2392.03
)
;

boundaryField
{
    boundary
    {
        type            empty;
    }
    inlet
    {
        type            fixedValue;
        value           uniform 300;
    }
    outlet
    {
        type            zeroGradient;
    }
}


// ************************************************************************* //
