/*--------------------------------*- C++ -*----------------------------------*\
  =========                 |
  \\      /  F ield         | OpenFOAM: The Open Source CFD Toolbox
   \\    /   O peration     | Website:  https://openfoam.org
    \\  /    A nd           | Version:  7
     \\/     M anipulation  |
\*---------------------------------------------------------------------------*/
FoamFile
{
    version     2.0;
    format      ascii;
    class       volVectorField;
    location    "5e-05";
    object      U;
}
// * * * * * * * * * * * * * * * * * * * * * * * * * * * * * * * * * * * * * //

dimensions      [0 1 -1 0 0 0 0];

internalField   nonuniform List<vector> 
500
(
(2.34796 0 0)
(2.34282 0 0)
(2.33623 0 0)
(2.33026 0 0)
(2.32501 0 0)
(2.31976 0 0)
(2.31452 0 0)
(2.30937 0 0)
(2.30432 0 0)
(2.29921 0 0)
(2.29422 0 0)
(2.28917 0 0)
(2.28412 0 0)
(2.27909 0 0)
(2.27406 0 0)
(2.26903 0 0)
(2.26396 0 0)
(2.25894 0 0)
(2.2539 0 0)
(2.24885 0 0)
(2.24377 0 0)
(2.23871 0 0)
(2.23366 0 0)
(2.22859 0 0)
(2.22352 0 0)
(2.21844 0 0)
(2.21333 0 0)
(2.20831 0 0)
(2.20323 0 0)
(2.19805 0 0)
(2.19295 0 0)
(2.18787 0 0)
(2.18276 0 0)
(2.17764 0 0)
(2.17251 0 0)
(2.16738 0 0)
(2.16224 0 0)
(2.15709 0 0)
(2.15194 0 0)
(2.14678 0 0)
(2.14161 0 0)
(2.13644 0 0)
(2.13126 0 0)
(2.12607 0 0)
(2.12087 0 0)
(2.11566 0 0)
(2.11045 0 0)
(2.10522 0 0)
(2.09999 0 0)
(2.09475 0 0)
(2.08951 0 0)
(2.08425 0 0)
(2.07898 0 0)
(2.07371 0 0)
(2.06843 0 0)
(2.06313 0 0)
(2.05783 0 0)
(2.05252 0 0)
(2.0472 0 0)
(2.04187 0 0)
(2.03654 0 0)
(2.03119 0 0)
(2.02583 0 0)
(2.02047 0 0)
(2.01509 0 0)
(2.00971 0 0)
(2.00432 0 0)
(1.99892 0 0)
(1.99351 0 0)
(1.98809 0 0)
(1.98267 0 0)
(1.97723 0 0)
(1.97179 0 0)
(1.96634 0 0)
(1.96089 0 0)
(1.95542 0 0)
(1.94995 0 0)
(1.94447 0 0)
(1.93899 0 0)
(1.9335 0 0)
(1.928 0 0)
(1.9225 0 0)
(1.91699 0 0)
(1.91148 0 0)
(1.90597 0 0)
(1.90045 0 0)
(1.89493 0 0)
(1.88939 0 0)
(1.88388 0 0)
(1.87835 0 0)
(1.87281 0 0)
(1.86729 0 0)
(1.86176 0 0)
(1.85623 0 0)
(1.85069 0 0)
(1.84517 0 0)
(1.83966 0 0)
(1.83414 0 0)
(1.82862 0 0)
(1.82311 0 0)
(1.8176 0 0)
(1.81211 0 0)
(1.80662 0 0)
(1.80114 0 0)
(1.79566 0 0)
(1.79021 0 0)
(1.78475 0 0)
(1.7793 0 0)
(1.7739 0 0)
(1.76848 0 0)
(1.76307 0 0)
(1.75769 0 0)
(1.75233 0 0)
(1.74699 0 0)
(1.74166 0 0)
(1.73635 0 0)
(1.73107 0 0)
(1.72581 0 0)
(1.72056 0 0)
(1.71536 0 0)
(1.71016 0 0)
(1.70499 0 0)
(1.69988 0 0)
(1.69476 0 0)
(1.68962 0 0)
(1.68461 0 0)
(1.6797 0 0)
(1.6747 0 0)
(1.6697 0 0)
(1.66481 0 0)
(1.65996 0 0)
(1.65513 0 0)
(1.65034 0 0)
(1.64559 0 0)
(1.6409 0 0)
(1.63623 0 0)
(1.63162 0 0)
(1.62704 0 0)
(1.62252 0 0)
(1.61805 0 0)
(1.61362 0 0)
(1.60924 0 0)
(1.60492 0 0)
(1.60064 0 0)
(1.59642 0 0)
(1.59225 0 0)
(1.58814 0 0)
(1.58409 0 0)
(1.58009 0 0)
(1.57615 0 0)
(1.57227 0 0)
(1.56844 0 0)
(1.56468 0 0)
(1.56099 0 0)
(1.55737 0 0)
(1.55379 0 0)
(1.55026 0 0)
(1.54681 0 0)
(1.54344 0 0)
(1.54013 0 0)
(1.53688 0 0)
(1.5337 0 0)
(1.53059 0 0)
(1.52754 0 0)
(1.52456 0 0)
(1.52165 0 0)
(1.51881 0 0)
(1.51604 0 0)
(1.51333 0 0)
(1.51071 0 0)
(1.50816 0 0)
(1.50568 0 0)
(1.50322 0 0)
(1.50087 0 0)
(1.4986 0 0)
(1.49639 0 0)
(1.49425 0 0)
(1.49217 0 0)
(1.49017 0 0)
(1.48823 0 0)
(1.48637 0 0)
(1.48457 0 0)
(1.48284 0 0)
(1.48118 0 0)
(1.47958 0 0)
(1.47804 0 0)
(1.4766 0 0)
(1.4752 0 0)
(1.47383 0 0)
(1.47256 0 0)
(1.47136 0 0)
(1.47021 0 0)
(1.46912 0 0)
(1.46808 0 0)
(1.46711 0 0)
(1.46619 0 0)
(1.46532 0 0)
(1.46451 0 0)
(1.46375 0 0)
(1.46305 0 0)
(1.46237 0 0)
(1.46179 0 0)
(1.46122 0 0)
(1.46069 0 0)
(1.46021 0 0)
(1.45978 0 0)
(1.45938 0 0)
(1.45902 0 0)
(1.4587 0 0)
(1.4584 0 0)
(1.45814 0 0)
(1.45791 0 0)
(1.4577 0 0)
(1.45752 0 0)
(1.45735 0 0)
(1.45723 0 0)
(1.45709 0 0)
(1.45697 0 0)
(1.45688 0 0)
(1.4568 0 0)
(1.45672 0 0)
(1.45664 0 0)
(1.45657 0 0)
(1.45649 0 0)
(1.45641 0 0)
(1.45633 0 0)
(1.45624 0 0)
(1.45613 0 0)
(1.456 0 0)
(1.4559 0 0)
(1.45572 0 0)
(1.45553 0 0)
(1.45534 0 0)
(1.45512 0 0)
(1.45486 0 0)
(1.45457 0 0)
(1.45425 0 0)
(1.45389 0 0)
(1.4535 0 0)
(1.45307 0 0)
(1.4526 0 0)
(1.45207 0 0)
(1.45153 0 0)
(1.45095 0 0)
(1.45026 0 0)
(1.44957 0 0)
(1.44886 0 0)
(1.4481 0 0)
(1.44727 0 0)
(1.4464 0 0)
(1.44547 0 0)
(1.44458 0 0)
(1.44372 0 0)
(1.44273 0 0)
(1.44169 0 0)
(1.44064 0 0)
(1.43968 0 0)
(1.43862 0 0)
(1.43755 0 0)
(1.43656 0 0)
(1.43558 0 0)
(1.43461 0 0)
(1.43367 0 0)
(1.43278 0 0)
(1.43195 0 0)
(1.4312 0 0)
(1.43049 0 0)
(1.42994 0 0)
(1.42939 0 0)
(1.42892 0 0)
(1.42859 0 0)
(1.42833 0 0)
(1.42812 0 0)
(1.42803 0 0)
(1.42801 0 0)
(1.4285 0 0)
(1.43172 0 0)
(1.44809 0 0)
(1.51205 0 0)
(1.70813 0 0)
(2.17258 0 0)
(3.0634 0 0)
(4.22719 0 0)
(5.41914 0 0)
(6.49133 0 0)
(7.41234 0 0)
(8.18769 0 0)
(8.82381 0 0)
(9.33356 0 0)
(9.74005 0 0)
(10.0687 0 0)
(10.34 0 0)
(10.5677 0 0)
(10.7605 0 0)
(10.9238 0 0)
(11.0614 0 0)
(11.1758 0 0)
(11.269 0 0)
(11.3428 0 0)
(11.399 0 0)
(11.439 0 0)
(11.4651 0 0)
(11.4789 0 0)
(11.4819 0 0)
(11.4763 0 0)
(11.4632 0 0)
(11.4458 0 0)
(11.4245 0 0)
(11.4009 0 0)
(11.3763 0 0)
(11.3515 0 0)
(11.3274 0 0)
(11.3057 0 0)
(11.2864 0 0)
(11.2688 0 0)
(11.2533 0 0)
(11.2399 0 0)
(11.2286 0 0)
(11.2191 0 0)
(11.2115 0 0)
(11.2055 0 0)
(11.2009 0 0)
(11.1975 0 0)
(11.1951 0 0)
(11.1936 0 0)
(11.1926 0 0)
(11.1921 0 0)
(11.1918 0 0)
(11.1917 0 0)
(11.1916 0 0)
(11.1914 0 0)
(11.191 0 0)
(11.1904 0 0)
(11.1895 0 0)
(11.1883 0 0)
(11.1868 0 0)
(11.185 0 0)
(11.1828 0 0)
(11.1803 0 0)
(11.1774 0 0)
(11.1743 0 0)
(11.1708 0 0)
(11.1671 0 0)
(11.1631 0 0)
(11.1588 0 0)
(11.1544 0 0)
(11.1497 0 0)
(11.1448 0 0)
(11.1398 0 0)
(11.1346 0 0)
(11.1292 0 0)
(11.1237 0 0)
(11.1181 0 0)
(11.1124 0 0)
(11.1066 0 0)
(11.1007 0 0)
(11.0948 0 0)
(11.0887 0 0)
(11.0826 0 0)
(11.0764 0 0)
(11.0701 0 0)
(11.0638 0 0)
(11.0574 0 0)
(11.051 0 0)
(11.0445 0 0)
(11.038 0 0)
(11.0314 0 0)
(11.0248 0 0)
(11.0181 0 0)
(11.0114 0 0)
(11.0047 0 0)
(10.9979 0 0)
(10.991 0 0)
(10.9842 0 0)
(10.9772 0 0)
(10.9705 0 0)
(10.9632 0 0)
(10.9565 0 0)
(10.949 0 0)
(10.942 0 0)
(10.9349 0 0)
(10.9277 0 0)
(10.9205 0 0)
(10.9132 0 0)
(10.9058 0 0)
(10.8985 0 0)
(10.891 0 0)
(10.8836 0 0)
(10.8761 0 0)
(10.8685 0 0)
(10.8609 0 0)
(10.8533 0 0)
(10.8456 0 0)
(10.8379 0 0)
(10.8301 0 0)
(10.8223 0 0)
(10.8144 0 0)
(10.8065 0 0)
(10.7985 0 0)
(10.7905 0 0)
(10.7824 0 0)
(10.7743 0 0)
(10.7662 0 0)
(10.7579 0 0)
(10.7497 0 0)
(10.7414 0 0)
(10.733 0 0)
(10.7246 0 0)
(10.7161 0 0)
(10.7076 0 0)
(10.699 0 0)
(10.6904 0 0)
(10.6817 0 0)
(10.673 0 0)
(10.6642 0 0)
(10.6554 0 0)
(10.6465 0 0)
(10.6375 0 0)
(10.6285 0 0)
(10.6195 0 0)
(10.6103 0 0)
(10.6012 0 0)
(10.5919 0 0)
(10.5827 0 0)
(10.5733 0 0)
(10.5639 0 0)
(10.5545 0 0)
(10.545 0 0)
(10.5354 0 0)
(10.5258 0 0)
(10.5161 0 0)
(10.5063 0 0)
(10.4965 0 0)
(10.4867 0 0)
(10.4768 0 0)
(10.4668 0 0)
(10.4568 0 0)
(10.4467 0 0)
(10.4366 0 0)
(10.4264 0 0)
(10.4161 0 0)
(10.4058 0 0)
(10.3954 0 0)
(10.385 0 0)
(10.3745 0 0)
(10.364 0 0)
(10.3534 0 0)
(10.3427 0 0)
(10.332 0 0)
(10.3212 0 0)
(10.3104 0 0)
(10.2995 0 0)
(10.2886 0 0)
(10.2776 0 0)
(10.2665 0 0)
(10.2554 0 0)
(10.2443 0 0)
(10.2331 0 0)
(10.2218 0 0)
(10.2105 0 0)
(10.1991 0 0)
(10.1877 0 0)
(10.1762 0 0)
(10.1646 0 0)
(10.153 0 0)
(10.1414 0 0)
(10.1297 0 0)
(10.118 0 0)
(10.1062 0 0)
(10.0943 0 0)
(10.0824 0 0)
(10.0705 0 0)
(10.0585 0 0)
(10.0464 0 0)
(10.0343 0 0)
(10.0222 0 0)
(10.01 0 0)
(9.99772 0 0)
(9.98543 0 0)
(9.97309 0 0)
(9.9607 0 0)
(9.94827 0 0)
(9.9358 0 0)
(9.92327 0 0)
(9.91071 0 0)
(9.89809 0 0)
(9.88544 0 0)
(9.87274 0 0)
(9.86 0 0)
(9.84722 0 0)
(9.83439 0 0)
(9.82152 0 0)
(9.80862 0 0)
(9.79567 0 0)
(9.78268 0 0)
(9.76968 0 0)
(9.75668 0 0)
(9.74345 0 0)
(9.72908 0 0)
(9.71247 0 0)
)
;

boundaryField
{
    boundary
    {
        type            empty;
    }
    inlet
    {
        type            fixedValue;
        value           uniform (2.34893 0 0);
    }
    outlet
    {
        type            zeroGradient;
    }
}


// ************************************************************************* //
