/*--------------------------------*- C++ -*----------------------------------*\
  =========                 |
  \\      /  F ield         | OpenFOAM: The Open Source CFD Toolbox
   \\    /   O peration     | Website:  https://openfoam.org
    \\  /    A nd           | Version:  7
     \\/     M anipulation  |
\*---------------------------------------------------------------------------*/
FoamFile
{
    version     2.0;
    format      ascii;
    class       volScalarField;
    location    "0.00084";
    object      H2;
}
// * * * * * * * * * * * * * * * * * * * * * * * * * * * * * * * * * * * * * //

dimensions      [0 0 0 0 0 0 0];

internalField   nonuniform List<scalar> 
500
(
0.0285116
0.0285116
0.0285116
0.0285116
0.0285116
0.0285116
0.0285116
0.0285116
0.0285116
0.0285116
0.0285116
0.0285116
0.0285116
0.0285116
0.0285116
0.0285116
0.0285116
0.0285116
0.0285116
0.0285116
0.0285116
0.0285116
0.0285116
0.0285116
0.0285116
0.0285116
0.0285116
0.0285116
0.0285116
0.0285116
0.0285116
0.0285116
0.0285116
0.0285116
0.0285116
0.0285116
0.0285116
0.0285116
0.0285116
0.0285116
0.0285116
0.0285116
0.0285116
0.0285116
0.0285116
0.0285116
0.0285116
0.0285116
0.0285116
0.0285116
0.0285116
0.0285116
0.0285116
0.0285116
0.0285116
0.0285116
0.0285116
0.0285116
0.0285116
0.0285116
0.0285116
0.0285116
0.0285116
0.0285116
0.0285116
0.0285116
0.0285116
0.0285116
0.0285116
0.0285116
0.0285116
0.0285116
0.0285116
0.0285116
0.0285116
0.0285116
0.0285116
0.0285116
0.0285116
0.0285116
0.0285116
0.0285116
0.0285116
0.0285116
0.0285116
0.0285116
0.0285116
0.0285116
0.0285116
0.0285116
0.0285116
0.0285116
0.0285116
0.0285116
0.0285116
0.0285116
0.0285116
0.0285116
0.0285116
0.0285116
0.0285116
0.0285116
0.0285116
0.0285116
0.0285116
0.0285116
0.0285116
0.0285116
0.0285116
0.0285116
0.0285116
0.0285116
0.0285116
0.0285116
0.0285116
0.0285116
0.0285116
0.0285116
0.0285116
0.0285116
0.0285116
0.0285116
0.0285116
0.0285116
0.0285116
0.0285116
0.0285116
0.0285116
0.0285116
0.0285116
0.0285116
0.0285116
0.0285116
0.0285116
0.0285116
0.0285116
0.0285116
0.0285116
0.0285116
0.0285116
0.0285116
0.0285116
0.0285116
0.0285116
0.0285116
0.0285116
0.0285116
0.0285116
0.0285116
0.0285116
0.0285116
0.0285116
0.0285116
0.0285116
0.0285116
0.0285116
0.0285116
0.0285116
0.0285116
0.0285116
0.0285116
0.0285116
0.0285116
0.0285116
0.0285116
0.0285116
0.0285116
0.0285116
0.0285116
0.0285116
0.0285116
0.0285116
0.0285116
0.0285116
0.0285116
0.0285116
0.0285116
0.0285116
0.0285116
0.0285116
0.0285116
0.0285116
0.0285116
0.0285116
0.0285116
0.0285116
0.0285116
0.0285116
0.0285116
0.0285116
0.0285116
0.0285116
0.0285116
0.0285116
0.0285116
0.0285116
0.0285116
0.0285116
0.0285116
0.0285116
0.0285116
0.0285116
0.0285116
0.0285116
0.0285116
0.0285116
0.0285116
0.0285116
0.0285116
0.0285116
0.0285116
0.0285116
0.0285116
0.0285116
0.0285116
0.0285116
0.0285116
0.0285116
0.0285116
0.0285116
0.0285116
0.0285116
0.0285116
0.0285116
0.0285116
0.0285116
0.0285116
0.0285116
0.0285116
0.0285116
0.0285116
0.0285116
0.0285116
0.0285116
0.0285116
0.0285116
0.0285116
0.0285116
0.0285116
0.0285116
0.0285116
0.0285116
0.0285116
0.0285116
0.0285116
0.0285116
0.0285116
0.0285116
0.0285116
0.0285116
0.0285116
0.0285116
0.0285116
0.0285116
0.0285116
0.0285116
0.0285116
0.0285116
0.0285116
0.0285116
0.0285116
0.0285115
0.0285115
0.0285114
0.0285112
0.0285107
0.0285098
0.0285079
0.0285038
0.0284954
0.0284778
0.0284413
0.0283655
0.0282091
0.0278926
0.0272806
0.0261973
0.0245092
0.0222644
0.0196354
0.0167117
0.0136421
0.0107582
0.0084039
0.0067082
0.00549487
0.00478464
0.00434536
0.00407488
0.00390641
0.00379842
0.00372585
0.00367381
0.00363358
0.0036001
0.00357047
0.00354303
0.00351687
0.00349148
0.00346661
0.00344212
0.00341796
0.00339411
0.00337057
0.00334735
0.00332447
0.00330194
0.00327976
0.00325794
0.00323649
0.0032154
0.00319468
0.00317494
0.00315599
0.00313731
0.00311889
0.00310072
0.00308281
0.00306514
0.00304771
0.00303053
0.00301358
0.00299686
0.00298037
0.0029641
0.00294805
0.00293221
0.00291658
0.00290116
0.00288595
0.00287093
0.0028561
0.00284146
0.00282701
0.00281273
0.00279864
0.00278472
0.00277096
0.00275738
0.00274395
0.00273069
0.00271757
0.00270462
0.00269181
0.00267914
0.00266662
0.00265424
0.00264199
0.00262988
0.00261791
0.00260606
0.00259434
0.00258275
0.00257128
0.00255993
0.0025487
0.00253759
0.0025266
0.00251572
0.00250496
0.0024943
0.00248376
0.00247333
0.002463
0.00245279
0.00244268
0.00243267
0.00242277
0.00241297
0.00240327
0.00239368
0.00238418
0.00237479
0.00236549
0.00235629
0.00234718
0.00233816
0.00232921
0.00232034
0.00231156
0.00230287
0.00229426
0.00228573
0.00227728
0.00226892
0.00226063
0.00225242
0.00224428
0.00223622
0.00222823
0.00222032
0.00221248
0.0022047
0.002197
0.00218936
0.00218179
0.00217428
0.00216684
0.00215946
0.00215214
0.00214488
0.00213769
0.00213055
0.00212348
0.00211646
0.00210949
0.00210259
0.00209574
0.00208894
0.0020822
0.00207551
0.00206888
0.00206229
0.00205576
0.00204928
0.00204285
0.00203647
0.00203014
0.00202385
0.00201762
0.00201143
0.00200529
0.0019992
0.00199315
0.00198714
0.00198119
0.00197527
0.0019694
0.00196358
0.0019578
0.00195206
0.00194636
0.0019407
0.00193509
0.00192952
0.00192398
0.00191849
0.00191304
0.00190763
0.00190226
0.00189693
0.00189163
0.00188638
0.00188117
0.00187599
0.00187085
0.00186575
0.00186069
0.00185567
0.00185069
0.00184575
0.00184084
0.00183598
0.00183115
0.00182636
0.00182161
0.00181691
0.00181224
0.00180761
0.00180303
0.00179848
0.00179398
0.00178952
0.00178511
0.00178074
0.00177641
0.00177213
0.0017679
0.00176371
0.00175957
0.00175549
0.00175145
0.00174746
0.00174353
0.00173965
0.00173582
0.00173205
0.00172834
0.00172469
0.00172111
0.00171758
0.00171413
0.00171074
0.00170742
0.00170418
0.00170102
0.00169794
0.00169495
0.00169205
0.00168926
0.00168659
0.00168404
0.00168164
0.00167941
0.00167738
0.00167558
0.00167405
0.00167283
0.00167198
0.00167152
)
;

boundaryField
{
    boundary
    {
        type            empty;
    }
    inlet
    {
        type            fixedValue;
        value           uniform 0.0285116;
    }
    outlet
    {
        type            zeroGradient;
    }
}


// ************************************************************************* //
