/*--------------------------------*- C++ -*----------------------------------*\
  =========                 |
  \\      /  F ield         | OpenFOAM: The Open Source CFD Toolbox
   \\    /   O peration     | Website:  https://openfoam.org
    \\  /    A nd           | Version:  7
     \\/     M anipulation  |
\*---------------------------------------------------------------------------*/
FoamFile
{
    version     2.0;
    format      ascii;
    class       volScalarField;
    location    "0.00084";
    object      HO2;
}
// * * * * * * * * * * * * * * * * * * * * * * * * * * * * * * * * * * * * * //

dimensions      [0 0 0 0 0 0 0];

internalField   nonuniform List<scalar> 
500
(
5.59266e-38
1.27284e-37
1.98905e-37
2.70572e-37
3.42221e-37
4.13818e-37
4.85331e-37
5.56728e-37
6.27983e-37
6.99072e-37
7.69982e-37
8.4071e-37
9.11266e-37
9.81671e-37
1.05196e-36
1.12218e-36
1.19238e-36
1.26264e-36
1.33301e-36
1.40356e-36
1.47436e-36
1.54545e-36
1.6169e-36
1.68875e-36
1.76104e-36
1.83379e-36
1.90705e-36
1.98085e-36
2.05524e-36
2.13025e-36
2.20597e-36
2.28247e-36
2.35984e-36
2.43821e-36
2.51773e-36
2.59855e-36
2.68086e-36
2.76486e-36
2.85077e-36
2.93883e-36
3.02926e-36
3.12229e-36
3.21813e-36
3.317e-36
3.41904e-36
3.52439e-36
3.6331e-36
3.74519e-36
3.86059e-36
3.97915e-36
4.10066e-36
4.22478e-36
4.35113e-36
4.47921e-36
4.60847e-36
4.73828e-36
4.86795e-36
4.99677e-36
5.124e-36
5.24888e-36
5.37069e-36
5.48872e-36
5.60233e-36
5.71094e-36
5.81404e-36
5.91122e-36
6.00216e-36
6.08666e-36
6.1646e-36
6.23595e-36
6.30081e-36
6.35931e-36
6.4117e-36
6.45827e-36
6.49937e-36
6.53536e-36
6.56665e-36
6.59366e-36
6.6168e-36
6.63649e-36
6.65311e-36
6.66706e-36
6.67867e-36
6.68827e-36
6.69616e-36
6.70259e-36
6.7078e-36
6.712e-36
6.71535e-36
6.71802e-36
6.72012e-36
6.72178e-36
6.72307e-36
6.72408e-36
6.72486e-36
6.72546e-36
6.72593e-36
6.72629e-36
6.72657e-36
6.72679e-36
6.72696e-36
6.7271e-36
6.72722e-36
6.72731e-36
6.7274e-36
6.72748e-36
6.72755e-36
6.72762e-36
6.72769e-36
6.72777e-36
6.72784e-36
6.72791e-36
6.72799e-36
6.72807e-36
6.72815e-36
6.72824e-36
6.72833e-36
6.72843e-36
6.72853e-36
6.72863e-36
6.72872e-36
6.72876e-36
6.72861e-36
6.72766e-36
6.72361e-36
6.71559e-36
6.71574e-36
6.71589e-36
6.71606e-36
6.71623e-36
6.71642e-36
6.71662e-36
6.71683e-36
6.71704e-36
6.71727e-36
6.7175e-36
6.71773e-36
6.71797e-36
6.71821e-36
6.71845e-36
6.71869e-36
6.71893e-36
6.71919e-36
6.71945e-36
6.71974e-36
6.72005e-36
6.72039e-36
6.72077e-36
6.72119e-36
6.72167e-36
6.7222e-36
6.72279e-36
6.72343e-36
6.72413e-36
6.72489e-36
6.72568e-36
6.72651e-36
6.72736e-36
6.72822e-36
6.72907e-36
6.7299e-36
6.73071e-36
6.73147e-36
6.73218e-36
6.73283e-36
6.73342e-36
6.73395e-36
6.73442e-36
6.73484e-36
6.73522e-36
6.73556e-36
6.73589e-36
6.73621e-36
6.73654e-36
6.73689e-36
6.73727e-36
6.73769e-36
6.73815e-36
6.73867e-36
6.73923e-36
6.73984e-36
6.7405e-36
6.74121e-36
6.74195e-36
6.74273e-36
6.74352e-36
6.74433e-36
6.74515e-36
6.74597e-36
6.74677e-36
6.74756e-36
6.74833e-36
6.74906e-36
6.74977e-36
6.75044e-36
6.75107e-36
6.75167e-36
6.75222e-36
6.75273e-36
6.75319e-36
6.75362e-36
6.754e-36
6.75434e-36
6.75464e-36
6.7549e-36
6.75512e-36
6.7553e-36
6.75545e-36
6.75555e-36
6.75562e-36
6.75569e-36
6.75582e-36
6.75626e-36
6.75782e-36
6.7631e-36
6.78051e-36
6.83711e-36
7.01961e-36
7.60506e-36
9.47562e-36
1.54324e-35
3.43469e-35
9.42531e-35
2.83579e-34
8.80887e-34
2.76305e-33
8.69049e-33
2.73614e-32
8.62441e-32
2.72399e-31
8.6329e-31
2.75013e-30
8.82562e-30
2.86068e-29
9.39335e-29
3.13468e-28
1.0665e-27
3.70949e-27
1.32158e-26
4.82646e-26
1.80591e-25
6.91126e-25
2.69827e-24
1.07141e-23
4.31317e-23
1.75523e-22
7.2018e-22
2.97293e-21
1.23258e-20
5.12571e-20
2.1358e-19
8.96115e-19
3.75089e-18
1.56761e-17
6.55023e-17
2.73716e-16
1.14391e-15
4.78137e-15
1.99895e-14
8.35921e-14
3.49673e-13
1.46319e-12
6.12469e-12
2.56445e-11
1.07399e-10
4.49833e-10
1.88401e-09
7.88859e-09
3.30108e-08
1.37916e-07
5.73864e-07
2.36119e-06
9.50271e-06
3.6366e-05
0.000124145
0.000326274
0.000507939
0.000496883
0.000396994
0.00028758
0.000202328
0.00014169
9.89868e-05
6.9544e-05
5.02162e-05
3.53603e-05
2.72366e-05
2.19876e-05
1.84989e-05
1.60928e-05
1.43615e-05
1.30614e-05
1.20458e-05
1.12249e-05
1.05422e-05
9.96157e-06
9.4587e-06
9.01694e-06
8.62444e-06
8.27251e-06
7.95455e-06
7.66548e-06
7.40127e-06
7.15866e-06
6.935e-06
6.72806e-06
6.53599e-06
6.35721e-06
6.19039e-06
6.03439e-06
5.88827e-06
5.75126e-06
5.62656e-06
5.51044e-06
5.40002e-06
5.2949e-06
5.19471e-06
5.09909e-06
5.00774e-06
4.92039e-06
4.83678e-06
4.75668e-06
4.67986e-06
4.60615e-06
4.53535e-06
4.46731e-06
4.40186e-06
4.33888e-06
4.27821e-06
4.21975e-06
4.16337e-06
4.10898e-06
4.05648e-06
4.00577e-06
3.95676e-06
3.90938e-06
3.86355e-06
3.8192e-06
3.77627e-06
3.73469e-06
3.6944e-06
3.65535e-06
3.61749e-06
3.58076e-06
3.54512e-06
3.51053e-06
3.47694e-06
3.44431e-06
3.41261e-06
3.3818e-06
3.35184e-06
3.32271e-06
3.29437e-06
3.26679e-06
3.23995e-06
3.21381e-06
3.18835e-06
3.16354e-06
3.13937e-06
3.1158e-06
3.09282e-06
3.0704e-06
3.04853e-06
3.02718e-06
3.00634e-06
2.98599e-06
2.96611e-06
2.94668e-06
2.9277e-06
2.90914e-06
2.89099e-06
2.87324e-06
2.85589e-06
2.83892e-06
2.82233e-06
2.80613e-06
2.79026e-06
2.7746e-06
2.75926e-06
2.74423e-06
2.72949e-06
2.71505e-06
2.70088e-06
2.687e-06
2.67338e-06
2.66002e-06
2.64692e-06
2.63407e-06
2.62146e-06
2.60908e-06
2.59694e-06
2.58502e-06
2.57333e-06
2.56184e-06
2.55057e-06
2.53951e-06
2.52864e-06
2.51798e-06
2.5075e-06
2.49721e-06
2.4871e-06
2.47718e-06
2.46742e-06
2.45784e-06
2.44843e-06
2.43917e-06
2.43008e-06
2.42114e-06
2.41236e-06
2.40372e-06
2.39522e-06
2.38687e-06
2.37866e-06
2.37058e-06
2.36263e-06
2.35481e-06
2.34712e-06
2.33955e-06
2.3321e-06
2.32477e-06
2.31755e-06
2.31045e-06
2.30345e-06
2.29657e-06
2.28979e-06
2.28312e-06
2.27654e-06
2.27007e-06
2.2637e-06
2.25742e-06
2.25123e-06
2.24514e-06
2.23914e-06
2.23323e-06
2.22741e-06
2.22167e-06
2.21602e-06
2.21045e-06
2.20497e-06
2.19956e-06
2.19424e-06
2.18899e-06
2.18382e-06
2.17872e-06
2.17369e-06
2.16874e-06
2.16386e-06
2.15904e-06
2.1543e-06
2.14962e-06
2.145e-06
2.14045e-06
2.13595e-06
2.13152e-06
2.12714e-06
2.12282e-06
2.11855e-06
2.11433e-06
2.11017e-06
2.10605e-06
2.10198e-06
2.09795e-06
2.09396e-06
2.09001e-06
2.0861e-06
2.08223e-06
2.07839e-06
2.07458e-06
2.0708e-06
2.06705e-06
2.06332e-06
2.05961e-06
2.05592e-06
2.05225e-06
2.04859e-06
2.04494e-06
2.04129e-06
2.03765e-06
2.03402e-06
2.03037e-06
2.02673e-06
2.02307e-06
2.01939e-06
2.0157e-06
2.01198e-06
2.00824e-06
2.00446e-06
2.00064e-06
1.99677e-06
1.99286e-06
1.98889e-06
1.98486e-06
1.98076e-06
1.97661e-06
1.97241e-06
1.96819e-06
1.964e-06
1.95997e-06
1.95638e-06
1.95382e-06
)
;

boundaryField
{
    boundary
    {
        type            empty;
    }
    inlet
    {
        type            fixedValue;
        value           uniform 0;
    }
    outlet
    {
        type            zeroGradient;
    }
}


// ************************************************************************* //
