/*--------------------------------*- C++ -*----------------------------------*\
  =========                 |
  \\      /  F ield         | OpenFOAM: The Open Source CFD Toolbox
   \\    /   O peration     | Website:  https://openfoam.org
    \\  /    A nd           | Version:  7
     \\/     M anipulation  |
\*---------------------------------------------------------------------------*/
FoamFile
{
    version     2.0;
    format      ascii;
    class       volScalarField;
    location    "0.00084";
    object      O;
}
// * * * * * * * * * * * * * * * * * * * * * * * * * * * * * * * * * * * * * //

dimensions      [0 0 0 0 0 0 0];

internalField   nonuniform List<scalar> 
500
(
1.57746e-47
3.76364e-47
5.96177e-47
8.16005e-47
1.03553e-46
1.25459e-46
1.47307e-46
1.69087e-46
1.90788e-46
2.12405e-46
2.33933e-46
2.55372e-46
2.76728e-46
2.98009e-46
3.1923e-46
3.40408e-46
3.61564e-46
3.82722e-46
4.03906e-46
4.2514e-46
4.46449e-46
4.67855e-46
4.8938e-46
5.11043e-46
5.32861e-46
5.54853e-46
5.77035e-46
5.99428e-46
6.22052e-46
6.44933e-46
6.68102e-46
6.91596e-46
7.15458e-46
7.39738e-46
7.64495e-46
7.89796e-46
8.15714e-46
8.42327e-46
8.69721e-46
8.97983e-46
9.27201e-46
9.57463e-46
9.88851e-46
1.02144e-45
1.0553e-45
1.09048e-45
1.127e-45
1.1649e-45
1.20414e-45
1.2447e-45
1.28652e-45
1.32949e-45
1.3735e-45
1.41839e-45
1.46399e-45
1.51009e-45
1.55646e-45
1.60286e-45
1.64904e-45
1.69473e-45
1.73967e-45
1.7836e-45
1.82628e-45
1.86747e-45
1.90697e-45
1.94459e-45
1.98018e-45
2.01363e-45
2.04484e-45
2.07377e-45
2.10039e-45
2.12472e-45
2.14679e-45
2.16669e-45
2.18449e-45
2.2003e-45
2.21426e-45
2.22648e-45
2.23712e-45
2.24631e-45
2.2542e-45
2.26092e-45
2.26661e-45
2.27139e-45
2.27539e-45
2.2787e-45
2.28144e-45
2.28367e-45
2.28549e-45
2.28696e-45
2.28815e-45
2.28909e-45
2.28984e-45
2.29044e-45
2.29091e-45
2.29127e-45
2.29156e-45
2.29178e-45
2.29196e-45
2.2921e-45
2.2922e-45
2.29229e-45
2.29236e-45
2.29242e-45
2.29247e-45
2.29251e-45
2.29255e-45
2.29258e-45
2.29262e-45
2.29265e-45
2.29269e-45
2.29272e-45
2.29275e-45
2.29279e-45
2.29283e-45
2.29287e-45
2.29291e-45
2.29295e-45
2.29299e-45
2.29302e-45
2.29305e-45
2.29302e-45
2.29284e-45
2.29225e-45
2.29043e-45
2.28779e-45
2.28786e-45
2.28793e-45
2.288e-45
2.28808e-45
2.28817e-45
2.28826e-45
2.28835e-45
2.28845e-45
2.28855e-45
2.28866e-45
2.28878e-45
2.2889e-45
2.28903e-45
2.28916e-45
2.28931e-45
2.28946e-45
2.28963e-45
2.28981e-45
2.29002e-45
2.29024e-45
2.29049e-45
2.29076e-45
2.29105e-45
2.29137e-45
2.29171e-45
2.29207e-45
2.29245e-45
2.29284e-45
2.29325e-45
2.29365e-45
2.29406e-45
2.29447e-45
2.29486e-45
2.29524e-45
2.29561e-45
2.29595e-45
2.29628e-45
2.29659e-45
2.29688e-45
2.29714e-45
2.29739e-45
2.29762e-45
2.29784e-45
2.29804e-45
2.29823e-45
2.29842e-45
2.2986e-45
2.29877e-45
2.29895e-45
2.29912e-45
2.2993e-45
2.29948e-45
2.29966e-45
2.29985e-45
2.30005e-45
2.30025e-45
2.30045e-45
2.30066e-45
2.30087e-45
2.30109e-45
2.30131e-45
2.30154e-45
2.30176e-45
2.302e-45
2.30228e-45
2.30269e-45
2.30361e-45
2.30635e-45
2.31554e-45
2.34758e-45
2.46006e-45
2.85395e-45
4.22711e-45
8.98958e-45
2.54202e-44
8.18077e-44
2.74312e-43
9.28118e-43
3.13735e-42
1.05649e-41
3.54135e-41
1.1814e-40
3.92247e-40
1.29625e-39
4.26416e-39
1.39649e-38
4.55365e-38
1.47861e-37
4.78169e-37
1.54031e-36
4.94306e-36
1.58058e-35
5.03665e-35
1.59972e-34
5.06519e-34
1.5991e-33
5.03453e-33
1.58097e-32
4.95272e-32
1.54809e-31
4.82899e-31
1.50347e-30
4.67291e-30
1.4501e-29
4.49357e-29
1.39069e-28
4.29908e-28
1.32763e-27
4.0962e-27
1.2628e-26
3.89022e-26
1.19765e-25
3.68493e-25
1.13316e-24
3.48277e-24
1.0699e-23
3.28508e-23
1.00817e-22
3.09242e-22
9.48062e-22
2.90496e-21
8.89614e-21
2.72281e-20
8.3289e-20
2.54635e-19
7.81561e-19
2.39359e-18
7.31362e-18
2.23267e-17
6.81315e-17
2.07876e-16
6.3425e-16
1.93537e-15
5.90689e-15
1.80334e-14
5.50743e-14
1.68264e-13
5.14297e-13
1.57262e-12
4.81078e-12
1.47225e-11
4.50723e-11
1.38033e-10
4.2287e-10
1.29638e-09
3.98425e-09
1.23758e-08
4.01083e-08
1.49643e-07
7.58196e-07
5.15228e-06
3.20757e-05
0.000147271
0.000539561
0.0014237
0.002715
0.00405867
0.00514362
0.00587012
0.00627828
0.00643048
0.00644029
0.00636442
0.00623987
0.00609
0.00592907
0.0057655
0.0056041
0.00544751
0.00529707
0.00515335
0.00501648
0.00488633
0.00476265
0.0046451
0.00453333
0.00442699
0.00432572
0.0042292
0.00413712
0.00404919
0.00396514
0.00388474
0.00380776
0.00373401
0.00366334
0.00359766
0.00353558
0.00347555
0.00341747
0.00336122
0.00330672
0.00325388
0.00320263
0.00315289
0.0031046
0.00305769
0.0030121
0.00296778
0.00292466
0.00288272
0.00284189
0.00280213
0.0027634
0.00272566
0.00268887
0.002653
0.00261802
0.00258388
0.00255057
0.00251804
0.00248629
0.00245527
0.00242496
0.00239534
0.00236639
0.00233808
0.0023104
0.00228332
0.00225683
0.0022309
0.00220551
0.00218066
0.00215633
0.00213249
0.00210913
0.00208624
0.00206381
0.00204182
0.00202025
0.0019991
0.00197835
0.00195798
0.001938
0.00191838
0.00189912
0.00188021
0.00186163
0.00184338
0.00182544
0.00180782
0.00179049
0.00177346
0.00175671
0.00174024
0.00172404
0.00170811
0.00169244
0.00167705
0.00166191
0.001647
0.00163223
0.00161769
0.00160337
0.00158926
0.00157536
0.00156167
0.00154818
0.00153489
0.0015218
0.00150889
0.00149617
0.00148363
0.00147127
0.00145909
0.00144708
0.00143524
0.00142357
0.00141205
0.0014007
0.00138951
0.00137847
0.00136758
0.00135684
0.00134625
0.0013358
0.00132549
0.00131532
0.00130528
0.00129538
0.00128561
0.00127596
0.00126644
0.00125705
0.00124777
0.00123861
0.00122957
0.00122065
0.00121183
0.00120313
0.00119453
0.00118604
0.00117766
0.00116938
0.0011612
0.00115312
0.00114513
0.00113725
0.00112946
0.00112176
0.00111415
0.00110663
0.00109921
0.00109186
0.00108461
0.00107744
0.00107036
0.00106336
0.00105644
0.0010496
0.00104283
0.00103615
0.00102955
0.00102302
0.00101656
0.00101018
0.00100387
0.000997637
0.000991472
0.000985377
0.00097935
0.000973391
0.000967499
0.000961672
0.00095591
0.000950212
0.000944577
0.000939003
0.00093349
0.000928036
0.000922642
0.000917305
0.000912024
0.000906799
0.000901629
0.000896513
0.000891449
0.000886438
0.000881476
0.000876565
0.000871702
0.000866887
0.000862119
0.000857397
0.00085272
0.000848086
0.000843496
0.000838947
0.000834439
0.000829971
0.000825542
0.00082115
0.000816795
0.000812476
0.000808191
0.000803939
0.00079972
0.000795532
0.000791374
0.000787245
0.000783144
0.000779072
0.000775028
0.000771013
0.00076703
0.000763082
0.000759178
0.000755332
0.000751567
0.000747924
0.000744471
0.000741331
0.000738718
0.000737032
)
;

boundaryField
{
    boundary
    {
        type            empty;
    }
    inlet
    {
        type            fixedValue;
        value           uniform 0;
    }
    outlet
    {
        type            zeroGradient;
    }
}


// ************************************************************************* //
