/*--------------------------------*- C++ -*----------------------------------*\
  =========                 |
  \\      /  F ield         | OpenFOAM: The Open Source CFD Toolbox
   \\    /   O peration     | Website:  https://openfoam.org
    \\  /    A nd           | Version:  7
     \\/     M anipulation  |
\*---------------------------------------------------------------------------*/
FoamFile
{
    version     2.0;
    format      ascii;
    class       volScalarField;
    location    "0.00084";
    object      OH;
}
// * * * * * * * * * * * * * * * * * * * * * * * * * * * * * * * * * * * * * //

dimensions      [0 0 0 0 0 0 0];

internalField   nonuniform List<scalar> 
500
(
9.3848e-48
1.8291e-47
2.43815e-47
2.85063e-47
3.12936e-47
3.31774e-47
3.44513e-47
3.53127e-47
3.58942e-47
3.62848e-47
3.65447e-47
3.67145e-47
3.68222e-47
3.6887e-47
3.69227e-47
3.6939e-47
3.69435e-47
3.69417e-47
3.69379e-47
3.69357e-47
3.69378e-47
3.69462e-47
3.69627e-47
3.69884e-47
3.70242e-47
3.70706e-47
3.71281e-47
3.71969e-47
3.72774e-47
3.73699e-47
3.74747e-47
3.75927e-47
3.77245e-47
3.78715e-47
3.80349e-47
3.82165e-47
3.84182e-47
3.86423e-47
3.88911e-47
3.91675e-47
3.9474e-47
3.98136e-47
4.0189e-47
4.06031e-47
4.10583e-47
4.1557e-47
4.21012e-47
4.26925e-47
4.33319e-47
4.40199e-47
4.47562e-47
4.55399e-47
4.63692e-47
4.72416e-47
4.81535e-47
4.91008e-47
5.00783e-47
5.10802e-47
5.21002e-47
5.31312e-47
5.4166e-47
5.5197e-47
5.62166e-47
5.72173e-47
5.81922e-47
5.91345e-47
6.00384e-47
6.08988e-47
6.17113e-47
6.24726e-47
6.31805e-47
6.38336e-47
6.44315e-47
6.49747e-47
6.54644e-47
6.59025e-47
6.62916e-47
6.66346e-47
6.69347e-47
6.71954e-47
6.74203e-47
6.76129e-47
6.77767e-47
6.79151e-47
6.80311e-47
6.81279e-47
6.8208e-47
6.82739e-47
6.83278e-47
6.83715e-47
6.84069e-47
6.84353e-47
6.8458e-47
6.8476e-47
6.84903e-47
6.85016e-47
6.85104e-47
6.85174e-47
6.85229e-47
6.85272e-47
6.85307e-47
6.85334e-47
6.85357e-47
6.85376e-47
6.85392e-47
6.85406e-47
6.85419e-47
6.8543e-47
6.85442e-47
6.85453e-47
6.85464e-47
6.85475e-47
6.85486e-47
6.85497e-47
6.85509e-47
6.85522e-47
6.85534e-47
6.85548e-47
6.85562e-47
6.85576e-47
6.85591e-47
6.85605e-47
6.85616e-47
6.85619e-47
6.85594e-47
6.85551e-47
6.85573e-47
6.85598e-47
6.85626e-47
6.85658e-47
6.85693e-47
6.85732e-47
6.85774e-47
6.85817e-47
6.85862e-47
6.85907e-47
6.85951e-47
6.85993e-47
6.86033e-47
6.86071e-47
6.86106e-47
6.86137e-47
6.86167e-47
6.86194e-47
6.86219e-47
6.86243e-47
6.86267e-47
6.86291e-47
6.86317e-47
6.86344e-47
6.86374e-47
6.86406e-47
6.86441e-47
6.86478e-47
6.86518e-47
6.86561e-47
6.86606e-47
6.86653e-47
6.86701e-47
6.86751e-47
6.86801e-47
6.86853e-47
6.86905e-47
6.86957e-47
6.87009e-47
6.87062e-47
6.87115e-47
6.87168e-47
6.87221e-47
6.87274e-47
6.87327e-47
6.87381e-47
6.87435e-47
6.8749e-47
6.87545e-47
6.876e-47
6.87656e-47
6.87713e-47
6.8777e-47
6.87827e-47
6.87885e-47
6.87944e-47
6.88002e-47
6.88061e-47
6.8812e-47
6.88179e-47
6.88238e-47
6.88296e-47
6.88354e-47
6.88412e-47
6.88469e-47
6.88528e-47
6.88594e-47
6.88691e-47
6.889e-47
6.89508e-47
6.91524e-47
6.98476e-47
7.2261e-47
8.06234e-47
1.09472e-46
2.08496e-46
5.46641e-46
1.69538e-45
5.57797e-45
1.86347e-44
6.23259e-44
2.07818e-43
6.90002e-43
2.2806e-42
7.50372e-42
2.45792e-41
8.01632e-41
2.60346e-40
8.4209e-40
2.71306e-39
8.70801e-39
2.78489e-38
8.87557e-38
2.8194e-37
8.92825e-37
2.81902e-36
8.87627e-36
2.78766e-35
8.7338e-35
2.73021e-34
8.51718e-34
2.65201e-33
8.24342e-33
2.55837e-32
7.92886e-32
2.45425e-31
7.58842e-31
2.3441e-30
7.23528e-30
2.23183e-29
6.88125e-29
2.1211e-28
6.53809e-28
2.01593e-27
6.22055e-27
1.9221e-26
5.95251e-26
1.84989e-25
5.77951e-25
1.81977e-24
5.7942e-24
1.87387e-23
6.18861e-23
2.09975e-22
7.36209e-22
2.69377e-21
1.02229e-20
4.02471e-20
1.64008e-19
6.88236e-19
2.95648e-18
1.29282e-17
5.72748e-17
2.56115e-16
1.15277e-15
5.21212e-15
2.36389e-14
1.07436e-13
4.88969e-13
2.2275e-12
1.01535e-11
4.62983e-11
2.11496e-10
9.79228e-10
4.5744e-09
2.1519e-08
1.02748e-07
5.15661e-07
2.93802e-06
1.96694e-05
0.000124779
0.000449442
0.000751147
0.000905088
0.00118321
0.0018366
0.00292153
0.00426707
0.00563302
0.00701559
0.00804304
0.00885558
0.00949038
0.00998498
0.0103723
0.0106781
0.0109218
0.0111176
0.0112759
0.0114044
0.011509
0.0115939
0.0116625
0.0117175
0.011761
0.0117948
0.0118201
0.0118383
0.0118501
0.0118566
0.0118582
0.0118557
0.0118496
0.0118402
0.011828
0.0118133
0.0117969
0.0117792
0.01176
0.0117393
0.0117173
0.0116941
0.0116699
0.0116447
0.0116187
0.0115918
0.0115643
0.0115361
0.0115074
0.0114781
0.0114484
0.0114183
0.0113878
0.0113571
0.011326
0.0112948
0.0112633
0.0112317
0.0111999
0.011168
0.011136
0.011104
0.0110719
0.0110398
0.0110077
0.0109756
0.0109435
0.0109114
0.0108794
0.0108475
0.0108156
0.0107838
0.0107522
0.0107206
0.0106891
0.0106577
0.0106264
0.0105953
0.0105642
0.0105333
0.0105026
0.0104719
0.0104414
0.010411
0.0103808
0.0103506
0.0103207
0.0102908
0.0102611
0.0102315
0.010202
0.0101727
0.0101435
0.0101144
0.0100855
0.0100567
0.010028
0.00999948
0.0099711
0.00994289
0.00991476
0.0098866
0.00985858
0.00983068
0.00980292
0.00977528
0.00974778
0.00972041
0.00969317
0.00966606
0.00963909
0.00961226
0.00958556
0.009559
0.00953258
0.0095063
0.00948016
0.00945416
0.0094283
0.00940259
0.00937702
0.00935159
0.00932631
0.00930117
0.00927617
0.00925132
0.0092266
0.00920203
0.0091776
0.00915331
0.00912917
0.00910516
0.00908128
0.00905755
0.00903395
0.00901049
0.00898716
0.00896397
0.00894091
0.00891798
0.00889518
0.00887251
0.00884997
0.00882756
0.00880528
0.00878313
0.0087611
0.0087392
0.00871743
0.00869578
0.00867426
0.00865286
0.00863158
0.00861044
0.00858941
0.00856851
0.00854773
0.00852708
0.00850655
0.00848615
0.00846587
0.00844571
0.00842567
0.00840576
0.00838597
0.0083663
0.00834676
0.00832733
0.00830803
0.00828885
0.00826978
0.00825084
0.00823201
0.00821331
0.00819471
0.00817624
0.00815787
0.00813963
0.00812149
0.00810346
0.00808554
0.00806773
0.00805003
0.00803244
0.00801494
0.00799755
0.00798025
0.00796306
0.00794596
0.00792895
0.00791204
0.00789521
0.00787848
0.00786183
0.00784526
0.00782878
0.00781238
0.00779605
0.00777979
0.00776361
0.00774749
0.00773144
0.00771545
0.00769952
0.00768364
0.00766781
0.00765203
0.00763629
0.00762059
0.00760493
0.0075893
0.0075737
0.00755813
0.0075426
0.00752712
0.00751172
0.00749642
0.00748129
0.00746645
0.00745207
0.00743846
0.00742613
0.00741594
0.00740939
)
;

boundaryField
{
    boundary
    {
        type            empty;
    }
    inlet
    {
        type            fixedValue;
        value           uniform 0;
    }
    outlet
    {
        type            zeroGradient;
    }
}


// ************************************************************************* //
