/*--------------------------------*- C++ -*----------------------------------*\
  =========                 |
  \\      /  F ield         | OpenFOAM: The Open Source CFD Toolbox
   \\    /   O peration     | Website:  https://openfoam.org
    \\  /    A nd           | Version:  7
     \\/     M anipulation  |
\*---------------------------------------------------------------------------*/
FoamFile
{
    version     2.0;
    format      ascii;
    class       surfaceScalarField;
    location    "0.00084";
    object      phi;
}
// * * * * * * * * * * * * * * * * * * * * * * * * * * * * * * * * * * * * * //

dimensions      [1 0 -1 0 0 0 0];

internalField   nonuniform List<scalar> 
499
(
6.93036e-06
6.93029e-06
6.93023e-06
6.93017e-06
6.93011e-06
6.93006e-06
6.93001e-06
6.92997e-06
6.92995e-06
6.92993e-06
6.92993e-06
6.92994e-06
6.92997e-06
6.93e-06
6.93004e-06
6.93009e-06
6.93014e-06
6.9302e-06
6.93024e-06
6.93029e-06
6.93032e-06
6.93034e-06
6.93034e-06
6.93033e-06
6.93031e-06
6.93026e-06
6.9302e-06
6.93011e-06
6.93001e-06
6.92989e-06
6.92975e-06
6.92959e-06
6.9294e-06
6.9292e-06
6.92897e-06
6.92871e-06
6.92843e-06
6.92811e-06
6.92775e-06
6.92736e-06
6.92693e-06
6.92645e-06
6.92592e-06
6.92534e-06
6.9247e-06
6.92401e-06
6.92326e-06
6.92245e-06
6.92158e-06
6.92066e-06
6.91968e-06
6.91864e-06
6.91756e-06
6.91643e-06
6.91527e-06
6.91408e-06
6.91286e-06
6.91163e-06
6.91039e-06
6.90916e-06
6.90793e-06
6.90673e-06
6.90555e-06
6.9044e-06
6.9033e-06
6.90224e-06
6.90123e-06
6.90028e-06
6.89939e-06
6.89855e-06
6.89777e-06
6.89706e-06
6.8964e-06
6.89581e-06
6.89526e-06
6.89478e-06
6.89434e-06
6.89394e-06
6.8936e-06
6.89329e-06
6.89301e-06
6.89277e-06
6.89255e-06
6.89237e-06
6.8922e-06
6.89205e-06
6.89192e-06
6.8918e-06
6.8917e-06
6.8916e-06
6.89151e-06
6.89143e-06
6.89136e-06
6.89129e-06
6.89122e-06
6.89116e-06
6.8911e-06
6.89104e-06
6.89098e-06
6.89092e-06
6.89087e-06
6.89081e-06
6.89076e-06
6.8907e-06
6.89065e-06
6.89059e-06
6.89054e-06
6.89049e-06
6.89043e-06
6.89038e-06
6.89032e-06
6.89027e-06
6.89021e-06
6.89016e-06
6.89011e-06
6.89005e-06
6.89e-06
6.88994e-06
6.88989e-06
6.88983e-06
6.88978e-06
6.88972e-06
6.88967e-06
6.88961e-06
6.88956e-06
6.8895e-06
6.88945e-06
6.88939e-06
6.88933e-06
6.88928e-06
6.88922e-06
6.88916e-06
6.88911e-06
6.88905e-06
6.88899e-06
6.88893e-06
6.88887e-06
6.88882e-06
6.88876e-06
6.8887e-06
6.88864e-06
6.88859e-06
6.88853e-06
6.88847e-06
6.88842e-06
6.88836e-06
6.8883e-06
6.88825e-06
6.88819e-06
6.88814e-06
6.88808e-06
6.88802e-06
6.88797e-06
6.88791e-06
6.88785e-06
6.88779e-06
6.88774e-06
6.88768e-06
6.88762e-06
6.88756e-06
6.8875e-06
6.88745e-06
6.88739e-06
6.88733e-06
6.88727e-06
6.88721e-06
6.88715e-06
6.88709e-06
6.88703e-06
6.88698e-06
6.88692e-06
6.88686e-06
6.8868e-06
6.88674e-06
6.88668e-06
6.88662e-06
6.88656e-06
6.8865e-06
6.88644e-06
6.88638e-06
6.88632e-06
6.88627e-06
6.88621e-06
6.88615e-06
6.88609e-06
6.88603e-06
6.88597e-06
6.88591e-06
6.88585e-06
6.88579e-06
6.88573e-06
6.88567e-06
6.88561e-06
6.88555e-06
6.8855e-06
6.88544e-06
6.88538e-06
6.88532e-06
6.88526e-06
6.8852e-06
6.88515e-06
6.88509e-06
6.88503e-06
6.88498e-06
6.88492e-06
6.88486e-06
6.88481e-06
6.88475e-06
6.8847e-06
6.88464e-06
6.88459e-06
6.88454e-06
6.88448e-06
6.88443e-06
6.88438e-06
6.88433e-06
6.88427e-06
6.88422e-06
6.88417e-06
6.88412e-06
6.88408e-06
6.88403e-06
6.88398e-06
6.88393e-06
6.88389e-06
6.88384e-06
6.8838e-06
6.88375e-06
6.88371e-06
6.88367e-06
6.88363e-06
6.88359e-06
6.88355e-06
6.88351e-06
6.88347e-06
6.88343e-06
6.8834e-06
6.88336e-06
6.88333e-06
6.8833e-06
6.88327e-06
6.88324e-06
6.88321e-06
6.88318e-06
6.88315e-06
6.88313e-06
6.8831e-06
6.88308e-06
6.88306e-06
6.88304e-06
6.88302e-06
6.883e-06
6.88298e-06
6.88297e-06
6.88295e-06
6.88294e-06
6.88293e-06
6.88292e-06
6.8829e-06
6.8829e-06
6.88289e-06
6.88288e-06
6.88287e-06
6.88287e-06
6.88287e-06
6.88286e-06
6.88287e-06
6.88287e-06
6.88291e-06
6.88301e-06
6.88332e-06
6.88429e-06
6.88715e-06
6.89539e-06
6.91721e-06
6.9637e-06
7.02875e-06
7.0861e-06
7.12482e-06
7.15001e-06
7.16734e-06
7.17975e-06
7.18862e-06
7.19497e-06
7.19953e-06
7.20288e-06
7.20543e-06
7.20745e-06
7.20909e-06
7.21046e-06
7.21162e-06
7.21262e-06
7.21349e-06
7.21426e-06
7.21495e-06
7.21556e-06
7.21612e-06
7.21663e-06
7.21709e-06
7.21751e-06
7.2179e-06
7.21827e-06
7.2186e-06
7.21891e-06
7.21921e-06
7.21948e-06
7.21974e-06
7.21998e-06
7.22021e-06
7.22042e-06
7.22063e-06
7.22083e-06
7.221e-06
7.22117e-06
7.22133e-06
7.22149e-06
7.22164e-06
7.22179e-06
7.22193e-06
7.22207e-06
7.2222e-06
7.22233e-06
7.22246e-06
7.22258e-06
7.2227e-06
7.22282e-06
7.22293e-06
7.22304e-06
7.22315e-06
7.22326e-06
7.22337e-06
7.22347e-06
7.22357e-06
7.22367e-06
7.22376e-06
7.22386e-06
7.22395e-06
7.22404e-06
7.22413e-06
7.22421e-06
7.22429e-06
7.22437e-06
7.22445e-06
7.22453e-06
7.2246e-06
7.22467e-06
7.22474e-06
7.2248e-06
7.22487e-06
7.22493e-06
7.22499e-06
7.22504e-06
7.2251e-06
7.22515e-06
7.2252e-06
7.22525e-06
7.2253e-06
7.22535e-06
7.22539e-06
7.22544e-06
7.22548e-06
7.22552e-06
7.22556e-06
7.22561e-06
7.22565e-06
7.22569e-06
7.22573e-06
7.22577e-06
7.22581e-06
7.22585e-06
7.22589e-06
7.22594e-06
7.22598e-06
7.22602e-06
7.22606e-06
7.22611e-06
7.22615e-06
7.2262e-06
7.22625e-06
7.22629e-06
7.22634e-06
7.22638e-06
7.22643e-06
7.22647e-06
7.22652e-06
7.22656e-06
7.22661e-06
7.22665e-06
7.22669e-06
7.22674e-06
7.22678e-06
7.22682e-06
7.22686e-06
7.2269e-06
7.22693e-06
7.22697e-06
7.22701e-06
7.22704e-06
7.22708e-06
7.22711e-06
7.22714e-06
7.22717e-06
7.2272e-06
7.22723e-06
7.22726e-06
7.22728e-06
7.22731e-06
7.22733e-06
7.22736e-06
7.22738e-06
7.2274e-06
7.22742e-06
7.22744e-06
7.22746e-06
7.22748e-06
7.2275e-06
7.22751e-06
7.22753e-06
7.22755e-06
7.22756e-06
7.22757e-06
7.22759e-06
7.2276e-06
7.22761e-06
7.22762e-06
7.22763e-06
7.22764e-06
7.22765e-06
7.22766e-06
7.22767e-06
7.22767e-06
7.22768e-06
7.22768e-06
7.22769e-06
7.22769e-06
7.22769e-06
7.22769e-06
7.22769e-06
7.22769e-06
7.22768e-06
7.22768e-06
7.22767e-06
7.22766e-06
7.22765e-06
7.22764e-06
7.22763e-06
7.22762e-06
7.2276e-06
7.22758e-06
7.22756e-06
7.22754e-06
7.22752e-06
7.2275e-06
7.22747e-06
7.22744e-06
7.22742e-06
7.22738e-06
7.22735e-06
7.22732e-06
7.22728e-06
7.22724e-06
7.2272e-06
7.22716e-06
7.22712e-06
7.22707e-06
7.22702e-06
7.22697e-06
7.22692e-06
7.22687e-06
7.22681e-06
7.22676e-06
7.2267e-06
7.22663e-06
7.22657e-06
7.2265e-06
7.22643e-06
7.22636e-06
7.22629e-06
7.22621e-06
7.22613e-06
7.22605e-06
7.22596e-06
7.22588e-06
7.22579e-06
7.2257e-06
7.22561e-06
7.22551e-06
7.22542e-06
7.22532e-06
7.22522e-06
7.22513e-06
7.22503e-06
7.22493e-06
7.22484e-06
7.22474e-06
7.22465e-06
7.22457e-06
7.22448e-06
7.2244e-06
)
;

boundaryField
{
    boundary
    {
        type            empty;
        value           nonuniform 0();
    }
    inlet
    {
        type            calculated;
        value           uniform -6.93042e-06;
    }
    outlet
    {
        type            calculated;
        value           uniform 7.22432e-06;
    }
}


// ************************************************************************* //
