/*--------------------------------*- C++ -*----------------------------------*\
  =========                 |
  \\      /  F ield         | OpenFOAM: The Open Source CFD Toolbox
   \\    /   O peration     | Website:  https://openfoam.org
    \\  /    A nd           | Version:  7
     \\/     M anipulation  |
\*---------------------------------------------------------------------------*/
FoamFile
{
    version     2.0;
    format      ascii;
    class       volScalarField;
    location    "0.00084";
    object      rho;
}
// * * * * * * * * * * * * * * * * * * * * * * * * * * * * * * * * * * * * * //

dimensions      [1 -3 0 0 0 0 0];

internalField   nonuniform List<scalar> 
500
(
0.864707
0.864705
0.864702
0.8647
0.864699
0.864698
0.864698
0.8647
0.864703
0.864707
0.864713
0.864721
0.86473
0.86474
0.864751
0.864763
0.864775
0.864786
0.864797
0.864807
0.864815
0.864822
0.864827
0.86483
0.864831
0.864829
0.864825
0.864819
0.86481
0.864799
0.864785
0.864769
0.86475
0.864728
0.864703
0.864674
0.864642
0.864605
0.864563
0.864517
0.864465
0.864407
0.864343
0.864272
0.864194
0.864109
0.864017
0.863917
0.86381
0.863697
0.863576
0.86345
0.863317
0.86318
0.863039
0.862895
0.862748
0.8626
0.862453
0.862306
0.86216
0.862018
0.86188
0.861746
0.861618
0.861496
0.861381
0.861272
0.861171
0.861077
0.860991
0.860913
0.860841
0.860777
0.860719
0.860668
0.860623
0.860583
0.860549
0.860519
0.860493
0.860471
0.860453
0.860437
0.860424
0.860413
0.860404
0.860396
0.86039
0.860385
0.860381
0.860378
0.860375
0.860373
0.860372
0.860371
0.86037
0.860369
0.860368
0.860368
0.860367
0.860367
0.860367
0.860366
0.860366
0.860366
0.860366
0.860366
0.860366
0.860366
0.860365
0.860365
0.860365
0.860365
0.860365
0.860365
0.860365
0.860364
0.860364
0.860364
0.860364
0.860364
0.860364
0.860363
0.860363
0.860363
0.860363
0.860363
0.860362
0.860362
0.860362
0.860361
0.860361
0.86036
0.86036
0.860359
0.860359
0.860358
0.860358
0.860357
0.860357
0.860357
0.860356
0.860356
0.860356
0.860356
0.860355
0.860355
0.860355
0.860355
0.860354
0.860354
0.860354
0.860353
0.860353
0.860353
0.860352
0.860352
0.860351
0.860351
0.86035
0.86035
0.860349
0.860348
0.860348
0.860347
0.860347
0.860346
0.860346
0.860345
0.860344
0.860344
0.860343
0.860343
0.860342
0.860341
0.860341
0.86034
0.860339
0.860339
0.860338
0.860338
0.860337
0.860336
0.860336
0.860335
0.860334
0.860334
0.860333
0.860332
0.860332
0.860331
0.860331
0.86033
0.860329
0.860329
0.860328
0.860328
0.860327
0.860327
0.860327
0.860326
0.860326
0.860325
0.860325
0.860325
0.860325
0.860325
0.860325
0.860324
0.860324
0.860325
0.860325
0.860325
0.860325
0.860325
0.860326
0.860326
0.860327
0.860327
0.860328
0.860329
0.860329
0.86033
0.860331
0.860332
0.860334
0.860335
0.860336
0.860338
0.860339
0.860341
0.860343
0.860345
0.860347
0.860349
0.860352
0.860354
0.860357
0.860359
0.860362
0.860365
0.860368
0.860372
0.860375
0.860379
0.860382
0.860386
0.86039
0.860395
0.860399
0.860404
0.860409
0.860414
0.860419
0.860424
0.860429
0.860434
0.860439
0.860445
0.860451
0.860457
0.860463
0.86047
0.860477
0.860484
0.86049
0.860489
0.860462
0.860348
0.85996
0.858735
0.855026
0.844174
0.814239
0.743174
0.621292
0.487948
0.386832
0.32074
0.27674
0.245843
0.223813
0.208441
0.197036
0.18815
0.181728
0.176957
0.173097
0.169913
0.167229
0.164926
0.162921
0.161155
0.159583
0.158172
0.156897
0.155736
0.154675
0.153699
0.152798
0.151963
0.151186
0.15046
0.149782
0.149145
0.148546
0.147981
0.147448
0.146943
0.146466
0.146013
0.145595
0.145204
0.144828
0.144466
0.144118
0.143783
0.14346
0.143148
0.142847
0.142556
0.142275
0.142003
0.141739
0.141484
0.141236
0.140995
0.140762
0.140535
0.140315
0.140101
0.139892
0.139689
0.139492
0.139299
0.139111
0.138928
0.13875
0.138575
0.138405
0.138239
0.138076
0.137917
0.137762
0.13761
0.137462
0.137316
0.137173
0.137034
0.136897
0.136763
0.136632
0.136503
0.136377
0.136253
0.136131
0.136012
0.135895
0.13578
0.135667
0.135556
0.135447
0.13534
0.135235
0.135131
0.135029
0.134929
0.134831
0.134734
0.134639
0.134546
0.134454
0.134364
0.134275
0.134188
0.134102
0.134017
0.133933
0.13385
0.133769
0.133689
0.13361
0.133532
0.133455
0.133379
0.133305
0.133231
0.133158
0.133087
0.133016
0.132946
0.132877
0.132809
0.132742
0.132676
0.132611
0.132546
0.132483
0.13242
0.132357
0.132296
0.132235
0.132175
0.132116
0.132058
0.132
0.131942
0.131886
0.13183
0.131775
0.13172
0.131666
0.131613
0.13156
0.131508
0.131456
0.131405
0.131355
0.131305
0.131255
0.131207
0.131158
0.13111
0.131063
0.131016
0.13097
0.130924
0.130878
0.130833
0.130789
0.130745
0.130701
0.130658
0.130615
0.130573
0.130531
0.130489
0.130448
0.130407
0.130367
0.130327
0.130287
0.130248
0.130209
0.13017
0.130132
0.130094
0.130056
0.130019
0.129982
0.129945
0.129909
0.129873
0.129837
0.129802
0.129766
0.129731
0.129697
0.129662
0.129628
0.129595
0.129561
0.129528
0.129495
0.129462
0.129429
0.129397
0.129365
0.129333
0.129302
0.12927
0.129239
0.129208
0.129177
0.129147
0.129117
0.129087
0.129057
0.129027
0.128997
0.128968
0.128939
0.12891
0.128881
0.128852
0.128824
0.128796
0.128768
0.12874
0.128712
0.128684
0.128657
0.128629
0.128602
0.128575
0.128549
0.128523
0.128501
0.128486
)
;

boundaryField
{
    boundary
    {
        type            empty;
    }
    inlet
    {
        type            calculated;
        value           uniform 0.864709;
    }
    outlet
    {
        type            calculated;
        value           uniform 0.128486;
    }
}


// ************************************************************************* //
