/*--------------------------------*- C++ -*----------------------------------*\
  =========                 |
  \\      /  F ield         | OpenFOAM: The Open Source CFD Toolbox
   \\    /   O peration     | Website:  https://openfoam.org
    \\  /    A nd           | Version:  7
     \\/     M anipulation  |
\*---------------------------------------------------------------------------*/
FoamFile
{
    version     2.0;
    format      ascii;
    class       volVectorField;
    location    "0.00084";
    object      U;
}
// * * * * * * * * * * * * * * * * * * * * * * * * * * * * * * * * * * * * * //

dimensions      [0 1 -1 0 0 0 0];

internalField   nonuniform List<vector> 
500
(
(2.34893 0 0)
(2.34892 0 0)
(2.3489 0 0)
(2.34888 0 0)
(2.34887 0 0)
(2.34885 0 0)
(2.34883 0 0)
(2.34881 0 0)
(2.34879 0 0)
(2.34877 0 0)
(2.34875 0 0)
(2.34874 0 0)
(2.34872 0 0)
(2.3487 0 0)
(2.34868 0 0)
(2.34867 0 0)
(2.34865 0 0)
(2.34864 0 0)
(2.34863 0 0)
(2.34862 0 0)
(2.34861 0 0)
(2.3486 0 0)
(2.34859 0 0)
(2.34858 0 0)
(2.34857 0 0)
(2.34856 0 0)
(2.34855 0 0)
(2.34855 0 0)
(2.34854 0 0)
(2.34853 0 0)
(2.34852 0 0)
(2.34852 0 0)
(2.34851 0 0)
(2.3485 0 0)
(2.3485 0 0)
(2.34849 0 0)
(2.34849 0 0)
(2.34849 0 0)
(2.34849 0 0)
(2.34849 0 0)
(2.34849 0 0)
(2.34849 0 0)
(2.3485 0 0)
(2.3485 0 0)
(2.34851 0 0)
(2.34851 0 0)
(2.34852 0 0)
(2.34853 0 0)
(2.34853 0 0)
(2.34854 0 0)
(2.34854 0 0)
(2.34854 0 0)
(2.34854 0 0)
(2.34854 0 0)
(2.34853 0 0)
(2.34853 0 0)
(2.34851 0 0)
(2.3485 0 0)
(2.34848 0 0)
(2.34846 0 0)
(2.34844 0 0)
(2.34841 0 0)
(2.34838 0 0)
(2.34835 0 0)
(2.34832 0 0)
(2.34828 0 0)
(2.34825 0 0)
(2.34821 0 0)
(2.34817 0 0)
(2.34813 0 0)
(2.34809 0 0)
(2.34805 0 0)
(2.34801 0 0)
(2.34798 0 0)
(2.34794 0 0)
(2.3479 0 0)
(2.34787 0 0)
(2.34784 0 0)
(2.3478 0 0)
(2.34777 0 0)
(2.34774 0 0)
(2.34772 0 0)
(2.34769 0 0)
(2.34766 0 0)
(2.34764 0 0)
(2.34762 0 0)
(2.34759 0 0)
(2.34757 0 0)
(2.34755 0 0)
(2.34753 0 0)
(2.34751 0 0)
(2.34749 0 0)
(2.34747 0 0)
(2.34745 0 0)
(2.34743 0 0)
(2.34741 0 0)
(2.3474 0 0)
(2.34738 0 0)
(2.34736 0 0)
(2.34734 0 0)
(2.34732 0 0)
(2.3473 0 0)
(2.34729 0 0)
(2.34727 0 0)
(2.34725 0 0)
(2.34723 0 0)
(2.34721 0 0)
(2.3472 0 0)
(2.34718 0 0)
(2.34716 0 0)
(2.34714 0 0)
(2.34712 0 0)
(2.34711 0 0)
(2.34709 0 0)
(2.34707 0 0)
(2.34705 0 0)
(2.34703 0 0)
(2.34702 0 0)
(2.347 0 0)
(2.34698 0 0)
(2.34696 0 0)
(2.34694 0 0)
(2.34692 0 0)
(2.34691 0 0)
(2.34689 0 0)
(2.34687 0 0)
(2.34685 0 0)
(2.34683 0 0)
(2.34681 0 0)
(2.3468 0 0)
(2.34678 0 0)
(2.34676 0 0)
(2.34674 0 0)
(2.34672 0 0)
(2.3467 0 0)
(2.34669 0 0)
(2.34667 0 0)
(2.34665 0 0)
(2.34663 0 0)
(2.34661 0 0)
(2.34659 0 0)
(2.34657 0 0)
(2.34656 0 0)
(2.34654 0 0)
(2.34652 0 0)
(2.3465 0 0)
(2.34648 0 0)
(2.34646 0 0)
(2.34645 0 0)
(2.34643 0 0)
(2.34641 0 0)
(2.34639 0 0)
(2.34637 0 0)
(2.34635 0 0)
(2.34634 0 0)
(2.34632 0 0)
(2.3463 0 0)
(2.34628 0 0)
(2.34626 0 0)
(2.34624 0 0)
(2.34622 0 0)
(2.34621 0 0)
(2.34619 0 0)
(2.34617 0 0)
(2.34615 0 0)
(2.34613 0 0)
(2.34611 0 0)
(2.3461 0 0)
(2.34608 0 0)
(2.34606 0 0)
(2.34604 0 0)
(2.34602 0 0)
(2.346 0 0)
(2.34598 0 0)
(2.34597 0 0)
(2.34595 0 0)
(2.34593 0 0)
(2.34591 0 0)
(2.34589 0 0)
(2.34587 0 0)
(2.34586 0 0)
(2.34584 0 0)
(2.34582 0 0)
(2.3458 0 0)
(2.34578 0 0)
(2.34576 0 0)
(2.34574 0 0)
(2.34573 0 0)
(2.34571 0 0)
(2.34569 0 0)
(2.34567 0 0)
(2.34565 0 0)
(2.34563 0 0)
(2.34562 0 0)
(2.3456 0 0)
(2.34558 0 0)
(2.34556 0 0)
(2.34554 0 0)
(2.34552 0 0)
(2.3455 0 0)
(2.34549 0 0)
(2.34547 0 0)
(2.34545 0 0)
(2.34543 0 0)
(2.34541 0 0)
(2.34539 0 0)
(2.34538 0 0)
(2.34536 0 0)
(2.34534 0 0)
(2.34532 0 0)
(2.3453 0 0)
(2.34528 0 0)
(2.34526 0 0)
(2.34525 0 0)
(2.34523 0 0)
(2.34521 0 0)
(2.34519 0 0)
(2.34517 0 0)
(2.34515 0 0)
(2.34513 0 0)
(2.34512 0 0)
(2.3451 0 0)
(2.34508 0 0)
(2.34506 0 0)
(2.34504 0 0)
(2.34502 0 0)
(2.345 0 0)
(2.34499 0 0)
(2.34497 0 0)
(2.34495 0 0)
(2.34493 0 0)
(2.34491 0 0)
(2.34489 0 0)
(2.34487 0 0)
(2.34486 0 0)
(2.34484 0 0)
(2.34482 0 0)
(2.3448 0 0)
(2.34478 0 0)
(2.34476 0 0)
(2.34474 0 0)
(2.34473 0 0)
(2.34471 0 0)
(2.34469 0 0)
(2.34467 0 0)
(2.34465 0 0)
(2.34463 0 0)
(2.34461 0 0)
(2.34459 0 0)
(2.34458 0 0)
(2.34456 0 0)
(2.34454 0 0)
(2.34452 0 0)
(2.3445 0 0)
(2.34448 0 0)
(2.34446 0 0)
(2.34444 0 0)
(2.34442 0 0)
(2.34441 0 0)
(2.34439 0 0)
(2.34437 0 0)
(2.34435 0 0)
(2.34433 0 0)
(2.34431 0 0)
(2.34429 0 0)
(2.34427 0 0)
(2.34425 0 0)
(2.34426 0 0)
(2.34436 0 0)
(2.34477 0 0)
(2.34616 0 0)
(2.35053 0 0)
(2.36323 0 0)
(2.39693 0 0)
(2.47924 0 0)
(2.67025 0 0)
(3.07997 0 0)
(3.88584 0 0)
(5.02272 0 0)
(6.26249 0 0)
(7.4277 0 0)
(8.45977 0 0)
(9.34607 0 0)
(10.0839 0 0)
(10.6939 0 0)
(11.2007 0 0)
(11.6111 0 0)
(11.9372 0 0)
(12.205 0 0)
(12.435 0 0)
(12.6367 0 0)
(12.8154 0 0)
(12.975 0 0)
(13.1188 0 0)
(13.2494 0 0)
(13.3688 0 0)
(13.4786 0 0)
(13.5801 0 0)
(13.6742 0 0)
(13.7619 0 0)
(13.8439 0 0)
(13.9207 0 0)
(13.993 0 0)
(14.0611 0 0)
(14.1254 0 0)
(14.1862 0 0)
(14.244 0 0)
(14.2988 0 0)
(14.351 0 0)
(14.4008 0 0)
(14.4481 0 0)
(14.4934 0 0)
(14.5354 0 0)
(14.5748 0 0)
(14.613 0 0)
(14.6499 0 0)
(14.6856 0 0)
(14.7202 0 0)
(14.7536 0 0)
(14.7861 0 0)
(14.8175 0 0)
(14.848 0 0)
(14.8776 0 0)
(14.9064 0 0)
(14.9344 0 0)
(14.9616 0 0)
(14.9881 0 0)
(15.0139 0 0)
(15.039 0 0)
(15.0635 0 0)
(15.0873 0 0)
(15.1106 0 0)
(15.1334 0 0)
(15.1556 0 0)
(15.1772 0 0)
(15.1984 0 0)
(15.2191 0 0)
(15.2394 0 0)
(15.2592 0 0)
(15.2786 0 0)
(15.2975 0 0)
(15.3161 0 0)
(15.3343 0 0)
(15.3521 0 0)
(15.3696 0 0)
(15.3867 0 0)
(15.4035 0 0)
(15.42 0 0)
(15.4361 0 0)
(15.452 0 0)
(15.4676 0 0)
(15.4828 0 0)
(15.4978 0 0)
(15.5126 0 0)
(15.5271 0 0)
(15.5413 0 0)
(15.5553 0 0)
(15.569 0 0)
(15.5825 0 0)
(15.5958 0 0)
(15.6089 0 0)
(15.6218 0 0)
(15.6344 0 0)
(15.6469 0 0)
(15.6592 0 0)
(15.6712 0 0)
(15.6831 0 0)
(15.6948 0 0)
(15.7064 0 0)
(15.7177 0 0)
(15.7289 0 0)
(15.74 0 0)
(15.7508 0 0)
(15.7615 0 0)
(15.772 0 0)
(15.7823 0 0)
(15.7925 0 0)
(15.8027 0 0)
(15.8126 0 0)
(15.8225 0 0)
(15.8322 0 0)
(15.8418 0 0)
(15.8513 0 0)
(15.8607 0 0)
(15.8699 0 0)
(15.879 0 0)
(15.888 0 0)
(15.8969 0 0)
(15.9056 0 0)
(15.9143 0 0)
(15.9228 0 0)
(15.9313 0 0)
(15.9396 0 0)
(15.9479 0 0)
(15.956 0 0)
(15.9641 0 0)
(15.972 0 0)
(15.9799 0 0)
(15.9876 0 0)
(15.9953 0 0)
(16.0029 0 0)
(16.0104 0 0)
(16.0178 0 0)
(16.0251 0 0)
(16.0324 0 0)
(16.0395 0 0)
(16.0466 0 0)
(16.0536 0 0)
(16.0606 0 0)
(16.0674 0 0)
(16.0742 0 0)
(16.0809 0 0)
(16.0876 0 0)
(16.0941 0 0)
(16.1006 0 0)
(16.1071 0 0)
(16.1134 0 0)
(16.1197 0 0)
(16.126 0 0)
(16.1321 0 0)
(16.1382 0 0)
(16.1443 0 0)
(16.1503 0 0)
(16.1562 0 0)
(16.162 0 0)
(16.1678 0 0)
(16.1736 0 0)
(16.1793 0 0)
(16.1849 0 0)
(16.1905 0 0)
(16.196 0 0)
(16.2015 0 0)
(16.2069 0 0)
(16.2123 0 0)
(16.2176 0 0)
(16.2229 0 0)
(16.2281 0 0)
(16.2333 0 0)
(16.2384 0 0)
(16.2435 0 0)
(16.2485 0 0)
(16.2535 0 0)
(16.2584 0 0)
(16.2633 0 0)
(16.2681 0 0)
(16.2729 0 0)
(16.2777 0 0)
(16.2824 0 0)
(16.2871 0 0)
(16.2917 0 0)
(16.2963 0 0)
(16.3009 0 0)
(16.3054 0 0)
(16.3099 0 0)
(16.3143 0 0)
(16.3187 0 0)
(16.323 0 0)
(16.3274 0 0)
(16.3316 0 0)
(16.3359 0 0)
(16.3401 0 0)
(16.3443 0 0)
(16.3484 0 0)
(16.3525 0 0)
(16.3566 0 0)
(16.3606 0 0)
(16.3646 0 0)
(16.3686 0 0)
(16.3725 0 0)
(16.3764 0 0)
(16.3803 0 0)
(16.3841 0 0)
(16.388 0 0)
(16.3917 0 0)
(16.3955 0 0)
(16.3992 0 0)
(16.4029 0 0)
(16.4066 0 0)
(16.4102 0 0)
(16.4138 0 0)
(16.4174 0 0)
(16.4209 0 0)
(16.4244 0 0)
(16.4279 0 0)
(16.4314 0 0)
(16.4348 0 0)
(16.4383 0 0)
(16.4417 0 0)
(16.445 0 0)
(16.4484 0 0)
(16.4517 0 0)
(16.455 0 0)
(16.4583 0 0)
(16.4616 0 0)
(16.4649 0 0)
(16.4681 0 0)
(16.4713 0 0)
(16.4743 0 0)
(16.4769 0 0)
(16.4787 0 0)
)
;

boundaryField
{
    boundary
    {
        type            empty;
    }
    inlet
    {
        type            fixedValue;
        value           uniform (2.34893 0 0);
    }
    outlet
    {
        type            zeroGradient;
    }
}


// ************************************************************************* //
