/*--------------------------------*- C++ -*----------------------------------*\
  =========                 |
  \\      /  F ield         | OpenFOAM: The Open Source CFD Toolbox
   \\    /   O peration     | Website:  https://openfoam.org
    \\  /    A nd           | Version:  7
     \\/     M anipulation  |
\*---------------------------------------------------------------------------*/
FoamFile
{
    version     2.0;
    format      ascii;
    class       volScalarField;
    location    "0.00051";
    object      OH;
}
// * * * * * * * * * * * * * * * * * * * * * * * * * * * * * * * * * * * * * //

dimensions      [0 0 0 0 0 0 0];

internalField   nonuniform List<scalar> 
500
(
9.39754e-48
1.83293e-47
2.4454e-47
2.86198e-47
3.14541e-47
3.33912e-47
3.47258e-47
3.56568e-47
3.63184e-47
3.6801e-47
3.71663e-47
3.74564e-47
3.77007e-47
3.79203e-47
3.81308e-47
3.83444e-47
3.85711e-47
3.882e-47
3.90989e-47
3.94157e-47
3.97777e-47
4.01921e-47
4.06658e-47
4.12052e-47
4.18159e-47
4.25026e-47
4.32686e-47
4.4116e-47
4.50446e-47
4.60524e-47
4.71351e-47
4.82862e-47
4.94966e-47
5.07551e-47
5.20487e-47
5.33627e-47
5.46813e-47
5.59884e-47
5.7268e-47
5.85047e-47
5.9685e-47
6.07968e-47
6.18309e-47
6.27802e-47
6.36406e-47
6.44106e-47
6.50909e-47
6.56846e-47
6.61962e-47
6.66319e-47
6.69984e-47
6.73032e-47
6.75536e-47
6.77572e-47
6.79207e-47
6.80507e-47
6.81529e-47
6.82324e-47
6.82936e-47
6.83403e-47
6.83755e-47
6.84019e-47
6.84214e-47
6.84357e-47
6.84462e-47
6.84538e-47
6.84592e-47
6.84632e-47
6.8466e-47
6.84681e-47
6.84696e-47
6.84707e-47
6.84716e-47
6.84724e-47
6.8473e-47
6.84736e-47
6.84742e-47
6.84748e-47
6.84753e-47
6.84759e-47
6.84765e-47
6.84772e-47
6.84778e-47
6.84785e-47
6.84793e-47
6.84801e-47
6.84809e-47
6.84818e-47
6.84827e-47
6.84837e-47
6.84847e-47
6.84858e-47
6.84869e-47
6.84881e-47
6.84893e-47
6.84906e-47
6.8492e-47
6.84934e-47
6.84949e-47
6.84964e-47
6.84981e-47
6.84997e-47
6.85015e-47
6.85033e-47
6.85052e-47
6.85072e-47
6.85093e-47
6.85114e-47
6.85136e-47
6.85159e-47
6.85183e-47
6.85207e-47
6.85233e-47
6.85259e-47
6.85287e-47
6.85315e-47
6.85344e-47
6.85374e-47
6.85404e-47
6.85436e-47
6.85468e-47
6.85499e-47
6.85525e-47
6.85534e-47
6.85493e-47
6.8542e-47
6.8547e-47
6.85529e-47
6.85596e-47
6.85667e-47
6.8574e-47
6.8581e-47
6.85878e-47
6.85941e-47
6.86e-47
6.86055e-47
6.86108e-47
6.86158e-47
6.86207e-47
6.86255e-47
6.86303e-47
6.86351e-47
6.86399e-47
6.86448e-47
6.86497e-47
6.86546e-47
6.86596e-47
6.86646e-47
6.86696e-47
6.86747e-47
6.86799e-47
6.86851e-47
6.86904e-47
6.86958e-47
6.87014e-47
6.8707e-47
6.87127e-47
6.87186e-47
6.87245e-47
6.87306e-47
6.87367e-47
6.87429e-47
6.87491e-47
6.87553e-47
6.87615e-47
6.87676e-47
6.87737e-47
6.87797e-47
6.87855e-47
6.87912e-47
6.87967e-47
6.8802e-47
6.88071e-47
6.88119e-47
6.88165e-47
6.88209e-47
6.88249e-47
6.88287e-47
6.88322e-47
6.88353e-47
6.88382e-47
6.88406e-47
6.88427e-47
6.88444e-47
6.88458e-47
6.88467e-47
6.88471e-47
6.88471e-47
6.88466e-47
6.88456e-47
6.8844e-47
6.88419e-47
6.88392e-47
6.88359e-47
6.8832e-47
6.88274e-47
6.88221e-47
6.88161e-47
6.88094e-47
6.88024e-47
6.87963e-47
6.87976e-47
6.88343e-47
6.90327e-47
6.99496e-47
7.40237e-47
9.18451e-47
1.69016e-46
5.00239e-46
1.90974e-45
7.85672e-45
3.27341e-44
1.35908e-43
5.60112e-43
2.28912e-42
9.27505e-42
3.72544e-41
1.48332e-40
5.85429e-40
2.29027e-39
8.88109e-39
3.41356e-38
1.30051e-37
4.91114e-37
1.83834e-36
6.82106e-36
2.50888e-35
9.14804e-35
3.30693e-34
1.18522e-33
4.21204e-33
1.48438e-32
5.18807e-32
1.7986e-31
6.18577e-31
2.11089e-30
7.14896e-30
2.40351e-29
8.02466e-29
2.66182e-28
8.77727e-28
2.87937e-27
9.40646e-27
3.06413e-26
9.96949e-26
3.24695e-25
1.06158e-24
3.4969e-24
1.16585e-23
3.95521e-23
1.3735e-22
4.94133e-22
1.83166e-21
7.02081e-21
2.7869e-20
1.14278e-19
4.81853e-19
2.07796e-18
9.11729e-18
4.05172e-17
1.81715e-16
8.2022e-16
3.71874e-15
1.69113e-14
7.70639e-14
3.51674e-13
1.60642e-12
7.34332e-12
3.35859e-11
1.53673e-10
7.12574e-10
3.33296e-09
1.5699e-08
7.47853e-08
3.70395e-07
2.04543e-06
1.33639e-05
8.8727e-05
0.00037316
0.00070844
0.000875053
0.00110556
0.00167465
0.00268351
0.00399732
0.00537626
0.00679646
0.00786718
0.00871835
0.00938427
0.00990279
0.0103081
0.0106275
0.0108815
0.0110851
0.0112495
0.0113828
0.011491
0.011579
0.01165
0.011707
0.0117521
0.0117871
0.0118135
0.0118325
0.011845
0.011852
0.0118541
0.011852
0.0118461
0.0118369
0.0118249
0.0118109
0.0117952
0.0117778
0.0117588
0.0117383
0.0117166
0.0116937
0.0116697
0.0116448
0.0116191
0.0115926
0.0115654
0.0115377
0.0115094
0.0114806
0.0114514
0.0114218
0.0113919
0.0113617
0.0113313
0.0113006
0.0112697
0.0112386
0.0112074
0.011176
0.0111446
0.011113
0.0110813
0.0110496
0.0110178
0.010986
0.0109541
0.0109222
0.0108904
0.0108585
0.0108266
0.0107947
0.0107629
0.0107311
0.0106994
0.0106677
0.0106361
0.0106045
0.0105731
0.0105417
0.0105104
0.0104792
0.0104482
0.0104172
0.0103864
0.0103557
0.0103251
0.0102946
0.0102643
0.0102342
0.0102042
0.0101743
0.0101446
0.010115
0.0100856
0.0100563
0.0100272
0.00999819
0.00996933
0.00994061
0.00991203
0.00988362
0.00985537
0.00982727
0.00979932
0.00977152
0.00974386
0.00971634
0.00968897
0.00966173
0.00963464
0.00960767
0.00958084
0.00955414
0.00952757
0.00950111
0.00947477
0.00944855
0.00942242
0.0093964
0.00937047
0.00934462
0.00931885
0.00929315
0.0092675
0.0092419
0.00921633
0.00919078
0.00916524
0.0091397
0.00911413
0.00908856
0.00906304
0.00903748
0.00901089
0.0089803
0.00895479
0.0089287
0.00890224
0.00887548
0.00884842
0.00882107
0.00879338
0.00876534
0.00873693
0.00870811
0.00867886
0.00864916
0.00861897
0.00858828
0.00855707
0.00852532
0.008493
0.0084601
0.00842661
0.00839252
0.00835782
0.0083225
0.00828657
0.00825003
0.00821288
0.00817515
0.00813684
0.00809798
0.0080586
0.00801873
0.0079784
0.00793765
0.00789655
0.00785513
0.00781345
0.00777158
0.00772959
0.00768753
0.00764549
0.00760354
0.00756175
0.00752021
0.007479
0.00743819
0.00739786
0.0073581
0.00731897
0.00728056
0.00724293
0.00720614
0.00717026
0.00713535
0.00710145
0.0070686
0.00703683
0.00700619
0.00697668
0.00694832
0.00692111
0.00689505
0.00687012
0.00684631
0.00682358
0.0068019
0.00678123
0.00676151
0.00674271
0.00672475
0.00670758
0.00669114
0.00667535
0.00666016
0.00664551
0.00663133
0.00661758
0.00660423
0.00659125
0.00657865
0.00656645
0.00655472
0.00654357
0.00653317
0.00652375
0.00651561
0.00650909
0.0065045
0.00650204
)
;

boundaryField
{
    boundary
    {
        type            empty;
    }
    inlet
    {
        type            fixedValue;
        value           uniform 0;
    }
    outlet
    {
        type            zeroGradient;
    }
}


// ************************************************************************* //
