/*--------------------------------*- C++ -*----------------------------------*\
  =========                 |
  \\      /  F ield         | OpenFOAM: The Open Source CFD Toolbox
   \\    /   O peration     | Website:  https://openfoam.org
    \\  /    A nd           | Version:  7
     \\/     M anipulation  |
\*---------------------------------------------------------------------------*/
FoamFile
{
    version     2.0;
    format      ascii;
    class       surfaceScalarField;
    location    "0.00051";
    object      phi;
}
// * * * * * * * * * * * * * * * * * * * * * * * * * * * * * * * * * * * * * //

dimensions      [1 0 -1 0 0 0 0];

internalField   nonuniform List<scalar> 
499
(
6.93609e-06
6.93592e-06
6.93573e-06
6.93555e-06
6.93536e-06
6.93517e-06
6.93499e-06
6.9348e-06
6.93461e-06
6.93442e-06
6.93422e-06
6.93401e-06
6.93379e-06
6.93355e-06
6.9333e-06
6.93301e-06
6.9327e-06
6.93234e-06
6.93194e-06
6.93147e-06
6.93095e-06
6.93035e-06
6.92967e-06
6.9289e-06
6.92804e-06
6.92708e-06
6.92602e-06
6.92486e-06
6.92361e-06
6.92226e-06
6.92084e-06
6.91935e-06
6.91781e-06
6.91622e-06
6.91462e-06
6.91302e-06
6.91143e-06
6.90988e-06
6.90838e-06
6.90695e-06
6.90559e-06
6.90432e-06
6.90315e-06
6.90207e-06
6.9011e-06
6.90022e-06
6.89945e-06
6.89876e-06
6.89816e-06
6.89763e-06
6.89718e-06
6.89679e-06
6.89646e-06
6.89617e-06
6.89593e-06
6.89572e-06
6.89553e-06
6.89537e-06
6.89523e-06
6.89511e-06
6.89499e-06
6.89489e-06
6.89479e-06
6.8947e-06
6.89461e-06
6.89452e-06
6.89444e-06
6.89436e-06
6.89428e-06
6.8942e-06
6.89412e-06
6.89405e-06
6.89397e-06
6.89389e-06
6.89382e-06
6.89374e-06
6.89366e-06
6.89359e-06
6.89351e-06
6.89343e-06
6.89336e-06
6.89328e-06
6.8932e-06
6.89313e-06
6.89305e-06
6.89298e-06
6.8929e-06
6.89282e-06
6.89275e-06
6.89267e-06
6.8926e-06
6.89252e-06
6.89245e-06
6.89237e-06
6.8923e-06
6.89222e-06
6.89214e-06
6.89207e-06
6.89199e-06
6.89192e-06
6.89184e-06
6.89177e-06
6.89169e-06
6.89162e-06
6.89154e-06
6.89147e-06
6.89139e-06
6.89132e-06
6.89125e-06
6.89117e-06
6.8911e-06
6.89102e-06
6.89095e-06
6.89087e-06
6.8908e-06
6.89073e-06
6.89065e-06
6.89058e-06
6.8905e-06
6.89043e-06
6.89036e-06
6.89028e-06
6.89021e-06
6.89014e-06
6.89006e-06
6.88999e-06
6.88992e-06
6.88984e-06
6.88977e-06
6.88969e-06
6.88962e-06
6.88954e-06
6.88947e-06
6.88939e-06
6.88932e-06
6.88925e-06
6.88918e-06
6.8891e-06
6.88903e-06
6.88896e-06
6.88889e-06
6.88882e-06
6.88874e-06
6.88867e-06
6.8886e-06
6.88853e-06
6.88846e-06
6.88839e-06
6.88832e-06
6.88825e-06
6.88818e-06
6.88811e-06
6.88804e-06
6.88797e-06
6.8879e-06
6.88783e-06
6.88776e-06
6.88769e-06
6.88762e-06
6.88755e-06
6.88748e-06
6.88741e-06
6.88735e-06
6.88728e-06
6.88721e-06
6.88714e-06
6.88708e-06
6.88701e-06
6.88694e-06
6.88688e-06
6.88681e-06
6.88674e-06
6.88668e-06
6.88661e-06
6.88655e-06
6.88649e-06
6.88642e-06
6.88636e-06
6.8863e-06
6.88624e-06
6.88617e-06
6.88611e-06
6.88605e-06
6.88599e-06
6.88594e-06
6.88588e-06
6.88582e-06
6.88576e-06
6.88571e-06
6.88565e-06
6.8856e-06
6.88554e-06
6.88549e-06
6.88544e-06
6.88539e-06
6.88534e-06
6.88529e-06
6.88524e-06
6.88519e-06
6.88514e-06
6.8851e-06
6.88505e-06
6.88501e-06
6.88496e-06
6.88492e-06
6.88488e-06
6.88484e-06
6.8848e-06
6.88477e-06
6.88473e-06
6.88469e-06
6.88466e-06
6.88463e-06
6.8846e-06
6.88457e-06
6.88454e-06
6.88451e-06
6.88449e-06
6.88446e-06
6.88444e-06
6.88442e-06
6.8844e-06
6.88438e-06
6.88437e-06
6.88435e-06
6.88434e-06
6.88433e-06
6.88432e-06
6.88431e-06
6.8843e-06
6.8843e-06
6.88429e-06
6.88429e-06
6.88429e-06
6.88429e-06
6.88429e-06
6.8843e-06
6.8843e-06
6.88431e-06
6.88432e-06
6.88433e-06
6.88434e-06
6.88435e-06
6.88437e-06
6.88438e-06
6.8844e-06
6.88442e-06
6.88444e-06
6.88446e-06
6.88449e-06
6.88451e-06
6.88454e-06
6.88457e-06
6.88459e-06
6.88462e-06
6.88465e-06
6.88468e-06
6.88471e-06
6.88474e-06
6.88477e-06
6.8848e-06
6.88484e-06
6.88488e-06
6.88491e-06
6.88495e-06
6.88499e-06
6.88503e-06
6.88508e-06
6.88512e-06
6.88519e-06
6.88531e-06
6.88562e-06
6.88647e-06
6.88893e-06
6.89597e-06
6.91491e-06
6.95733e-06
7.02182e-06
7.0827e-06
7.12472e-06
7.15172e-06
7.16998e-06
7.18292e-06
7.19215e-06
7.19872e-06
7.20339e-06
7.2068e-06
7.20938e-06
7.21141e-06
7.21304e-06
7.2144e-06
7.21555e-06
7.21654e-06
7.2174e-06
7.21816e-06
7.21884e-06
7.21945e-06
7.22e-06
7.2205e-06
7.22097e-06
7.22139e-06
7.22179e-06
7.22216e-06
7.2225e-06
7.22282e-06
7.22313e-06
7.22341e-06
7.22368e-06
7.22394e-06
7.22418e-06
7.22441e-06
7.22463e-06
7.22482e-06
7.22501e-06
7.22519e-06
7.22536e-06
7.22552e-06
7.22567e-06
7.22582e-06
7.22596e-06
7.22609e-06
7.22622e-06
7.22634e-06
7.22646e-06
7.22657e-06
7.22667e-06
7.22677e-06
7.22686e-06
7.22695e-06
7.22704e-06
7.22712e-06
7.2272e-06
7.22727e-06
7.22734e-06
7.22741e-06
7.22748e-06
7.22754e-06
7.22761e-06
7.22767e-06
7.22773e-06
7.22779e-06
7.22785e-06
7.2279e-06
7.22796e-06
7.22801e-06
7.22807e-06
7.22812e-06
7.22818e-06
7.22823e-06
7.22828e-06
7.22834e-06
7.22839e-06
7.22844e-06
7.22849e-06
7.22853e-06
7.22858e-06
7.22863e-06
7.22867e-06
7.22872e-06
7.22876e-06
7.2288e-06
7.22884e-06
7.22887e-06
7.22891e-06
7.22894e-06
7.22898e-06
7.22901e-06
7.22903e-06
7.22906e-06
7.22908e-06
7.22911e-06
7.22913e-06
7.22914e-06
7.22916e-06
7.22917e-06
7.22918e-06
7.22918e-06
7.22919e-06
7.22919e-06
7.22919e-06
7.22919e-06
7.22918e-06
7.22918e-06
7.22917e-06
7.22915e-06
7.22914e-06
7.22912e-06
7.2291e-06
7.22907e-06
7.22904e-06
7.22901e-06
7.22897e-06
7.22893e-06
7.22889e-06
7.22885e-06
7.2288e-06
7.22875e-06
7.2287e-06
7.22865e-06
7.2286e-06
7.22855e-06
7.2285e-06
7.22845e-06
7.2284e-06
7.22835e-06
7.22831e-06
7.22828e-06
7.22825e-06
7.22827e-06
7.2281e-06
7.22847e-06
7.22687e-06
7.22718e-06
7.22732e-06
7.22741e-06
7.22749e-06
7.22757e-06
7.22765e-06
7.22776e-06
7.22787e-06
7.228e-06
7.22815e-06
7.22832e-06
7.2285e-06
7.22871e-06
7.22894e-06
7.22919e-06
7.22947e-06
7.22976e-06
7.23008e-06
7.23042e-06
7.23078e-06
7.23116e-06
7.23155e-06
7.23195e-06
7.23236e-06
7.23277e-06
7.23317e-06
7.23356e-06
7.23393e-06
7.23427e-06
7.23458e-06
7.23484e-06
7.23504e-06
7.23517e-06
7.23523e-06
7.23518e-06
7.23504e-06
7.23477e-06
7.23437e-06
7.23382e-06
7.2331e-06
7.23221e-06
7.23113e-06
7.22984e-06
7.22833e-06
7.22659e-06
7.2246e-06
7.22236e-06
7.21986e-06
7.21708e-06
7.21403e-06
7.21069e-06
7.20707e-06
7.20316e-06
7.19896e-06
7.19449e-06
7.18974e-06
7.18472e-06
7.17945e-06
7.17394e-06
7.16821e-06
7.16226e-06
7.15613e-06
7.14983e-06
7.1434e-06
7.13684e-06
7.1302e-06
7.12349e-06
7.11675e-06
7.11001e-06
7.10329e-06
7.09663e-06
7.09005e-06
7.08358e-06
7.07726e-06
7.0711e-06
7.06513e-06
7.05938e-06
7.05387e-06
7.04861e-06
7.04363e-06
7.03894e-06
7.03456e-06
7.03048e-06
7.02672e-06
7.02328e-06
7.02013e-06
7.01725e-06
)
;

boundaryField
{
    boundary
    {
        type            empty;
        value           nonuniform 0();
    }
    inlet
    {
        type            calculated;
        value           uniform -6.93623e-06;
    }
    outlet
    {
        type            calculated;
        value           uniform 7.01453e-06;
    }
}


// ************************************************************************* //
