/*--------------------------------*- C++ -*----------------------------------*\
  =========                 |
  \\      /  F ield         | OpenFOAM: The Open Source CFD Toolbox
   \\    /   O peration     | Website:  https://openfoam.org
    \\  /    A nd           | Version:  7
     \\/     M anipulation  |
\*---------------------------------------------------------------------------*/
FoamFile
{
    version     2.0;
    format      ascii;
    class       volScalarField;
    location    "0.00051";
    object      T;
}
// * * * * * * * * * * * * * * * * * * * * * * * * * * * * * * * * * * * * * //

dimensions      [0 0 0 1 0 0 0];

internalField   nonuniform List<scalar> 
500
(
300.002
300.007
300.011
300.016
300.02
300.025
300.03
300.034
300.039
300.044
300.05
300.056
300.062
300.07
300.078
300.088
300.099
300.113
300.128
300.147
300.168
300.193
300.221
300.253
300.29
300.331
300.376
300.425
300.478
300.535
300.595
300.657
300.722
300.787
300.853
300.919
300.983
301.046
301.106
301.163
301.216
301.266
301.311
301.352
301.389
301.421
301.449
301.474
301.495
301.513
301.527
301.54
301.55
301.558
301.564
301.569
301.574
301.577
301.579
301.581
301.582
301.583
301.584
301.585
301.585
301.585
301.586
301.586
301.586
301.586
301.586
301.586
301.586
301.586
301.586
301.586
301.586
301.586
301.586
301.586
301.586
301.586
301.586
301.586
301.586
301.586
301.587
301.587
301.587
301.587
301.587
301.587
301.587
301.587
301.587
301.587
301.587
301.587
301.587
301.587
301.587
301.587
301.587
301.587
301.587
301.587
301.588
301.588
301.588
301.588
301.588
301.588
301.588
301.588
301.588
301.588
301.588
301.589
301.589
301.589
301.589
301.589
301.589
301.589
301.589
301.589
301.589
301.589
301.59
301.59
301.59
301.59
301.591
301.591
301.591
301.591
301.591
301.592
301.592
301.592
301.592
301.592
301.592
301.593
301.593
301.593
301.593
301.593
301.594
301.594
301.594
301.594
301.594
301.595
301.595
301.595
301.595
301.596
301.596
301.596
301.596
301.596
301.597
301.597
301.597
301.597
301.598
301.598
301.598
301.598
301.598
301.599
301.599
301.599
301.599
301.599
301.599
301.6
301.6
301.6
301.6
301.6
301.6
301.6
301.6
301.6
301.6
301.6
301.6
301.6
301.6
301.6
301.6
301.6
301.6
301.599
301.599
301.599
301.599
301.598
301.598
301.598
301.597
301.597
301.596
301.596
301.595
301.595
301.594
301.593
301.593
301.592
301.591
301.59
301.589
301.588
301.587
301.586
301.585
301.584
301.583
301.582
301.58
301.579
301.578
301.576
301.575
301.573
301.571
301.57
301.568
301.566
301.564
301.562
301.56
301.558
301.556
301.554
301.552
301.55
301.547
301.545
301.542
301.54
301.538
301.535
301.532
301.53
301.527
301.524
301.521
301.518
301.515
301.512
301.509
301.506
301.503
301.501
301.498
301.495
301.491
301.488
301.485
301.482
301.479
301.476
301.473
301.472
301.476
301.491
301.541
301.69
302.119
303.349
306.868
316.838
343.836
407.136
520.409
668.835
824.103
972.8
1111.53
1235.68
1339.16
1426.91
1501.32
1560.54
1607.75
1648.02
1682.8
1713.31
1740.39
1764.7
1786.69
1806.75
1825.15
1842.12
1857.85
1872.49
1886.15
1898.95
1910.99
1922.32
1933.02
1943.16
1952.77
1961.9
1970.59
1978.87
1986.76
1994.3
2001.3
2007.88
2014.25
2020.41
2026.37
2032.13
2037.72
2043.14
2048.39
2053.5
2058.46
2063.28
2067.96
2072.53
2076.97
2081.3
2085.52
2089.64
2093.65
2097.57
2101.4
2105.14
2108.79
2112.36
2115.85
2119.27
2122.61
2125.88
2129.08
2132.22
2135.29
2138.31
2141.26
2144.15
2146.99
2149.78
2152.51
2155.19
2157.82
2160.41
2162.95
2165.44
2167.89
2170.3
2172.67
2175
2177.29
2179.54
2181.76
2183.94
2186.08
2188.2
2190.28
2192.33
2194.35
2196.33
2198.29
2200.22
2202.13
2204
2205.85
2207.67
2209.46
2211.23
2212.97
2214.7
2216.4
2218.08
2219.74
2221.38
2223
2224.59
2226.17
2227.73
2229.27
2230.78
2232.28
2233.77
2235.23
2236.68
2238.1
2239.51
2240.91
2242.28
2243.64
2244.99
2246.31
2247.62
2248.91
2250.18
2251.44
2252.68
2253.9
2255.11
2256.29
2257.46
2258.61
2259.72
2260.89
2262
2263.32
2264.35
2265.37
2266.38
2267.37
2268.33
2269.28
2270.21
2271.12
2272.01
2272.87
2273.71
2274.53
2275.32
2276.09
2276.84
2277.57
2278.27
2278.95
2279.61
2280.25
2280.87
2281.48
2282.07
2282.64
2283.2
2283.76
2284.31
2284.85
2285.4
2285.95
2286.5
2287.07
2287.66
2288.27
2288.9
2289.56
2290.26
2291
2291.78
2292.62
2293.51
2294.46
2295.48
2296.57
2297.73
2298.97
2300.29
2301.7
2303.19
2304.78
2306.45
2308.21
2310.07
2312.01
2314.05
2316.17
2318.37
2320.65
2323
2325.43
2327.91
2330.45
2333.04
2335.68
2338.34
2341.03
2343.73
2346.43
2349.14
2351.83
2354.49
2357.13
2359.72
2362.26
2364.75
2367.17
2369.52
2371.78
2373.96
2376.05
2378.04
2379.93
2381.71
2383.35
2384.83
2386.07
2386.88
)
;

boundaryField
{
    boundary
    {
        type            empty;
    }
    inlet
    {
        type            fixedValue;
        value           uniform 300;
    }
    outlet
    {
        type            zeroGradient;
    }
}


// ************************************************************************* //
