/*--------------------------------*- C++ -*----------------------------------*\
  =========                 |
  \\      /  F ield         | OpenFOAM: The Open Source CFD Toolbox
   \\    /   O peration     | Website:  https://openfoam.org
    \\  /    A nd           | Version:  7
     \\/     M anipulation  |
\*---------------------------------------------------------------------------*/
FoamFile
{
    version     2.0;
    format      ascii;
    class       volVectorField;
    location    "0.00051";
    object      U;
}
// * * * * * * * * * * * * * * * * * * * * * * * * * * * * * * * * * * * * * //

dimensions      [0 1 -1 0 0 0 0];

internalField   nonuniform List<vector> 
500
(
(2.34893 0 0)
(2.34892 0 0)
(2.34889 0 0)
(2.34885 0 0)
(2.34883 0 0)
(2.3488 0 0)
(2.34877 0 0)
(2.34875 0 0)
(2.34872 0 0)
(2.3487 0 0)
(2.34868 0 0)
(2.34865 0 0)
(2.34863 0 0)
(2.34861 0 0)
(2.3486 0 0)
(2.34858 0 0)
(2.34857 0 0)
(2.34856 0 0)
(2.34856 0 0)
(2.34855 0 0)
(2.34855 0 0)
(2.34856 0 0)
(2.34856 0 0)
(2.34857 0 0)
(2.34858 0 0)
(2.34859 0 0)
(2.3486 0 0)
(2.34861 0 0)
(2.34861 0 0)
(2.34862 0 0)
(2.34862 0 0)
(2.34861 0 0)
(2.34859 0 0)
(2.34858 0 0)
(2.34855 0 0)
(2.34852 0 0)
(2.34848 0 0)
(2.34843 0 0)
(2.34838 0 0)
(2.34832 0 0)
(2.34826 0 0)
(2.3482 0 0)
(2.34814 0 0)
(2.34808 0 0)
(2.34801 0 0)
(2.34795 0 0)
(2.34789 0 0)
(2.34783 0 0)
(2.34778 0 0)
(2.34772 0 0)
(2.34767 0 0)
(2.34763 0 0)
(2.34758 0 0)
(2.34754 0 0)
(2.3475 0 0)
(2.34747 0 0)
(2.34743 0 0)
(2.3474 0 0)
(2.34737 0 0)
(2.34734 0 0)
(2.34731 0 0)
(2.34728 0 0)
(2.34725 0 0)
(2.34722 0 0)
(2.34719 0 0)
(2.34717 0 0)
(2.34714 0 0)
(2.34711 0 0)
(2.34709 0 0)
(2.34706 0 0)
(2.34704 0 0)
(2.34701 0 0)
(2.34698 0 0)
(2.34696 0 0)
(2.34693 0 0)
(2.34691 0 0)
(2.34688 0 0)
(2.34685 0 0)
(2.34683 0 0)
(2.3468 0 0)
(2.34678 0 0)
(2.34675 0 0)
(2.34673 0 0)
(2.3467 0 0)
(2.34668 0 0)
(2.34665 0 0)
(2.34662 0 0)
(2.3466 0 0)
(2.34657 0 0)
(2.34655 0 0)
(2.34652 0 0)
(2.3465 0 0)
(2.34647 0 0)
(2.34645 0 0)
(2.34642 0 0)
(2.3464 0 0)
(2.34637 0 0)
(2.34635 0 0)
(2.34632 0 0)
(2.3463 0 0)
(2.34627 0 0)
(2.34625 0 0)
(2.34622 0 0)
(2.3462 0 0)
(2.34617 0 0)
(2.34615 0 0)
(2.34612 0 0)
(2.3461 0 0)
(2.34607 0 0)
(2.34605 0 0)
(2.34603 0 0)
(2.346 0 0)
(2.34598 0 0)
(2.34595 0 0)
(2.34593 0 0)
(2.3459 0 0)
(2.34588 0 0)
(2.34586 0 0)
(2.34583 0 0)
(2.34581 0 0)
(2.34578 0 0)
(2.34576 0 0)
(2.34574 0 0)
(2.34571 0 0)
(2.34568 0 0)
(2.34566 0 0)
(2.34564 0 0)
(2.34562 0 0)
(2.34559 0 0)
(2.34557 0 0)
(2.34554 0 0)
(2.34552 0 0)
(2.3455 0 0)
(2.34548 0 0)
(2.34545 0 0)
(2.34543 0 0)
(2.34541 0 0)
(2.34538 0 0)
(2.34536 0 0)
(2.34534 0 0)
(2.34532 0 0)
(2.34529 0 0)
(2.34527 0 0)
(2.34525 0 0)
(2.34523 0 0)
(2.3452 0 0)
(2.34518 0 0)
(2.34516 0 0)
(2.34514 0 0)
(2.34511 0 0)
(2.34509 0 0)
(2.34507 0 0)
(2.34505 0 0)
(2.34503 0 0)
(2.34501 0 0)
(2.34498 0 0)
(2.34496 0 0)
(2.34494 0 0)
(2.34492 0 0)
(2.3449 0 0)
(2.34488 0 0)
(2.34486 0 0)
(2.34483 0 0)
(2.34481 0 0)
(2.34479 0 0)
(2.34477 0 0)
(2.34475 0 0)
(2.34473 0 0)
(2.34471 0 0)
(2.34469 0 0)
(2.34467 0 0)
(2.34465 0 0)
(2.34463 0 0)
(2.34461 0 0)
(2.34459 0 0)
(2.34457 0 0)
(2.34455 0 0)
(2.34453 0 0)
(2.34451 0 0)
(2.34449 0 0)
(2.34447 0 0)
(2.34445 0 0)
(2.34443 0 0)
(2.34441 0 0)
(2.34439 0 0)
(2.34437 0 0)
(2.34435 0 0)
(2.34433 0 0)
(2.34431 0 0)
(2.34429 0 0)
(2.34427 0 0)
(2.34426 0 0)
(2.34424 0 0)
(2.34422 0 0)
(2.3442 0 0)
(2.34418 0 0)
(2.34416 0 0)
(2.34415 0 0)
(2.34413 0 0)
(2.34411 0 0)
(2.34409 0 0)
(2.34407 0 0)
(2.34406 0 0)
(2.34404 0 0)
(2.34402 0 0)
(2.344 0 0)
(2.34398 0 0)
(2.34397 0 0)
(2.34395 0 0)
(2.34393 0 0)
(2.34392 0 0)
(2.3439 0 0)
(2.34388 0 0)
(2.34387 0 0)
(2.34385 0 0)
(2.34383 0 0)
(2.34382 0 0)
(2.3438 0 0)
(2.34378 0 0)
(2.34377 0 0)
(2.34375 0 0)
(2.34373 0 0)
(2.34372 0 0)
(2.3437 0 0)
(2.34369 0 0)
(2.34367 0 0)
(2.34365 0 0)
(2.34364 0 0)
(2.34362 0 0)
(2.34361 0 0)
(2.34359 0 0)
(2.34358 0 0)
(2.34356 0 0)
(2.34355 0 0)
(2.34353 0 0)
(2.34352 0 0)
(2.3435 0 0)
(2.34349 0 0)
(2.34347 0 0)
(2.34346 0 0)
(2.34345 0 0)
(2.34343 0 0)
(2.34342 0 0)
(2.3434 0 0)
(2.34339 0 0)
(2.34338 0 0)
(2.34336 0 0)
(2.34335 0 0)
(2.34333 0 0)
(2.34332 0 0)
(2.3433 0 0)
(2.34329 0 0)
(2.34328 0 0)
(2.34327 0 0)
(2.34326 0 0)
(2.34324 0 0)
(2.34323 0 0)
(2.34322 0 0)
(2.34321 0 0)
(2.34319 0 0)
(2.34318 0 0)
(2.34317 0 0)
(2.34316 0 0)
(2.34314 0 0)
(2.34313 0 0)
(2.34312 0 0)
(2.34311 0 0)
(2.34309 0 0)
(2.3431 0 0)
(2.34318 0 0)
(2.34349 0 0)
(2.34457 0 0)
(2.34804 0 0)
(2.35832 0 0)
(2.38622 0 0)
(2.45544 0 0)
(2.61768 0 0)
(2.97268 0 0)
(3.69417 0 0)
(4.78415 0 0)
(6.02301 0 0)
(7.21108 0 0)
(8.27066 0 0)
(9.18496 0 0)
(9.95118 0 0)
(10.5875 0 0)
(11.116 0 0)
(11.5425 0 0)
(11.8802 0 0)
(12.1566 0 0)
(12.393 0 0)
(12.5998 0 0)
(12.7825 0 0)
(12.9454 0 0)
(13.0919 0 0)
(13.2248 0 0)
(13.3461 0 0)
(13.4576 0 0)
(13.5605 0 0)
(13.6559 0 0)
(13.7448 0 0)
(13.8277 0 0)
(13.9054 0 0)
(13.9784 0 0)
(14.0472 0 0)
(14.1122 0 0)
(14.1736 0 0)
(14.2319 0 0)
(14.2872 0 0)
(14.3398 0 0)
(14.3898 0 0)
(14.4375 0 0)
(14.4817 0 0)
(14.5232 0 0)
(14.5633 0 0)
(14.602 0 0)
(14.6394 0 0)
(14.6755 0 0)
(14.7105 0 0)
(14.7443 0 0)
(14.7771 0 0)
(14.8089 0 0)
(14.8397 0 0)
(14.8696 0 0)
(14.8987 0 0)
(14.927 0 0)
(14.9544 0 0)
(14.9812 0 0)
(15.0072 0 0)
(15.0326 0 0)
(15.0573 0 0)
(15.0814 0 0)
(15.1049 0 0)
(15.1278 0 0)
(15.1502 0 0)
(15.172 0 0)
(15.1934 0 0)
(15.2143 0 0)
(15.2347 0 0)
(15.2546 0 0)
(15.2742 0 0)
(15.2933 0 0)
(15.312 0 0)
(15.3303 0 0)
(15.3483 0 0)
(15.3659 0 0)
(15.3831 0 0)
(15.4 0 0)
(15.4166 0 0)
(15.4329 0 0)
(15.4488 0 0)
(15.4645 0 0)
(15.4799 0 0)
(15.495 0 0)
(15.5098 0 0)
(15.5244 0 0)
(15.5387 0 0)
(15.5528 0 0)
(15.5666 0 0)
(15.5802 0 0)
(15.5936 0 0)
(15.6067 0 0)
(15.6197 0 0)
(15.6324 0 0)
(15.6449 0 0)
(15.6573 0 0)
(15.6694 0 0)
(15.6814 0 0)
(15.6932 0 0)
(15.7048 0 0)
(15.7162 0 0)
(15.7275 0 0)
(15.7386 0 0)
(15.7495 0 0)
(15.7603 0 0)
(15.7709 0 0)
(15.7813 0 0)
(15.7917 0 0)
(15.8018 0 0)
(15.8119 0 0)
(15.8218 0 0)
(15.8316 0 0)
(15.8413 0 0)
(15.8508 0 0)
(15.8602 0 0)
(15.8695 0 0)
(15.8787 0 0)
(15.8878 0 0)
(15.8967 0 0)
(15.9055 0 0)
(15.9143 0 0)
(15.9229 0 0)
(15.9314 0 0)
(15.9398 0 0)
(15.9481 0 0)
(15.9563 0 0)
(15.9644 0 0)
(15.9724 0 0)
(15.9804 0 0)
(15.9882 0 0)
(15.9959 0 0)
(16.0036 0 0)
(16.0111 0 0)
(16.0186 0 0)
(16.026 0 0)
(16.0333 0 0)
(16.0405 0 0)
(16.0477 0 0)
(16.0547 0 0)
(16.0617 0 0)
(16.069 0 0)
(16.0752 0 0)
(16.0812 0 0)
(16.0887 0 0)
(16.0955 0 0)
(16.102 0 0)
(16.1085 0 0)
(16.1149 0 0)
(16.1213 0 0)
(16.1275 0 0)
(16.1337 0 0)
(16.1399 0 0)
(16.1459 0 0)
(16.152 0 0)
(16.1579 0 0)
(16.1638 0 0)
(16.1696 0 0)
(16.1754 0 0)
(16.1811 0 0)
(16.1867 0 0)
(16.1923 0 0)
(16.1979 0 0)
(16.2034 0 0)
(16.2089 0 0)
(16.2143 0 0)
(16.2197 0 0)
(16.225 0 0)
(16.2303 0 0)
(16.2356 0 0)
(16.2408 0 0)
(16.246 0 0)
(16.2512 0 0)
(16.2564 0 0)
(16.2615 0 0)
(16.2666 0 0)
(16.2717 0 0)
(16.2768 0 0)
(16.2819 0 0)
(16.2869 0 0)
(16.2919 0 0)
(16.2969 0 0)
(16.3018 0 0)
(16.3068 0 0)
(16.3117 0 0)
(16.3166 0 0)
(16.3214 0 0)
(16.3262 0 0)
(16.3309 0 0)
(16.3357 0 0)
(16.3403 0 0)
(16.3449 0 0)
(16.3494 0 0)
(16.3539 0 0)
(16.3582 0 0)
(16.3625 0 0)
(16.3667 0 0)
(16.3708 0 0)
(16.3748 0 0)
(16.3786 0 0)
(16.3823 0 0)
(16.3859 0 0)
(16.3894 0 0)
(16.3927 0 0)
(16.3958 0 0)
(16.3988 0 0)
(16.4016 0 0)
(16.4043 0 0)
(16.4068 0 0)
(16.4091 0 0)
(16.4113 0 0)
(16.4133 0 0)
(16.4151 0 0)
(16.4168 0 0)
(16.4183 0 0)
(16.4197 0 0)
(16.4209 0 0)
(16.422 0 0)
(16.423 0 0)
(16.4238 0 0)
(16.4246 0 0)
(16.4254 0 0)
(16.426 0 0)
(16.4267 0 0)
(16.4274 0 0)
(16.4281 0 0)
(16.4289 0 0)
(16.4298 0 0)
(16.4305 0 0)
(16.43 0 0)
(16.4269 0 0)
)
;

boundaryField
{
    boundary
    {
        type            empty;
    }
    inlet
    {
        type            fixedValue;
        value           uniform (2.34893 0 0);
    }
    outlet
    {
        type            zeroGradient;
    }
}


// ************************************************************************* //
