/*--------------------------------*- C++ -*----------------------------------*\
  =========                 |
  \\      /  F ield         | OpenFOAM: The Open Source CFD Toolbox
   \\    /   O peration     | Website:  https://openfoam.org
    \\  /    A nd           | Version:  7
     \\/     M anipulation  |
\*---------------------------------------------------------------------------*/
FoamFile
{
    version     2.0;
    format      ascii;
    class       volScalarField;
    location    "0.0004";
    object      H2O2;
}
// * * * * * * * * * * * * * * * * * * * * * * * * * * * * * * * * * * * * * //

dimensions      [0 0 0 0 0 0 0];

internalField   nonuniform List<scalar> 
124
(
1.13519e-06
1.12058e-06
1.10628e-06
1.09227e-06
1.07851e-06
1.065e-06
1.05173e-06
1.03869e-06
1.02587e-06
1.01326e-06
1.00085e-06
9.88635e-07
9.76601e-07
9.6474e-07
9.53042e-07
9.41497e-07
9.30095e-07
9.18825e-07
9.07678e-07
8.96643e-07
8.8571e-07
8.74868e-07
8.64106e-07
8.53416e-07
8.42786e-07
8.32208e-07
8.21672e-07
8.11169e-07
8.0069e-07
7.90227e-07
7.79772e-07
7.69317e-07
7.58855e-07
7.48381e-07
7.37888e-07
7.27372e-07
7.16828e-07
7.06253e-07
6.95645e-07
6.85001e-07
6.74321e-07
6.63606e-07
6.52856e-07
6.42075e-07
6.31266e-07
6.20433e-07
6.09584e-07
5.98724e-07
5.87863e-07
5.77009e-07
5.66172e-07
5.55363e-07
5.44594e-07
5.33878e-07
5.23227e-07
5.12655e-07
5.02176e-07
4.91803e-07
4.81551e-07
4.71433e-07
4.61461e-07
4.5165e-07
4.42011e-07
4.32557e-07
4.23297e-07
4.14242e-07
4.054e-07
3.9678e-07
3.88388e-07
3.8023e-07
3.72311e-07
3.64634e-07
3.572e-07
3.50012e-07
3.4307e-07
3.36373e-07
3.29919e-07
3.23706e-07
3.1773e-07
3.11987e-07
3.06472e-07
3.01181e-07
2.96107e-07
2.91244e-07
2.86586e-07
2.82126e-07
2.77857e-07
2.73772e-07
2.69864e-07
2.66126e-07
2.6255e-07
2.5913e-07
2.55858e-07
2.52729e-07
2.49735e-07
2.4687e-07
2.44128e-07
2.41503e-07
2.3899e-07
2.36583e-07
2.34278e-07
2.32069e-07
2.29953e-07
2.27925e-07
2.25982e-07
2.2412e-07
2.22336e-07
2.20627e-07
2.1899e-07
2.17424e-07
2.15925e-07
2.14493e-07
2.13127e-07
2.11825e-07
2.10588e-07
2.09417e-07
2.08313e-07
2.07281e-07
2.06327e-07
2.05459e-07
2.04691e-07
2.04043e-07
2.03544e-07
2.03243e-07
)
;

boundaryField
{
    boundary
    {
        type            empty;
    }
    inlet
    {
        type            fixedValue;
        value           nonuniform 0();
    }
    outlet
    {
        type            zeroGradient;
    }
    procBoundary0to1
    {
        type            processor;
        value           uniform 1.15022e-06;
    }
}


// ************************************************************************* //
