/*--------------------------------*- C++ -*----------------------------------*\
  =========                 |
  \\      /  F ield         | OpenFOAM: The Open Source CFD Toolbox
   \\    /   O peration     | Website:  https://openfoam.org
    \\  /    A nd           | Version:  7
     \\/     M anipulation  |
\*---------------------------------------------------------------------------*/
FoamFile
{
    version     2.0;
    format      ascii;
    class       volVectorField;
    location    "0.0004";
    object      U;
}
// * * * * * * * * * * * * * * * * * * * * * * * * * * * * * * * * * * * * * //

dimensions      [0 1 -1 0 0 0 0];

internalField   nonuniform List<vector> 
124
(
(15.7608 0 0)
(15.7711 0 0)
(15.7813 0 0)
(15.7913 0 0)
(15.8012 0 0)
(15.8109 0 0)
(15.8205 0 0)
(15.83 0 0)
(15.8393 0 0)
(15.8485 0 0)
(15.8575 0 0)
(15.8665 0 0)
(15.8753 0 0)
(15.884 0 0)
(15.8926 0 0)
(15.9011 0 0)
(15.9095 0 0)
(15.9177 0 0)
(15.9259 0 0)
(15.934 0 0)
(15.942 0 0)
(15.9499 0 0)
(15.9577 0 0)
(15.9655 0 0)
(15.9731 0 0)
(15.9807 0 0)
(15.9882 0 0)
(15.9957 0 0)
(16.003 0 0)
(16.0104 0 0)
(16.0176 0 0)
(16.0248 0 0)
(16.0319 0 0)
(16.039 0 0)
(16.0461 0 0)
(16.0531 0 0)
(16.06 0 0)
(16.0669 0 0)
(16.0738 0 0)
(16.0806 0 0)
(16.0873 0 0)
(16.0941 0 0)
(16.1007 0 0)
(16.1074 0 0)
(16.1139 0 0)
(16.1204 0 0)
(16.1269 0 0)
(16.1333 0 0)
(16.1396 0 0)
(16.1458 0 0)
(16.1519 0 0)
(16.1579 0 0)
(16.1638 0 0)
(16.1696 0 0)
(16.1753 0 0)
(16.1808 0 0)
(16.1862 0 0)
(16.1914 0 0)
(16.1965 0 0)
(16.2013 0 0)
(16.206 0 0)
(16.2105 0 0)
(16.2148 0 0)
(16.2189 0 0)
(16.2227 0 0)
(16.2263 0 0)
(16.2297 0 0)
(16.2329 0 0)
(16.2358 0 0)
(16.2385 0 0)
(16.241 0 0)
(16.2432 0 0)
(16.2452 0 0)
(16.247 0 0)
(16.2486 0 0)
(16.25 0 0)
(16.2511 0 0)
(16.2521 0 0)
(16.253 0 0)
(16.2536 0 0)
(16.2541 0 0)
(16.2545 0 0)
(16.2547 0 0)
(16.2548 0 0)
(16.2549 0 0)
(16.2548 0 0)
(16.2547 0 0)
(16.2545 0 0)
(16.2543 0 0)
(16.2541 0 0)
(16.2538 0 0)
(16.2535 0 0)
(16.2533 0 0)
(16.253 0 0)
(16.2528 0 0)
(16.2525 0 0)
(16.2523 0 0)
(16.2522 0 0)
(16.2521 0 0)
(16.252 0 0)
(16.252 0 0)
(16.252 0 0)
(16.2521 0 0)
(16.2522 0 0)
(16.2523 0 0)
(16.2525 0 0)
(16.2528 0 0)
(16.253 0 0)
(16.2534 0 0)
(16.2537 0 0)
(16.2541 0 0)
(16.2545 0 0)
(16.2549 0 0)
(16.2553 0 0)
(16.2558 0 0)
(16.2563 0 0)
(16.2568 0 0)
(16.2574 0 0)
(16.2581 0 0)
(16.2589 0 0)
(16.2598 0 0)
(16.261 0 0)
(16.2626 0 0)
(16.2657 0 0)
)
;

boundaryField
{
    boundary
    {
        type            empty;
    }
    inlet
    {
        type            fixedValue;
        value           nonuniform 0();
    }
    outlet
    {
        type            zeroGradient;
    }
    procBoundary0to1
    {
        type            processor;
        value           uniform (15.75 0 0);
    }
}


// ************************************************************************* //
