/*--------------------------------*- C++ -*----------------------------------*\
  =========                 |
  \\      /  F ield         | OpenFOAM: The Open Source CFD Toolbox
   \\    /   O peration     | Website:  https://openfoam.org
    \\  /    A nd           | Version:  7
     \\/     M anipulation  |
\*---------------------------------------------------------------------------*/
FoamFile
{
    version     2.0;
    format      ascii;
    class       volVectorField;
    location    "0.00068";
    object      U;
}
// * * * * * * * * * * * * * * * * * * * * * * * * * * * * * * * * * * * * * //

dimensions      [0 1 -1 0 0 0 0];

internalField   nonuniform List<vector> 
126
(
(2.35289 0 0)
(2.35292 0 0)
(2.35295 0 0)
(2.35298 0 0)
(2.35301 0 0)
(2.35304 0 0)
(2.35307 0 0)
(2.3531 0 0)
(2.35314 0 0)
(2.35317 0 0)
(2.3532 0 0)
(2.35323 0 0)
(2.35326 0 0)
(2.35329 0 0)
(2.35332 0 0)
(2.35336 0 0)
(2.35339 0 0)
(2.35342 0 0)
(2.35345 0 0)
(2.35348 0 0)
(2.35351 0 0)
(2.35355 0 0)
(2.35358 0 0)
(2.35361 0 0)
(2.35364 0 0)
(2.35367 0 0)
(2.3537 0 0)
(2.35374 0 0)
(2.35377 0 0)
(2.3538 0 0)
(2.35383 0 0)
(2.35386 0 0)
(2.3539 0 0)
(2.35393 0 0)
(2.35396 0 0)
(2.35399 0 0)
(2.35402 0 0)
(2.35406 0 0)
(2.35409 0 0)
(2.35412 0 0)
(2.35415 0 0)
(2.35419 0 0)
(2.35422 0 0)
(2.35425 0 0)
(2.35428 0 0)
(2.35432 0 0)
(2.35435 0 0)
(2.35438 0 0)
(2.35442 0 0)
(2.35445 0 0)
(2.35448 0 0)
(2.35451 0 0)
(2.35455 0 0)
(2.35458 0 0)
(2.35461 0 0)
(2.35465 0 0)
(2.35468 0 0)
(2.35471 0 0)
(2.35475 0 0)
(2.35478 0 0)
(2.35482 0 0)
(2.35485 0 0)
(2.35488 0 0)
(2.35492 0 0)
(2.35495 0 0)
(2.35499 0 0)
(2.35502 0 0)
(2.35506 0 0)
(2.35509 0 0)
(2.35512 0 0)
(2.35516 0 0)
(2.35519 0 0)
(2.35523 0 0)
(2.35526 0 0)
(2.3553 0 0)
(2.35534 0 0)
(2.35537 0 0)
(2.35541 0 0)
(2.35544 0 0)
(2.35548 0 0)
(2.35551 0 0)
(2.35555 0 0)
(2.35559 0 0)
(2.35562 0 0)
(2.35566 0 0)
(2.3557 0 0)
(2.35573 0 0)
(2.35577 0 0)
(2.35581 0 0)
(2.35584 0 0)
(2.35588 0 0)
(2.35592 0 0)
(2.35596 0 0)
(2.35599 0 0)
(2.35603 0 0)
(2.35607 0 0)
(2.35611 0 0)
(2.35615 0 0)
(2.35619 0 0)
(2.35622 0 0)
(2.35626 0 0)
(2.3563 0 0)
(2.35634 0 0)
(2.35638 0 0)
(2.35642 0 0)
(2.35646 0 0)
(2.3565 0 0)
(2.35654 0 0)
(2.35658 0 0)
(2.35662 0 0)
(2.35666 0 0)
(2.3567 0 0)
(2.35674 0 0)
(2.35678 0 0)
(2.35682 0 0)
(2.35686 0 0)
(2.3569 0 0)
(2.35695 0 0)
(2.35699 0 0)
(2.35703 0 0)
(2.35707 0 0)
(2.35711 0 0)
(2.35716 0 0)
(2.3572 0 0)
(2.35724 0 0)
(2.35729 0 0)
)
;

boundaryField
{
    boundary
    {
        type            empty;
    }
    inlet
    {
        type            fixedValue;
        value           nonuniform 0();
    }
    outlet
    {
        type            zeroGradient;
    }
    procBoundary3to1
    {
        type            processor;
        value           uniform (2.35733 0 0);
    }
    procBoundary3to2
    {
        type            processor;
        value           uniform (2.35286 0 0);
    }
}


// ************************************************************************* //
