/*--------------------------------*- C++ -*----------------------------------*\
  =========                 |
  \\      /  F ield         | OpenFOAM: The Open Source CFD Toolbox
   \\    /   O peration     | Website:  https://openfoam.org
    \\  /    A nd           | Version:  7
     \\/     M anipulation  |
\*---------------------------------------------------------------------------*/
FoamFile
{
    version     2.0;
    format      ascii;
    class       volScalarField;
    location    "0.00043";
    object      Qdot;
}
// * * * * * * * * * * * * * * * * * * * * * * * * * * * * * * * * * * * * * //

dimensions      [1 -1 -3 0 0 0 0];

internalField   nonuniform List<scalar> 
125
(
2.70089e-10
9.63348e-10
3.51995e-09
1.32539e-08
5.15515e-08
2.07045e-07
8.56354e-07
3.6325e-06
1.57282e-05
6.92066e-05
0.000308254
0.00138603
0.00627889
0.0286288
0.131369
0.607218
2.83301
13.3884
67.2221
369.742
2385.6
17811.5
145438
1.3228e+06
1.26167e+07
1.17093e+08
9.06582e+08
4.247e+09
9.9876e+09
1.32755e+10
1.38823e+10
1.39284e+10
1.3824e+10
1.30602e+10
1.14195e+10
9.39006e+09
7.63591e+09
6.28645e+09
5.24977e+09
4.46139e+09
3.85516e+09
3.38045e+09
3.00122e+09
2.69235e+09
2.43634e+09
2.22087e+09
2.03708e+09
1.87854e+09
1.74043e+09
1.61909e+09
1.5117e+09
1.41603e+09
1.33032e+09
1.25312e+09
1.18329e+09
1.11984e+09
1.06198e+09
1.00904e+09
9.60452e+08
9.15756e+08
8.74613e+08
8.3765e+08
8.03873e+08
7.72161e+08
7.42429e+08
7.14501e+08
6.88215e+08
6.63445e+08
6.40057e+08
6.17952e+08
5.97035e+08
5.77217e+08
5.58418e+08
5.40566e+08
5.23598e+08
5.07452e+08
4.92074e+08
4.77413e+08
4.63424e+08
4.50064e+08
4.37293e+08
4.25077e+08
4.13382e+08
4.02178e+08
3.91435e+08
3.81129e+08
3.71234e+08
3.61729e+08
3.52591e+08
3.43802e+08
3.35343e+08
3.27197e+08
3.19349e+08
3.11782e+08
3.04485e+08
2.97442e+08
2.90643e+08
2.84076e+08
2.77729e+08
2.71594e+08
2.6566e+08
2.59918e+08
2.5436e+08
2.48977e+08
2.43763e+08
2.3871e+08
2.33812e+08
2.29062e+08
2.24454e+08
2.19982e+08
2.15641e+08
2.11427e+08
2.07333e+08
2.03356e+08
1.99491e+08
1.95735e+08
1.92082e+08
1.88531e+08
1.85076e+08
1.81716e+08
1.78447e+08
1.75266e+08
1.72174e+08
1.69174e+08
1.66274e+08
)
;

boundaryField
{
    boundary
    {
        type            empty;
    }
    inlet
    {
        type            calculated;
        value           nonuniform 0();
    }
    outlet
    {
        type            calculated;
        value           nonuniform 0();
    }
    procBoundary1to0
    {
        type            processor;
        value           uniform 0;
    }
    procBoundary1to3
    {
        type            processor;
        value           uniform 0;
    }
}


// ************************************************************************* //
