/*--------------------------------*- C++ -*----------------------------------*\
  =========                 |
  \\      /  F ield         | OpenFOAM: The Open Source CFD Toolbox
   \\    /   O peration     | Website:  https://openfoam.org
    \\  /    A nd           | Version:  7
     \\/     M anipulation  |
\*---------------------------------------------------------------------------*/
FoamFile
{
    version     2.0;
    format      ascii;
    class       volScalarField;
    location    "0.00082";
    object      H;
}
// * * * * * * * * * * * * * * * * * * * * * * * * * * * * * * * * * * * * * //

dimensions      [0 0 0 0 0 0 0];

internalField   nonuniform List<scalar> 
125
(
1.48614e-41
2.01352e-41
2.12763e-41
2.15252e-41
2.15799e-41
2.15904e-41
2.15885e-41
2.15809e-41
2.15688e-41
2.15526e-41
2.15326e-41
2.15093e-41
2.14835e-41
2.14558e-41
2.14272e-41
2.13987e-41
2.13713e-41
2.13458e-41
2.13233e-41
2.13044e-41
2.12898e-41
2.12798e-41
2.1275e-41
2.12754e-41
2.12813e-41
2.12926e-41
2.13094e-41
2.13318e-41
2.13599e-41
2.13938e-41
2.14338e-41
2.14804e-41
2.15341e-41
2.15955e-41
2.16656e-41
2.17452e-41
2.18354e-41
2.19374e-41
2.20524e-41
2.21818e-41
2.23267e-41
2.24886e-41
2.26685e-41
2.28677e-41
2.30871e-41
2.33275e-41
2.35895e-41
2.38734e-41
2.41792e-41
2.45066e-41
2.48549e-41
2.52232e-41
2.56099e-41
2.60133e-41
2.64313e-41
2.68613e-41
2.73006e-41
2.77461e-41
2.81945e-41
2.86425e-41
2.90868e-41
2.9524e-41
2.99509e-41
3.03644e-41
3.07619e-41
3.1141e-41
3.14997e-41
3.18363e-41
3.21499e-41
3.24395e-41
3.27051e-41
3.29466e-41
3.31646e-41
3.33599e-41
3.35335e-41
3.36866e-41
3.38207e-41
3.39372e-41
3.40378e-41
3.4124e-41
3.41973e-41
3.42592e-41
3.43112e-41
3.43545e-41
3.43904e-41
3.44199e-41
3.4444e-41
3.44636e-41
3.44794e-41
3.4492e-41
3.45022e-41
3.45102e-41
3.45166e-41
3.45216e-41
3.45255e-41
3.45286e-41
3.4531e-41
3.45329e-41
3.45344e-41
3.45356e-41
3.45366e-41
3.45374e-41
3.45381e-41
3.45387e-41
3.45393e-41
3.45398e-41
3.45402e-41
3.45407e-41
3.45411e-41
3.45416e-41
3.45421e-41
3.45425e-41
3.4543e-41
3.45435e-41
3.45441e-41
3.45446e-41
3.45452e-41
3.45458e-41
3.45464e-41
3.45471e-41
3.45478e-41
3.45485e-41
3.45492e-41
3.45498e-41
3.45501e-41
)
;

boundaryField
{
    boundary
    {
        type            empty;
    }
    inlet
    {
        type            fixedValue;
        value           uniform 0;
    }
    outlet
    {
        type            zeroGradient;
    }
    procBoundary2to3
    {
        type            processor;
        value           uniform 3.45505e-41;
    }
}


// ************************************************************************* //
