/*--------------------------------*- C++ -*----------------------------------*\
  =========                 |
  \\      /  F ield         | OpenFOAM: The Open Source CFD Toolbox
   \\    /   O peration     | Website:  https://openfoam.org
    \\  /    A nd           | Version:  7
     \\/     M anipulation  |
\*---------------------------------------------------------------------------*/
FoamFile
{
    version     2.0;
    format      ascii;
    class       volScalarField;
    location    "0.00082";
    object      H2O;
}
// * * * * * * * * * * * * * * * * * * * * * * * * * * * * * * * * * * * * * //

dimensions      [0 0 0 0 0 0 0];

internalField   nonuniform List<scalar> 
125
(
7.88246e-48
2.27767e-47
4.0972e-47
6.13888e-47
8.32928e-47
1.06185e-46
1.29726e-46
1.53686e-46
1.77907e-46
2.02285e-46
2.26754e-46
2.51273e-46
2.75822e-46
3.00397e-46
3.25004e-46
3.49658e-46
3.74379e-46
3.99192e-46
4.2412e-46
4.49188e-46
4.74418e-46
4.99828e-46
5.25438e-46
5.51261e-46
5.77315e-46
6.03614e-46
6.30175e-46
6.57021e-46
6.84178e-46
7.1168e-46
7.39569e-46
7.67898e-46
7.96728e-46
8.26132e-46
8.56195e-46
8.8701e-46
9.18681e-46
9.51319e-46
9.85041e-46
1.01997e-45
1.05621e-45
1.09389e-45
1.13311e-45
1.17396e-45
1.21651e-45
1.26081e-45
1.30687e-45
1.35467e-45
1.40417e-45
1.45526e-45
1.50782e-45
1.56167e-45
1.61659e-45
1.67232e-45
1.72857e-45
1.78504e-45
1.84138e-45
1.89724e-45
1.95226e-45
2.00611e-45
2.05844e-45
2.10893e-45
2.15731e-45
2.20333e-45
2.24677e-45
2.28748e-45
2.32535e-45
2.3603e-45
2.39232e-45
2.42143e-45
2.44769e-45
2.4712e-45
2.49209e-45
2.51051e-45
2.52663e-45
2.54063e-45
2.5527e-45
2.56302e-45
2.57179e-45
2.57918e-45
2.58537e-45
2.5905e-45
2.59474e-45
2.59822e-45
2.60104e-45
2.60332e-45
2.60515e-45
2.60661e-45
2.60777e-45
2.60868e-45
2.60939e-45
2.60995e-45
2.61038e-45
2.61071e-45
2.61097e-45
2.61116e-45
2.61132e-45
2.61144e-45
2.61153e-45
2.6116e-45
2.61167e-45
2.61172e-45
2.61176e-45
2.6118e-45
2.61184e-45
2.61187e-45
2.61191e-45
2.61194e-45
2.61198e-45
2.61201e-45
2.61205e-45
2.61209e-45
2.61213e-45
2.61217e-45
2.61221e-45
2.61226e-45
2.61231e-45
2.61236e-45
2.61241e-45
2.61246e-45
2.61251e-45
2.61253e-45
2.61246e-45
2.61201e-45
2.61019e-45
)
;

boundaryField
{
    boundary
    {
        type            empty;
    }
    inlet
    {
        type            fixedValue;
        value           uniform 0;
    }
    outlet
    {
        type            zeroGradient;
    }
    procBoundary2to3
    {
        type            processor;
        value           uniform 2.60682e-45;
    }
}


// ************************************************************************* //
