/*--------------------------------*- C++ -*----------------------------------*\
  =========                 |
  \\      /  F ield         | OpenFOAM: The Open Source CFD Toolbox
   \\    /   O peration     | Website:  https://openfoam.org
    \\  /    A nd           | Version:  7
     \\/     M anipulation  |
\*---------------------------------------------------------------------------*/
FoamFile
{
    version     2.0;
    format      ascii;
    class       volScalarField;
    location    "0.00093";
    object      H2O;
}
// * * * * * * * * * * * * * * * * * * * * * * * * * * * * * * * * * * * * * //

dimensions      [0 0 0 0 0 0 0];

internalField   nonuniform List<scalar> 
500
(
7.88601e-48
2.27904e-47
4.1006e-47
6.14599e-47
8.3427e-47
1.06418e-46
1.30103e-46
1.54257e-46
1.78727e-46
2.03405e-46
2.28216e-46
2.53105e-46
2.78031e-46
3.02964e-46
3.27882e-46
3.5277e-46
3.77619e-46
4.02426e-46
4.27194e-46
4.51932e-46
4.76654e-46
5.01379e-46
5.26128e-46
5.50928e-46
5.75807e-46
6.00793e-46
6.25915e-46
6.51202e-46
6.76682e-46
7.02381e-46
7.28326e-46
7.54542e-46
7.81055e-46
8.07894e-46
8.35089e-46
8.62676e-46
8.90695e-46
9.19193e-46
9.48227e-46
9.77859e-46
1.00816e-45
1.03922e-45
1.07112e-45
1.10396e-45
1.13785e-45
1.1729e-45
1.20921e-45
1.2469e-45
1.28607e-45
1.32683e-45
1.36925e-45
1.4134e-45
1.45933e-45
1.50707e-45
1.55661e-45
1.6079e-45
1.66088e-45
1.71543e-45
1.77142e-45
1.82865e-45
1.88691e-45
1.94594e-45
2.00548e-45
2.06521e-45
2.12482e-45
2.18397e-45
2.24233e-45
2.29956e-45
2.35536e-45
2.40942e-45
2.46145e-45
2.51122e-45
2.55852e-45
2.60316e-45
2.64503e-45
2.68403e-45
2.72011e-45
2.75327e-45
2.78355e-45
2.81099e-45
2.83571e-45
2.85782e-45
2.87746e-45
2.8948e-45
2.90999e-45
2.92322e-45
2.93467e-45
2.94451e-45
2.9529e-45
2.96002e-45
2.96603e-45
2.97105e-45
2.97523e-45
2.97869e-45
2.98153e-45
2.98386e-45
2.98574e-45
2.98727e-45
2.98849e-45
2.98947e-45
2.99024e-45
2.99086e-45
2.99135e-45
2.99173e-45
2.99203e-45
2.99227e-45
2.99246e-45
2.9926e-45
2.99272e-45
2.99282e-45
2.9929e-45
2.99297e-45
2.99303e-45
2.99309e-45
2.99314e-45
2.99318e-45
2.99323e-45
2.99328e-45
2.99332e-45
2.99337e-45
2.99341e-45
2.99342e-45
2.99333e-45
2.99286e-45
2.99102e-45
2.98759e-45
2.98766e-45
2.98772e-45
2.98779e-45
2.98786e-45
2.98794e-45
2.98802e-45
2.98811e-45
2.9882e-45
2.98829e-45
2.9884e-45
2.9885e-45
2.98862e-45
2.98874e-45
2.98886e-45
2.98899e-45
2.98912e-45
2.98926e-45
2.9894e-45
2.98954e-45
2.98969e-45
2.98984e-45
2.99e-45
2.99016e-45
2.99034e-45
2.99053e-45
2.99073e-45
2.99096e-45
2.9912e-45
2.99147e-45
2.99176e-45
2.99208e-45
2.99242e-45
2.9928e-45
2.9932e-45
2.99362e-45
2.99406e-45
2.99452e-45
2.995e-45
2.99548e-45
2.99596e-45
2.99644e-45
2.99691e-45
2.99736e-45
2.9978e-45
2.99822e-45
2.99862e-45
2.999e-45
2.99934e-45
2.99967e-45
2.99997e-45
3.00025e-45
3.0005e-45
3.00075e-45
3.00098e-45
3.0012e-45
3.00142e-45
3.00164e-45
3.00186e-45
3.00208e-45
3.00231e-45
3.00255e-45
3.0028e-45
3.00306e-45
3.00333e-45
3.00361e-45
3.00391e-45
3.00422e-45
3.00457e-45
3.00505e-45
3.00595e-45
3.00824e-45
3.01526e-45
3.03819e-45
3.11445e-45
3.36872e-45
4.215e-45
7.02293e-45
1.631e-44
4.69356e-44
1.47668e-43
4.78303e-43
1.56195e-42
5.111e-42
1.67362e-41
5.48612e-41
1.80196e-40
5.93805e-40
1.96607e-39
6.5511e-39
2.2005e-38
7.46363e-38
2.56018e-37
8.89281e-37
3.13075e-36
1.1176e-35
4.045e-35
1.48357e-34
5.5086e-34
2.06817e-33
7.8405e-33
2.99707e-32
1.15359e-31
4.46544e-31
1.73642e-30
6.77653e-30
2.65202e-29
1.04009e-28
4.08561e-28
1.60672e-27
6.32353e-27
2.48994e-26
9.80667e-26
3.86251e-25
1.52111e-24
5.9888e-24
2.35699e-23
9.27217e-23
3.64574e-22
1.43271e-21
5.62727e-21
2.20909e-20
8.66808e-20
3.39984e-19
1.33308e-18
5.22596e-18
2.0594e-17
8.09262e-17
3.17427e-16
1.24477e-15
4.88223e-15
1.91556e-14
7.51891e-14
2.95263e-13
1.16002e-12
4.55955e-12
1.79294e-11
7.05314e-11
2.77557e-10
1.09258e-09
4.3019e-09
1.69415e-08
6.67271e-08
2.62827e-07
1.03511e-06
4.07477e-06
1.60178e-05
6.27054e-05
0.000242578
0.000907874
0.00312307
0.0090142
0.0202658
0.0358911
0.0549552
0.0778895
0.103686
0.128719
0.149231
0.1666
0.177403
0.184673
0.189579
0.192965
0.195393
0.197218
0.19866
0.199853
0.20088
0.201793
0.202623
0.20339
0.204107
0.204784
0.205426
0.206038
0.206623
0.207184
0.207723
0.208242
0.208742
0.209223
0.209689
0.210138
0.210573
0.210993
0.2114
0.21178
0.212144
0.212498
0.212844
0.213182
0.213512
0.213834
0.214148
0.214456
0.214757
0.215051
0.215339
0.215621
0.215897
0.216167
0.216432
0.216692
0.216947
0.217197
0.217443
0.217684
0.21792
0.218153
0.218381
0.218605
0.218826
0.219043
0.219257
0.219467
0.219673
0.219877
0.220077
0.220274
0.220469
0.22066
0.220848
0.221034
0.221217
0.221398
0.221576
0.221751
0.221924
0.222095
0.222264
0.22243
0.222594
0.222755
0.222915
0.223073
0.223228
0.223382
0.223534
0.223684
0.223832
0.223978
0.224122
0.224265
0.224406
0.224545
0.224682
0.224818
0.224952
0.225084
0.225215
0.225344
0.225473
0.225599
0.225725
0.225848
0.225971
0.226092
0.226212
0.22633
0.226447
0.226563
0.226678
0.226791
0.226904
0.227015
0.227125
0.227233
0.227341
0.227448
0.227553
0.227658
0.227761
0.227864
0.227965
0.228066
0.228165
0.228264
0.228362
0.228459
0.228555
0.22865
0.228744
0.228838
0.228931
0.229023
0.229114
0.229204
0.229294
0.229383
0.229471
0.229558
0.229645
0.229731
0.229817
0.229902
0.229986
0.230069
0.230152
0.230234
0.230315
0.230396
0.230476
0.230556
0.230635
0.230713
0.230791
0.230868
0.230944
0.23102
0.231096
0.23117
0.231244
0.231318
0.231391
0.231463
0.231535
0.231607
0.231677
0.231747
0.231817
0.231886
0.231955
0.232023
0.23209
0.232157
0.232224
0.23229
0.232355
0.23242
0.232485
0.232549
0.232612
0.232675
0.232738
0.2328
0.232861
0.232922
0.232983
0.233043
0.233103
0.233162
0.233221
0.233279
0.233337
0.233395
0.233452
0.233509
0.233565
0.233621
0.233677
0.233732
0.233787
0.233841
0.233896
0.233949
0.234003
0.234056
0.234109
0.234161
0.234213
0.234265
0.234317
0.234368
0.234419
0.23447
0.234521
0.234571
0.23462
0.234669
0.234716
0.234762
0.234804
0.23484
0.234865
)
;

boundaryField
{
    boundary
    {
        type            empty;
    }
    inlet
    {
        type            fixedValue;
        value           uniform 0;
    }
    outlet
    {
        type            zeroGradient;
    }
}


// ************************************************************************* //
