/*--------------------------------*- C++ -*----------------------------------*\
  =========                 |
  \\      /  F ield         | OpenFOAM: The Open Source CFD Toolbox
   \\    /   O peration     | Website:  https://openfoam.org
    \\  /    A nd           | Version:  7
     \\/     M anipulation  |
\*---------------------------------------------------------------------------*/
FoamFile
{
    version     2.0;
    format      ascii;
    class       volScalarField;
    location    "0.00093";
    object      H2O2;
}
// * * * * * * * * * * * * * * * * * * * * * * * * * * * * * * * * * * * * * //

dimensions      [0 0 0 0 0 0 0];

internalField   nonuniform List<scalar> 
500
(
1.99337e-52
6.40482e-52
1.27336e-51
2.09805e-51
3.11455e-51
4.32276e-51
5.72248e-51
7.3134e-51
9.09501e-51
1.10666e-50
1.32274e-50
1.55762e-50
1.8112e-50
2.08335e-50
2.37396e-50
2.68293e-50
3.01018e-50
3.35568e-50
3.71947e-50
4.1016e-50
4.50224e-50
4.92157e-50
5.35989e-50
5.81751e-50
6.29483e-50
6.79225e-50
7.31025e-50
7.84931e-50
8.40995e-50
8.9927e-50
9.59812e-50
1.02268e-49
1.08795e-49
1.15569e-49
1.22598e-49
1.29892e-49
1.37463e-49
1.45323e-49
1.53488e-49
1.61974e-49
1.70802e-49
1.79993e-49
1.89572e-49
1.99564e-49
2.09997e-49
2.20901e-49
2.32304e-49
2.44235e-49
2.56722e-49
2.6979e-49
2.83458e-49
2.97744e-49
3.12656e-49
3.28196e-49
3.44355e-49
3.61116e-49
3.78449e-49
3.96314e-49
4.14657e-49
4.33415e-49
4.5251e-49
4.71856e-49
4.91358e-49
5.1091e-49
5.30406e-49
5.49731e-49
5.68773e-49
5.87421e-49
6.05567e-49
6.23112e-49
6.39963e-49
6.5604e-49
6.71275e-49
6.85615e-49
6.99018e-49
7.11459e-49
7.22927e-49
7.33425e-49
7.42966e-49
7.51579e-49
7.59299e-49
7.6617e-49
7.72243e-49
7.77573e-49
7.8222e-49
7.86244e-49
7.89703e-49
7.92658e-49
7.95165e-49
7.97277e-49
7.99046e-49
8.00517e-49
8.01732e-49
8.02731e-49
8.03546e-49
8.04207e-49
8.0474e-49
8.05167e-49
8.05508e-49
8.05778e-49
8.05992e-49
8.0616e-49
8.06292e-49
8.06395e-49
8.06476e-49
8.06539e-49
8.06588e-49
8.06628e-49
8.0666e-49
8.06685e-49
8.06707e-49
8.06726e-49
8.06742e-49
8.06757e-49
8.06771e-49
8.06784e-49
8.06797e-49
8.06811e-49
8.06824e-49
8.06837e-49
8.06847e-49
8.06847e-49
8.06804e-49
8.06591e-49
8.0571e-49
8.03964e-49
8.03982e-49
8.04002e-49
8.04022e-49
8.04043e-49
8.04066e-49
8.0409e-49
8.04115e-49
8.04141e-49
8.04169e-49
8.04198e-49
8.0423e-49
8.04262e-49
8.04296e-49
8.04332e-49
8.04369e-49
8.04407e-49
8.04446e-49
8.04486e-49
8.04527e-49
8.04569e-49
8.04613e-49
8.04659e-49
8.04707e-49
8.04758e-49
8.04814e-49
8.04875e-49
8.04941e-49
8.05015e-49
8.05097e-49
8.05187e-49
8.05286e-49
8.05395e-49
8.05514e-49
8.05642e-49
8.05779e-49
8.05923e-49
8.06074e-49
8.06228e-49
8.06386e-49
8.06544e-49
8.067e-49
8.06853e-49
8.07e-49
8.07139e-49
8.07271e-49
8.07393e-49
8.07505e-49
8.07608e-49
8.07701e-49
8.07787e-49
8.07866e-49
8.0794e-49
8.08011e-49
8.0808e-49
8.0815e-49
8.08223e-49
8.08299e-49
8.08381e-49
8.08469e-49
8.08565e-49
8.08668e-49
8.08779e-49
8.08896e-49
8.09021e-49
8.09151e-49
8.09286e-49
8.09425e-49
8.09566e-49
8.09708e-49
8.0985e-49
8.09991e-49
8.10133e-49
8.10287e-49
8.10509e-49
8.11069e-49
8.13224e-49
8.22787e-49
8.66526e-49
1.06705e-48
1.98324e-48
6.15071e-48
2.50207e-47
1.10081e-46
4.91847e-46
2.19814e-45
9.79391e-45
4.3478e-44
1.92309e-43
8.4764e-43
3.72377e-42
1.63079e-41
7.12106e-41
3.10104e-40
1.34702e-39
5.83751e-39
2.52438e-38
1.08953e-37
4.69414e-37
2.01921e-36
8.67337e-36
3.72082e-35
1.59439e-34
6.82504e-34
2.9189e-33
1.2473e-32
5.32593e-32
2.27255e-31
9.69032e-31
4.12934e-30
1.7585e-29
7.48377e-29
3.18279e-28
1.35268e-27
5.74472e-27
2.43794e-26
1.03383e-25
4.38067e-25
1.85483e-24
7.84784e-24
3.31816e-23
1.40208e-22
5.92123e-22
2.49956e-21
1.05483e-20
4.45064e-20
1.8883e-19
7.98691e-19
3.3724e-18
1.4238e-17
6.01304e-17
2.54058e-16
1.07397e-15
4.54241e-15
1.92228e-14
8.13914e-14
3.44793e-13
1.4613e-12
6.1959e-12
2.62803e-11
1.11506e-10
4.73252e-10
2.00905e-09
8.53019e-09
3.62165e-08
1.53642e-07
6.49532e-07
2.70988e-06
1.07899e-05
3.70129e-05
8.66742e-05
0.000120536
0.000114401
6.85671e-05
3.01334e-05
1.20846e-05
5.92155e-06
4.46897e-06
4.61963e-06
5.28375e-06
5.88441e-06
6.33669e-06
6.61728e-06
6.74986e-06
6.76966e-06
6.70923e-06
6.5946e-06
6.44499e-06
6.27407e-06
6.09146e-06
5.90369e-06
5.71522e-06
5.52904e-06
5.34712e-06
5.17069e-06
5.00051e-06
4.83698e-06
4.68028e-06
4.53041e-06
4.38729e-06
4.25073e-06
4.12052e-06
3.99641e-06
3.87815e-06
3.7655e-06
3.65821e-06
3.55612e-06
3.46197e-06
3.37338e-06
3.28831e-06
3.20661e-06
3.1281e-06
3.05263e-06
2.98005e-06
2.91023e-06
2.84303e-06
2.77833e-06
2.71601e-06
2.65595e-06
2.59804e-06
2.5422e-06
2.48831e-06
2.43629e-06
2.38604e-06
2.3375e-06
2.29058e-06
2.24521e-06
2.20131e-06
2.15883e-06
2.1177e-06
2.07787e-06
2.03927e-06
2.00185e-06
1.96557e-06
1.93038e-06
1.89623e-06
1.86308e-06
1.83089e-06
1.79962e-06
1.76924e-06
1.73971e-06
1.71099e-06
1.68306e-06
1.65589e-06
1.62945e-06
1.60371e-06
1.57864e-06
1.55423e-06
1.53044e-06
1.50726e-06
1.48466e-06
1.46262e-06
1.44113e-06
1.42017e-06
1.39971e-06
1.37974e-06
1.36025e-06
1.34122e-06
1.32263e-06
1.30447e-06
1.28673e-06
1.26939e-06
1.25244e-06
1.23587e-06
1.21967e-06
1.20382e-06
1.18833e-06
1.17318e-06
1.15836e-06
1.14387e-06
1.12971e-06
1.11584e-06
1.10219e-06
1.08882e-06
1.07573e-06
1.06289e-06
1.05031e-06
1.03799e-06
1.02591e-06
1.01406e-06
1.00244e-06
9.91051e-07
9.79877e-07
9.68915e-07
9.5816e-07
9.47607e-07
9.37249e-07
9.27082e-07
9.171e-07
9.073e-07
8.97676e-07
8.88224e-07
8.78939e-07
8.69818e-07
8.60856e-07
8.52048e-07
8.43393e-07
8.34885e-07
8.26521e-07
8.18297e-07
8.10211e-07
8.02258e-07
7.94437e-07
7.86742e-07
7.79173e-07
7.71725e-07
7.64396e-07
7.57184e-07
7.50085e-07
7.43097e-07
7.36218e-07
7.29446e-07
7.22777e-07
7.16211e-07
7.09744e-07
7.03375e-07
6.97101e-07
6.90921e-07
6.84833e-07
6.78836e-07
6.72926e-07
6.67103e-07
6.61364e-07
6.55709e-07
6.50135e-07
6.44642e-07
6.39227e-07
6.33889e-07
6.28627e-07
6.23439e-07
6.18324e-07
6.1328e-07
6.08307e-07
6.03403e-07
5.98566e-07
5.93796e-07
5.89091e-07
5.8445e-07
5.79873e-07
5.75357e-07
5.70902e-07
5.66506e-07
5.6217e-07
5.57891e-07
5.53668e-07
5.49502e-07
5.4539e-07
5.41332e-07
5.37327e-07
5.33374e-07
5.29472e-07
5.25621e-07
5.21819e-07
5.18066e-07
5.1436e-07
5.10702e-07
5.0709e-07
5.03523e-07
5.00002e-07
4.96525e-07
4.93091e-07
4.897e-07
4.86351e-07
4.83044e-07
4.79777e-07
4.76551e-07
4.73364e-07
4.70216e-07
4.67106e-07
4.64034e-07
4.61e-07
4.58001e-07
4.55039e-07
4.52112e-07
4.49221e-07
4.46363e-07
4.4354e-07
4.4075e-07
4.37994e-07
4.3527e-07
4.3258e-07
4.29921e-07
4.27296e-07
4.24705e-07
4.22148e-07
4.19629e-07
4.17149e-07
4.14714e-07
4.12331e-07
4.10014e-07
4.07784e-07
4.05678e-07
4.03761e-07
4.02155e-07
4.011e-07
)
;

boundaryField
{
    boundary
    {
        type            empty;
    }
    inlet
    {
        type            fixedValue;
        value           uniform 0;
    }
    outlet
    {
        type            zeroGradient;
    }
}


// ************************************************************************* //
