/*--------------------------------*- C++ -*----------------------------------*\
  =========                 |
  \\      /  F ield         | OpenFOAM: The Open Source CFD Toolbox
   \\    /   O peration     | Website:  https://openfoam.org
    \\  /    A nd           | Version:  7
     \\/     M anipulation  |
\*---------------------------------------------------------------------------*/
FoamFile
{
    version     2.0;
    format      ascii;
    class       volScalarField;
    location    "0.00093";
    object      HO2;
}
// * * * * * * * * * * * * * * * * * * * * * * * * * * * * * * * * * * * * * //

dimensions      [0 0 0 0 0 0 0];

internalField   nonuniform List<scalar> 
500
(
5.59391e-38
1.27322e-37
1.98981e-37
2.70708e-37
3.42457e-37
4.14212e-37
4.85965e-37
5.57705e-37
6.29416e-37
7.01081e-37
7.72676e-37
8.44179e-37
9.15563e-37
9.86804e-37
1.05788e-36
1.12878e-36
1.19949e-36
1.27002e-36
1.34038e-36
1.4106e-36
1.48071e-36
1.55075e-36
1.62078e-36
1.69087e-36
1.76108e-36
1.83147e-36
1.90211e-36
1.97307e-36
2.0444e-36
2.11618e-36
2.18844e-36
2.26126e-36
2.33467e-36
2.40874e-36
2.48352e-36
2.5591e-36
2.63554e-36
2.71294e-36
2.79141e-36
2.87108e-36
2.9521e-36
3.03463e-36
3.11885e-36
3.20496e-36
3.29317e-36
3.38369e-36
3.47674e-36
3.57253e-36
3.67127e-36
3.77312e-36
3.87823e-36
3.98672e-36
4.09864e-36
4.21398e-36
4.33269e-36
4.45463e-36
4.57958e-36
4.70727e-36
4.83733e-36
4.9693e-36
5.10269e-36
5.23692e-36
5.37135e-36
5.50532e-36
5.63813e-36
5.76908e-36
5.89746e-36
6.02259e-36
6.14382e-36
6.26056e-36
6.37226e-36
6.47847e-36
6.57881e-36
6.67299e-36
6.7608e-36
6.84213e-36
6.91697e-36
6.98537e-36
7.04747e-36
7.10347e-36
7.15363e-36
7.19826e-36
7.23771e-36
7.27234e-36
7.30254e-36
7.32871e-36
7.35123e-36
7.37049e-36
7.38685e-36
7.40066e-36
7.41224e-36
7.42189e-36
7.42989e-36
7.43647e-36
7.44186e-36
7.44624e-36
7.44978e-36
7.45263e-36
7.45491e-36
7.45672e-36
7.45816e-36
7.4593e-36
7.46019e-36
7.46089e-36
7.46144e-36
7.46187e-36
7.46221e-36
7.46249e-36
7.4627e-36
7.46288e-36
7.46303e-36
7.46316e-36
7.46327e-36
7.46337e-36
7.46347e-36
7.46356e-36
7.46365e-36
7.46374e-36
7.46382e-36
7.46391e-36
7.46399e-36
7.46402e-36
7.46384e-36
7.46288e-36
7.4588e-36
7.45074e-36
7.45086e-36
7.45099e-36
7.45112e-36
7.45126e-36
7.45141e-36
7.45157e-36
7.45174e-36
7.45192e-36
7.45211e-36
7.45231e-36
7.45252e-36
7.45274e-36
7.45297e-36
7.45321e-36
7.45346e-36
7.45372e-36
7.45398e-36
7.45424e-36
7.45451e-36
7.45479e-36
7.45507e-36
7.45535e-36
7.45565e-36
7.45596e-36
7.45629e-36
7.45664e-36
7.45702e-36
7.45743e-36
7.45789e-36
7.45838e-36
7.45893e-36
7.45952e-36
7.46015e-36
7.46084e-36
7.46156e-36
7.46233e-36
7.46312e-36
7.46394e-36
7.46476e-36
7.46559e-36
7.46641e-36
7.46721e-36
7.46798e-36
7.46872e-36
7.46941e-36
7.47006e-36
7.47067e-36
7.47123e-36
7.47176e-36
7.47225e-36
7.47271e-36
7.47315e-36
7.47359e-36
7.47402e-36
7.47447e-36
7.47493e-36
7.47542e-36
7.47594e-36
7.4765e-36
7.47709e-36
7.47773e-36
7.4784e-36
7.47911e-36
7.47986e-36
7.48063e-36
7.48143e-36
7.48224e-36
7.48306e-36
7.48389e-36
7.48471e-36
7.48552e-36
7.48631e-36
7.48708e-36
7.48782e-36
7.48854e-36
7.48922e-36
7.48986e-36
7.49046e-36
7.49102e-36
7.49154e-36
7.49202e-36
7.49245e-36
7.49286e-36
7.49324e-36
7.49365e-36
7.49426e-36
7.49561e-36
7.49937e-36
7.51088e-36
7.54691e-36
7.66022e-36
8.0163e-36
9.13326e-36
1.26304e-35
2.35608e-35
5.7675e-35
1.64023e-34
4.95286e-34
1.52672e-33
4.73855e-33
1.47475e-32
4.5986e-32
1.43733e-31
4.50768e-31
1.4205e-30
4.50633e-30
1.44239e-29
4.67064e-29
1.53462e-28
5.13218e-28
1.75207e-27
6.12028e-27
2.19063e-26
8.03595e-26
3.01804e-25
1.15807e-24
4.52763e-24
1.7981e-23
7.23226e-23
2.93821e-22
1.20296e-21
4.95427e-21
2.04949e-20
8.50708e-20
3.54027e-19
1.48453e-18
6.21533e-18
2.60041e-17
1.08862e-16
4.56075e-16
1.91203e-15
8.0206e-15
3.36609e-14
1.41322e-13
5.93486e-13
2.49281e-12
1.04713e-11
4.39839e-11
1.84724e-10
7.75588e-10
3.25501e-09
1.36523e-08
5.7194e-08
2.38999e-07
9.92385e-07
4.06155e-06
1.61242e-05
5.9722e-05
0.000188823
0.000417907
0.000521221
0.00046348
0.000352551
0.000251119
0.000176179
0.000123293
8.62664e-05
6.11768e-05
4.25792e-05
3.18535e-05
2.49835e-05
2.0502e-05
1.74862e-05
1.53745e-05
1.38307e-05
1.26539e-05
1.17222e-05
1.09607e-05
1.03218e-05
9.77437e-06
9.29747e-06
8.87651e-06
8.50098e-06
8.1631e-06
7.8569e-06
7.57775e-06
7.32196e-06
7.08653e-06
6.86902e-06
6.66737e-06
6.47987e-06
6.30505e-06
6.14169e-06
5.98872e-06
5.84527e-06
5.71065e-06
5.58802e-06
5.47376e-06
5.36507e-06
5.26155e-06
5.16285e-06
5.06865e-06
4.97865e-06
4.89257e-06
4.81018e-06
4.73125e-06
4.65557e-06
4.58294e-06
4.51319e-06
4.44616e-06
4.38168e-06
4.31962e-06
4.25984e-06
4.20223e-06
4.14667e-06
4.09306e-06
4.04129e-06
3.99127e-06
3.94293e-06
3.89617e-06
3.85093e-06
3.80713e-06
3.76471e-06
3.72361e-06
3.68376e-06
3.64511e-06
3.60762e-06
3.57123e-06
3.53589e-06
3.50157e-06
3.46822e-06
3.4358e-06
3.40428e-06
3.37362e-06
3.34378e-06
3.31475e-06
3.28648e-06
3.25895e-06
3.23214e-06
3.20601e-06
3.18054e-06
3.15571e-06
3.1315e-06
3.10788e-06
3.08484e-06
3.06236e-06
3.04042e-06
3.01899e-06
2.99807e-06
2.97764e-06
2.95769e-06
2.93819e-06
2.91914e-06
2.90053e-06
2.88233e-06
2.86455e-06
2.84716e-06
2.83017e-06
2.81357e-06
2.79736e-06
2.78148e-06
2.7659e-06
2.75065e-06
2.73573e-06
2.72112e-06
2.70681e-06
2.69281e-06
2.67909e-06
2.66566e-06
2.6525e-06
2.63961e-06
2.62697e-06
2.6146e-06
2.60246e-06
2.59057e-06
2.57891e-06
2.56747e-06
2.55626e-06
2.54526e-06
2.53446e-06
2.52387e-06
2.51347e-06
2.50326e-06
2.49324e-06
2.4834e-06
2.47373e-06
2.46423e-06
2.45489e-06
2.44572e-06
2.43669e-06
2.42782e-06
2.4191e-06
2.41052e-06
2.40208e-06
2.39377e-06
2.38559e-06
2.37755e-06
2.36962e-06
2.36182e-06
2.35414e-06
2.34658e-06
2.33913e-06
2.33178e-06
2.32455e-06
2.31743e-06
2.31041e-06
2.30349e-06
2.29667e-06
2.28995e-06
2.28333e-06
2.2768e-06
2.27037e-06
2.26402e-06
2.25777e-06
2.25161e-06
2.24553e-06
2.23954e-06
2.23364e-06
2.22781e-06
2.22207e-06
2.21641e-06
2.21083e-06
2.20533e-06
2.1999e-06
2.19454e-06
2.18927e-06
2.18406e-06
2.17892e-06
2.17386e-06
2.16886e-06
2.16394e-06
2.15908e-06
2.15428e-06
2.14955e-06
2.14488e-06
2.14027e-06
2.13573e-06
2.13125e-06
2.12682e-06
2.12245e-06
2.11814e-06
2.11389e-06
2.1097e-06
2.10555e-06
2.10147e-06
2.09743e-06
2.09345e-06
2.08951e-06
2.08563e-06
2.0818e-06
2.07802e-06
2.07428e-06
2.0706e-06
2.06695e-06
2.06336e-06
2.0598e-06
2.05629e-06
2.05283e-06
2.0494e-06
2.04601e-06
2.04267e-06
2.03936e-06
2.03608e-06
2.03285e-06
2.02964e-06
2.02647e-06
2.02332e-06
2.02021e-06
2.01712e-06
2.01406e-06
2.01102e-06
2.00801e-06
2.00501e-06
2.00203e-06
1.99907e-06
1.99613e-06
1.99321e-06
1.99031e-06
1.98744e-06
1.98462e-06
1.98188e-06
1.97929e-06
1.97702e-06
1.97542e-06
)
;

boundaryField
{
    boundary
    {
        type            empty;
    }
    inlet
    {
        type            fixedValue;
        value           uniform 0;
    }
    outlet
    {
        type            zeroGradient;
    }
}


// ************************************************************************* //
