/*--------------------------------*- C++ -*----------------------------------*\
  =========                 |
  \\      /  F ield         | OpenFOAM: The Open Source CFD Toolbox
   \\    /   O peration     | Website:  https://openfoam.org
    \\  /    A nd           | Version:  7
     \\/     M anipulation  |
\*---------------------------------------------------------------------------*/
FoamFile
{
    version     2.0;
    format      ascii;
    class       volScalarField;
    location    "0.00093";
    object      O;
}
// * * * * * * * * * * * * * * * * * * * * * * * * * * * * * * * * * * * * * //

dimensions      [0 0 0 0 0 0 0];

internalField   nonuniform List<scalar> 
500
(
1.57788e-47
3.76513e-47
5.96503e-47
8.16615e-47
1.03659e-46
1.25635e-46
1.47584e-46
1.69503e-46
1.91386e-46
2.13225e-46
2.35011e-46
2.56737e-46
2.78394e-46
2.99974e-46
3.2147e-46
3.42879e-46
3.64199e-46
3.85432e-46
4.06585e-46
4.27669e-46
4.48696e-46
4.69685e-46
4.90656e-46
5.11631e-46
5.32636e-46
5.53696e-46
5.74836e-46
5.96082e-46
6.1746e-46
6.38993e-46
6.60707e-46
6.82625e-46
7.04774e-46
7.2718e-46
7.49872e-46
7.72882e-46
7.96247e-46
8.20009e-46
8.44214e-46
8.68917e-46
8.94177e-46
9.20059e-46
9.46635e-46
9.73981e-46
1.00218e-45
1.03131e-45
1.06145e-45
1.09269e-45
1.12509e-45
1.15874e-45
1.19368e-45
1.22996e-45
1.26761e-45
1.30664e-45
1.34703e-45
1.38876e-45
1.43177e-45
1.47596e-45
1.52122e-45
1.56743e-45
1.6144e-45
1.66197e-45
1.70991e-45
1.75801e-45
1.80603e-45
1.85373e-45
1.90085e-45
1.94715e-45
1.99238e-45
2.03632e-45
2.07875e-45
2.11948e-45
2.15835e-45
2.19521e-45
2.22994e-45
2.26247e-45
2.29275e-45
2.32075e-45
2.34648e-45
2.36998e-45
2.3913e-45
2.41052e-45
2.42774e-45
2.44307e-45
2.45662e-45
2.46854e-45
2.47894e-45
2.48798e-45
2.49577e-45
2.50244e-45
2.50813e-45
2.51295e-45
2.517e-45
2.52039e-45
2.52321e-45
2.52555e-45
2.52746e-45
2.52903e-45
2.5303e-45
2.53133e-45
2.53216e-45
2.53283e-45
2.53336e-45
2.53378e-45
2.53412e-45
2.53438e-45
2.53459e-45
2.53476e-45
2.5349e-45
2.53501e-45
2.53509e-45
2.53517e-45
2.53523e-45
2.53529e-45
2.53534e-45
2.53538e-45
2.53543e-45
2.53547e-45
2.53551e-45
2.53554e-45
2.53556e-45
2.53552e-45
2.53534e-45
2.53474e-45
2.53292e-45
2.53029e-45
2.53034e-45
2.5304e-45
2.53046e-45
2.53052e-45
2.53059e-45
2.53066e-45
2.53074e-45
2.53082e-45
2.5309e-45
2.53099e-45
2.53109e-45
2.53119e-45
2.5313e-45
2.53141e-45
2.53153e-45
2.53165e-45
2.53178e-45
2.53192e-45
2.53206e-45
2.53222e-45
2.53238e-45
2.53255e-45
2.53274e-45
2.53294e-45
2.53316e-45
2.53339e-45
2.53364e-45
2.53391e-45
2.5342e-45
2.53451e-45
2.53484e-45
2.53518e-45
2.53554e-45
2.53592e-45
2.5363e-45
2.53669e-45
2.53708e-45
2.53747e-45
2.53786e-45
2.53824e-45
2.53861e-45
2.53897e-45
2.53932e-45
2.53965e-45
2.53996e-45
2.54026e-45
2.54054e-45
2.54081e-45
2.54106e-45
2.5413e-45
2.54153e-45
2.54176e-45
2.54197e-45
2.54218e-45
2.54239e-45
2.5426e-45
2.5428e-45
2.54301e-45
2.54322e-45
2.54343e-45
2.54365e-45
2.54387e-45
2.54412e-45
2.54442e-45
2.54492e-45
2.54609e-45
2.54951e-45
2.56066e-45
2.59797e-45
2.72368e-45
3.14654e-45
4.56375e-45
9.29348e-45
2.50099e-44
7.70083e-44
2.48317e-43
8.10348e-43
2.64678e-42
8.62359e-42
2.80008e-41
9.05893e-41
2.92022e-40
9.38056e-40
3.0031e-39
9.58287e-39
3.04837e-38
9.66822e-38
3.05772e-37
9.64461e-37
3.03441e-36
9.52424e-36
2.98277e-35
9.32196e-35
2.90775e-34
9.05386e-34
2.81447e-33
8.73586e-33
2.7078e-32
8.38272e-32
2.59214e-31
8.00724e-31
2.47117e-30
7.61994e-30
2.34782e-29
7.22888e-29
2.22429e-28
6.83984e-28
2.10207e-27
6.45666e-27
1.98214e-26
6.08175e-26
1.86507e-25
5.71659e-25
1.75128e-24
5.36232e-24
1.6411e-23
5.02012e-23
1.53497e-22
4.69145e-22
1.43338e-21
4.3781e-21
1.33694e-20
4.08197e-20
1.24623e-19
3.8048e-19
1.16688e-18
3.57305e-18
1.09225e-17
3.33781e-17
1.02012e-16
3.11857e-16
9.53665e-16
2.91727e-15
8.92682e-15
2.73241e-14
8.36595e-14
2.56206e-13
7.84798e-13
2.40441e-12
7.36768e-12
2.25799e-11
6.92128e-11
2.12199e-10
6.50845e-10
1.99859e-09
6.16499e-09
1.93709e-08
6.52491e-08
2.69311e-07
1.56568e-06
1.0883e-05
5.97291e-05
0.000252146
0.000821213
0.00189443
0.00325115
0.00451691
0.00545888
0.00606154
0.00634482
0.00643805
0.00641221
0.00631606
0.00618121
0.00602722
0.00586586
0.00570396
0.00554537
0.00539214
0.00524526
0.00510508
0.0049716
0.00484462
0.00472386
0.00460896
0.00449958
0.00439537
0.004296
0.00420115
0.00411054
0.0040239
0.003941
0.0038616
0.00378552
0.00371258
0.00364265
0.00357762
0.00351614
0.00345668
0.00339914
0.00334342
0.00328944
0.00323711
0.00318635
0.00313711
0.0030893
0.00304288
0.00299776
0.00295391
0.00291127
0.00286978
0.00282939
0.00279007
0.00275177
0.00271444
0.00267805
0.00264257
0.00260795
0.00257417
0.0025412
0.00250899
0.00247754
0.0024468
0.00241676
0.00238738
0.00235866
0.00233056
0.00230307
0.00227616
0.00224981
0.00222402
0.00219875
0.002174
0.00214975
0.00212598
0.00210268
0.00207983
0.00205743
0.00203545
0.00201389
0.00199274
0.00197197
0.0019516
0.00193159
0.00191194
0.00189265
0.00187371
0.0018551
0.00183681
0.00181884
0.00180119
0.00178384
0.00176679
0.00175002
0.00173354
0.00171735
0.00170142
0.00168577
0.00167038
0.00165527
0.00164038
0.00162568
0.00161122
0.00159699
0.00158298
0.00156918
0.00155561
0.00154224
0.00152908
0.00151612
0.00150335
0.00149077
0.00147838
0.00146618
0.00145415
0.0014423
0.00143062
0.00141911
0.00140775
0.00139656
0.00138553
0.00137465
0.00136391
0.00135332
0.00134288
0.00133257
0.0013224
0.00131236
0.00130246
0.00129268
0.00128303
0.00127349
0.00126408
0.00125479
0.00124561
0.00123655
0.00122759
0.00121875
0.00121001
0.00120138
0.00119285
0.00118442
0.0011761
0.00116787
0.00115974
0.0011517
0.00114376
0.00113591
0.00112815
0.00112048
0.0011129
0.00110541
0.001098
0.00109068
0.00108345
0.00107629
0.00106922
0.00106223
0.00105531
0.00104848
0.00104172
0.00103504
0.00102843
0.0010219
0.00101544
0.00100906
0.00100274
0.000996495
0.000990318
0.00098421
0.000978169
0.000972194
0.000966285
0.000960441
0.00095466
0.000948942
0.000943286
0.000937691
0.000932156
0.000926681
0.000921266
0.000915908
0.000910608
0.000905364
0.000900177
0.000895044
0.000889967
0.000884943
0.000879973
0.000875056
0.00087019
0.000865376
0.000860613
0.0008559
0.000851237
0.000846622
0.000842056
0.000837537
0.000833066
0.000828641
0.000824262
0.000819928
0.00081564
0.000811395
0.000807194
0.000803036
0.000798921
0.000794849
0.000790819
0.000786832
0.000782888
0.000778989
0.000775136
0.000771331
0.000767579
0.000763888
0.000760266
0.000756729
0.000753303
0.000750025
0.000746957
0.000744204
0.000741943
0.000740499
)
;

boundaryField
{
    boundary
    {
        type            empty;
    }
    inlet
    {
        type            fixedValue;
        value           uniform 0;
    }
    outlet
    {
        type            zeroGradient;
    }
}


// ************************************************************************* //
