/*--------------------------------*- C++ -*----------------------------------*\
  =========                 |
  \\      /  F ield         | OpenFOAM: The Open Source CFD Toolbox
   \\    /   O peration     | Website:  https://openfoam.org
    \\  /    A nd           | Version:  7
     \\/     M anipulation  |
\*---------------------------------------------------------------------------*/
FoamFile
{
    version     2.0;
    format      ascii;
    class       volScalarField;
    location    "0.00093";
    object      O2;
}
// * * * * * * * * * * * * * * * * * * * * * * * * * * * * * * * * * * * * * //

dimensions      [0 0 0 0 0 0 0];

internalField   nonuniform List<scalar> 
500
(
0.226269
0.226269
0.226269
0.226269
0.226269
0.226269
0.226269
0.226269
0.226269
0.226269
0.226269
0.226269
0.226269
0.226269
0.226269
0.226269
0.226269
0.226269
0.226269
0.226269
0.226269
0.226269
0.226269
0.226269
0.226269
0.226269
0.226269
0.226269
0.226269
0.226269
0.226269
0.226269
0.226269
0.226269
0.226269
0.226269
0.226269
0.226269
0.226269
0.226269
0.226269
0.226269
0.226269
0.226269
0.226269
0.226269
0.226269
0.226269
0.226269
0.226269
0.226269
0.226269
0.226269
0.226269
0.226269
0.226269
0.226269
0.226269
0.226269
0.226269
0.226269
0.226269
0.226269
0.226269
0.226269
0.226269
0.226269
0.226269
0.226269
0.226269
0.226269
0.226269
0.226269
0.226269
0.226269
0.226269
0.226269
0.226269
0.226269
0.226269
0.226269
0.226269
0.226269
0.226269
0.226269
0.226269
0.226269
0.226269
0.226269
0.226269
0.226269
0.226269
0.226269
0.226269
0.226269
0.226269
0.226269
0.226269
0.226269
0.226269
0.226269
0.226269
0.226269
0.226269
0.226269
0.226269
0.226269
0.226269
0.226269
0.226269
0.226269
0.226269
0.226269
0.226269
0.226269
0.226269
0.226269
0.226269
0.226269
0.226269
0.226269
0.226269
0.226269
0.226269
0.226269
0.226269
0.226269
0.226269
0.226269
0.226269
0.226269
0.226269
0.226269
0.226269
0.226269
0.226269
0.226269
0.226269
0.226269
0.226269
0.226269
0.226269
0.226269
0.226269
0.226269
0.226269
0.226269
0.226269
0.226269
0.226269
0.226269
0.226269
0.226269
0.226269
0.226269
0.226269
0.226269
0.226269
0.226269
0.226269
0.226269
0.226269
0.226269
0.226269
0.226269
0.226269
0.226269
0.226269
0.226269
0.226269
0.226269
0.226269
0.226269
0.226269
0.226269
0.226269
0.226269
0.226269
0.226269
0.226269
0.226269
0.226269
0.226269
0.226269
0.226269
0.226269
0.226269
0.226269
0.226269
0.226269
0.226269
0.226269
0.226269
0.226269
0.226269
0.226269
0.226269
0.226269
0.226269
0.226269
0.226269
0.226269
0.226269
0.226269
0.226269
0.226269
0.226269
0.226269
0.226269
0.226269
0.226269
0.226269
0.226269
0.226269
0.226269
0.226269
0.226269
0.226269
0.226269
0.226269
0.226269
0.226269
0.226269
0.226269
0.226269
0.226269
0.226269
0.226269
0.226269
0.226269
0.226269
0.226269
0.226269
0.226269
0.226269
0.226269
0.226269
0.226269
0.226269
0.226269
0.226269
0.226269
0.226269
0.226269
0.226269
0.226269
0.226269
0.226269
0.226269
0.226269
0.226269
0.226269
0.226269
0.226269
0.226269
0.226269
0.226269
0.226269
0.226269
0.226269
0.226269
0.226269
0.226269
0.226269
0.226269
0.226269
0.226269
0.22627
0.226271
0.226274
0.226277
0.226278
0.226257
0.22613
0.225588
0.223777
0.219011
0.209604
0.196438
0.179826
0.158564
0.133335
0.107985
0.0868137
0.0682926
0.0567384
0.0488951
0.0435959
0.0399635
0.0374013
0.0355242
0.034089
0.0329441
0.0319944
0.0311804
0.0304641
0.0298207
0.0292338
0.0286922
0.0281881
0.0277157
0.0272707
0.0268497
0.0264503
0.0260702
0.0257077
0.0253614
0.0250301
0.0247127
0.0244084
0.0241164
0.0238364
0.0235763
0.0233289
0.0230891
0.0228566
0.0226311
0.0224121
0.0221994
0.0219927
0.0217916
0.021596
0.0214056
0.0212202
0.0210394
0.0208631
0.0206911
0.0205233
0.0203593
0.0201991
0.0200425
0.0198893
0.0197394
0.0195927
0.0194491
0.0193083
0.0191704
0.0190352
0.0189026
0.0187725
0.0186448
0.0185195
0.0183964
0.0182755
0.0181568
0.0180401
0.0179254
0.0178126
0.0177017
0.0175926
0.0174853
0.0173797
0.0172757
0.0171734
0.0170727
0.0169734
0.0168757
0.0167795
0.0166846
0.0165912
0.0164991
0.0164083
0.0163188
0.0162306
0.0161436
0.0160578
0.0159733
0.0158898
0.0158076
0.0157264
0.0156464
0.0155674
0.0154896
0.0154128
0.0153371
0.0152625
0.0151889
0.0151161
0.0150442
0.0149733
0.0149032
0.0148341
0.0147658
0.0146984
0.0146318
0.0145661
0.0145012
0.0144371
0.0143737
0.0143111
0.0142493
0.0141881
0.0141277
0.014068
0.0140089
0.0139505
0.0138928
0.0138356
0.0137791
0.0137231
0.0136677
0.0136129
0.0135586
0.0135049
0.0134517
0.0133989
0.0133467
0.0132949
0.0132436
0.0131928
0.0131424
0.0130924
0.0130429
0.0129938
0.0129451
0.0128968
0.0128489
0.0128014
0.0127542
0.0127075
0.0126611
0.0126152
0.0125695
0.0125243
0.0124794
0.0124349
0.0123907
0.0123469
0.0123035
0.0122604
0.0122176
0.0121753
0.0121332
0.0120915
0.0120501
0.0120091
0.0119684
0.0119281
0.011888
0.0118483
0.011809
0.0117699
0.0117312
0.0116928
0.0116547
0.011617
0.0115795
0.0115423
0.0115055
0.0114689
0.0114327
0.0113967
0.0113611
0.0113257
0.0112906
0.0112558
0.0112213
0.011187
0.0111531
0.0111194
0.0110859
0.0110528
0.0110199
0.0109873
0.0109549
0.0109228
0.0108909
0.0108593
0.010828
0.0107968
0.0107659
0.0107353
0.0107049
0.0106747
0.0106447
0.0106149
0.0105853
0.010556
0.0105268
0.0104978
0.010469
0.0104403
0.0104118
0.0103835
0.0103553
0.0103272
0.0102992
0.0102713
0.0102435
0.0102158
0.0101881
0.0101605
0.0101329
0.0101053
0.0100779
0.0100507
0.0100241
0.00999871
0.0099763
0.00996059
)
;

boundaryField
{
    boundary
    {
        type            empty;
    }
    inlet
    {
        type            fixedValue;
        value           uniform 0.226269;
    }
    outlet
    {
        type            zeroGradient;
    }
}


// ************************************************************************* //
