/*--------------------------------*- C++ -*----------------------------------*\
  =========                 |
  \\      /  F ield         | OpenFOAM: The Open Source CFD Toolbox
   \\    /   O peration     | Website:  https://openfoam.org
    \\  /    A nd           | Version:  7
     \\/     M anipulation  |
\*---------------------------------------------------------------------------*/
FoamFile
{
    version     2.0;
    format      ascii;
    class       surfaceScalarField;
    location    "0.00093";
    object      phi;
}
// * * * * * * * * * * * * * * * * * * * * * * * * * * * * * * * * * * * * * //

dimensions      [1 0 -1 0 0 0 0];

internalField   nonuniform List<scalar> 
499
(
6.93098e-06
6.93097e-06
6.93096e-06
6.93095e-06
6.93094e-06
6.93094e-06
6.93094e-06
6.93094e-06
6.93094e-06
6.93095e-06
6.93096e-06
6.93097e-06
6.931e-06
6.93102e-06
6.93106e-06
6.93111e-06
6.93116e-06
6.93123e-06
6.9313e-06
6.93138e-06
6.93146e-06
6.93155e-06
6.93165e-06
6.93174e-06
6.93183e-06
6.93192e-06
6.932e-06
6.93207e-06
6.93213e-06
6.93217e-06
6.9322e-06
6.93222e-06
6.93222e-06
6.9322e-06
6.93217e-06
6.93211e-06
6.93203e-06
6.93193e-06
6.93181e-06
6.93167e-06
6.93149e-06
6.93129e-06
6.93106e-06
6.9308e-06
6.9305e-06
6.93017e-06
6.92979e-06
6.92937e-06
6.9289e-06
6.92839e-06
6.92782e-06
6.92721e-06
6.92654e-06
6.92581e-06
6.92504e-06
6.92421e-06
6.92333e-06
6.9224e-06
6.92143e-06
6.92042e-06
6.91938e-06
6.9183e-06
6.9172e-06
6.91609e-06
6.91497e-06
6.91385e-06
6.91273e-06
6.91163e-06
6.91054e-06
6.90948e-06
6.90846e-06
6.90747e-06
6.90652e-06
6.90562e-06
6.90477e-06
6.90397e-06
6.90323e-06
6.90254e-06
6.9019e-06
6.90132e-06
6.90079e-06
6.90031e-06
6.89988e-06
6.89949e-06
6.89915e-06
6.89885e-06
6.89858e-06
6.89835e-06
6.89815e-06
6.89798e-06
6.89783e-06
6.8977e-06
6.89759e-06
6.8975e-06
6.89743e-06
6.89736e-06
6.89731e-06
6.89726e-06
6.89722e-06
6.89719e-06
6.89716e-06
6.89714e-06
6.89712e-06
6.8971e-06
6.89709e-06
6.89707e-06
6.89706e-06
6.89705e-06
6.89703e-06
6.89702e-06
6.89701e-06
6.897e-06
6.89699e-06
6.89698e-06
6.89697e-06
6.89695e-06
6.89694e-06
6.89693e-06
6.89691e-06
6.8969e-06
6.89689e-06
6.89687e-06
6.89686e-06
6.89684e-06
6.89683e-06
6.89681e-06
6.8968e-06
6.89678e-06
6.89676e-06
6.89674e-06
6.89672e-06
6.8967e-06
6.89668e-06
6.89666e-06
6.89664e-06
6.89662e-06
6.8966e-06
6.89658e-06
6.89655e-06
6.89653e-06
6.89651e-06
6.89648e-06
6.89646e-06
6.89643e-06
6.8964e-06
6.89638e-06
6.89635e-06
6.89633e-06
6.8963e-06
6.89627e-06
6.89625e-06
6.89622e-06
6.89619e-06
6.89617e-06
6.89614e-06
6.89611e-06
6.89608e-06
6.89605e-06
6.89602e-06
6.89599e-06
6.89596e-06
6.89593e-06
6.8959e-06
6.89587e-06
6.89584e-06
6.8958e-06
6.89577e-06
6.89574e-06
6.8957e-06
6.89567e-06
6.89563e-06
6.8956e-06
6.89556e-06
6.89553e-06
6.89549e-06
6.89546e-06
6.89542e-06
6.89538e-06
6.89534e-06
6.89531e-06
6.89527e-06
6.89523e-06
6.89519e-06
6.89515e-06
6.89512e-06
6.89508e-06
6.89504e-06
6.895e-06
6.89496e-06
6.89492e-06
6.89488e-06
6.89483e-06
6.89479e-06
6.89475e-06
6.89471e-06
6.89467e-06
6.89463e-06
6.89459e-06
6.89454e-06
6.8945e-06
6.89446e-06
6.89442e-06
6.89438e-06
6.89433e-06
6.89429e-06
6.89425e-06
6.89421e-06
6.89417e-06
6.89412e-06
6.89408e-06
6.89404e-06
6.894e-06
6.89396e-06
6.89392e-06
6.89387e-06
6.89383e-06
6.89379e-06
6.89375e-06
6.89371e-06
6.89367e-06
6.89363e-06
6.89359e-06
6.89355e-06
6.89352e-06
6.89348e-06
6.89344e-06
6.8934e-06
6.89337e-06
6.89333e-06
6.8933e-06
6.89326e-06
6.89323e-06
6.89319e-06
6.89316e-06
6.89313e-06
6.8931e-06
6.89307e-06
6.89304e-06
6.89301e-06
6.89298e-06
6.89295e-06
6.89293e-06
6.8929e-06
6.89288e-06
6.89286e-06
6.89283e-06
6.89281e-06
6.89279e-06
6.89277e-06
6.89276e-06
6.89274e-06
6.89272e-06
6.89271e-06
6.8927e-06
6.89269e-06
6.89267e-06
6.89267e-06
6.89266e-06
6.89265e-06
6.89264e-06
6.89264e-06
6.89264e-06
6.89263e-06
6.89263e-06
6.89263e-06
6.89263e-06
6.89264e-06
6.89265e-06
6.8927e-06
6.89286e-06
6.89335e-06
6.89484e-06
6.8992e-06
6.91146e-06
6.94188e-06
6.99767e-06
7.06148e-06
7.11018e-06
7.14163e-06
7.16223e-06
7.17645e-06
7.18627e-06
7.19235e-06
7.19667e-06
7.2006e-06
7.20396e-06
7.20657e-06
7.20867e-06
7.21041e-06
7.21189e-06
7.21316e-06
7.21427e-06
7.21524e-06
7.21612e-06
7.2169e-06
7.21761e-06
7.21825e-06
7.21884e-06
7.21938e-06
7.21987e-06
7.22033e-06
7.22074e-06
7.22113e-06
7.22148e-06
7.2218e-06
7.22209e-06
7.22236e-06
7.2226e-06
7.22283e-06
7.22303e-06
7.22322e-06
7.2234e-06
7.22355e-06
7.22369e-06
7.22383e-06
7.22396e-06
7.22408e-06
7.2242e-06
7.22431e-06
7.22442e-06
7.22453e-06
7.22463e-06
7.22474e-06
7.22484e-06
7.22494e-06
7.22504e-06
7.22513e-06
7.22523e-06
7.22532e-06
7.22541e-06
7.2255e-06
7.22559e-06
7.22567e-06
7.22576e-06
7.22584e-06
7.22592e-06
7.22599e-06
7.22607e-06
7.22614e-06
7.22622e-06
7.22629e-06
7.22636e-06
7.22642e-06
7.22649e-06
7.22655e-06
7.22662e-06
7.22668e-06
7.22674e-06
7.2268e-06
7.22686e-06
7.22691e-06
7.22697e-06
7.22703e-06
7.22708e-06
7.22714e-06
7.22719e-06
7.22725e-06
7.2273e-06
7.22735e-06
7.22741e-06
7.22746e-06
7.22751e-06
7.22756e-06
7.22761e-06
7.22766e-06
7.22771e-06
7.22776e-06
7.22781e-06
7.22786e-06
7.22791e-06
7.22796e-06
7.228e-06
7.22805e-06
7.22809e-06
7.22814e-06
7.22818e-06
7.22822e-06
7.22826e-06
7.2283e-06
7.22834e-06
7.22838e-06
7.22842e-06
7.22845e-06
7.22849e-06
7.22852e-06
7.22855e-06
7.22858e-06
7.22861e-06
7.22864e-06
7.22867e-06
7.2287e-06
7.22873e-06
7.22875e-06
7.22878e-06
7.2288e-06
7.22883e-06
7.22885e-06
7.22888e-06
7.2289e-06
7.22892e-06
7.22895e-06
7.22897e-06
7.229e-06
7.22902e-06
7.22905e-06
7.22907e-06
7.2291e-06
7.22912e-06
7.22915e-06
7.22918e-06
7.2292e-06
7.22923e-06
7.22926e-06
7.22929e-06
7.22932e-06
7.22935e-06
7.22938e-06
7.22941e-06
7.22944e-06
7.22947e-06
7.2295e-06
7.22954e-06
7.22957e-06
7.2296e-06
7.22963e-06
7.22966e-06
7.22969e-06
7.22972e-06
7.22975e-06
7.22978e-06
7.22981e-06
7.22984e-06
7.22986e-06
7.22989e-06
7.22992e-06
7.22994e-06
7.22997e-06
7.22999e-06
7.23001e-06
7.23003e-06
7.23006e-06
7.23008e-06
7.2301e-06
7.23011e-06
7.23013e-06
7.23015e-06
7.23016e-06
7.23018e-06
7.23019e-06
7.23021e-06
7.23022e-06
7.23023e-06
7.23024e-06
7.23025e-06
7.23026e-06
7.23027e-06
7.23028e-06
7.23028e-06
7.23029e-06
7.23029e-06
7.23029e-06
7.23029e-06
7.23029e-06
7.23029e-06
7.23029e-06
7.23028e-06
7.23028e-06
7.23027e-06
7.23026e-06
7.23025e-06
7.23024e-06
7.23023e-06
7.23021e-06
7.2302e-06
7.23018e-06
7.23016e-06
7.23013e-06
7.23011e-06
7.23008e-06
7.23005e-06
7.23002e-06
7.22999e-06
7.22995e-06
7.22992e-06
7.22988e-06
7.22983e-06
7.22979e-06
7.22974e-06
7.22969e-06
7.22964e-06
7.22959e-06
7.22953e-06
7.22947e-06
7.22941e-06
7.22935e-06
7.22928e-06
7.22922e-06
7.22915e-06
7.22908e-06
)
;

boundaryField
{
    boundary
    {
        type            empty;
        value           nonuniform 0();
    }
    inlet
    {
        type            calculated;
        value           uniform -6.93097e-06;
    }
    outlet
    {
        type            calculated;
        value           uniform 7.22901e-06;
    }
}


// ************************************************************************* //
