/*--------------------------------*- C++ -*----------------------------------*\
  =========                 |
  \\      /  F ield         | OpenFOAM: The Open Source CFD Toolbox
   \\    /   O peration     | Website:  https://openfoam.org
    \\  /    A nd           | Version:  7
     \\/     M anipulation  |
\*---------------------------------------------------------------------------*/
FoamFile
{
    version     2.0;
    format      ascii;
    class       volScalarField;
    location    "0.00093";
    object      Qdot;
}
// * * * * * * * * * * * * * * * * * * * * * * * * * * * * * * * * * * * * * //

dimensions      [1 -1 -3 0 0 0 0];

internalField   nonuniform List<scalar> 
500
(
-2.45232e-27
-1.86313e-27
-1.73659e-27
-1.70974e-27
-1.70433e-27
-1.70351e-27
-1.70364e-27
-1.70393e-27
-1.7042e-27
-1.7044e-27
-1.7045e-27
-1.70446e-27
-1.70428e-27
-1.70392e-27
-1.70337e-27
-1.70262e-27
-1.70168e-27
-1.70054e-27
-1.69923e-27
-1.69778e-27
-1.69621e-27
-1.69458e-27
-1.69292e-27
-1.6913e-27
-1.68975e-27
-1.68833e-27
-1.6871e-27
-1.68609e-27
-1.68534e-27
-1.6849e-27
-1.68478e-27
-1.68502e-27
-1.68564e-27
-1.68667e-27
-1.68811e-27
-1.69e-27
-1.69236e-27
-1.69521e-27
-1.69859e-27
-1.70253e-27
-1.70709e-27
-1.71231e-27
-1.71825e-27
-1.72498e-27
-1.73256e-27
-1.74107e-27
-1.75058e-27
-1.76117e-27
-1.77291e-27
-1.78588e-27
-1.80014e-27
-1.81575e-27
-1.83276e-27
-1.85121e-27
-1.8711e-27
-1.89245e-27
-1.91525e-27
-1.93945e-27
-1.965e-27
-1.99182e-27
-2.01981e-27
-2.04884e-27
-2.07878e-27
-2.10945e-27
-2.14069e-27
-2.17228e-27
-2.20404e-27
-2.23575e-27
-2.2672e-27
-2.29818e-27
-2.32849e-27
-2.35794e-27
-2.38636e-27
-2.41358e-27
-2.43949e-27
-2.46397e-27
-2.48694e-27
-2.50834e-27
-2.52814e-27
-2.54633e-27
-2.56293e-27
-2.57798e-27
-2.59152e-27
-2.60363e-27
-2.61439e-27
-2.62388e-27
-2.63219e-27
-2.63944e-27
-2.64571e-27
-2.6511e-27
-2.65571e-27
-2.65962e-27
-2.66293e-27
-2.6657e-27
-2.66801e-27
-2.66993e-27
-2.67151e-27
-2.67281e-27
-2.67387e-27
-2.67473e-27
-2.67542e-27
-2.67598e-27
-2.67643e-27
-2.67679e-27
-2.67707e-27
-2.6773e-27
-2.67748e-27
-2.67762e-27
-2.67774e-27
-2.67783e-27
-2.67791e-27
-2.67797e-27
-2.67803e-27
-2.67808e-27
-2.67812e-27
-2.67816e-27
-2.67819e-27
-2.67823e-27
-2.67826e-27
-2.6783e-27
-2.67833e-27
-2.67837e-27
-2.6784e-27
-2.67843e-27
-2.67843e-27
-2.67842e-27
-2.67845e-27
-2.6785e-27
-2.67856e-27
-2.67862e-27
-2.67868e-27
-2.67875e-27
-2.67883e-27
-2.67891e-27
-2.679e-27
-2.67909e-27
-2.67919e-27
-2.6793e-27
-2.67941e-27
-2.67953e-27
-2.67965e-27
-2.67977e-27
-2.6799e-27
-2.68001e-27
-2.68013e-27
-2.68024e-27
-2.68034e-27
-2.68044e-27
-2.68053e-27
-2.68061e-27
-2.68069e-27
-2.68077e-27
-2.68085e-27
-2.68092e-27
-2.681e-27
-2.68107e-27
-2.68115e-27
-2.68124e-27
-2.68133e-27
-2.68142e-27
-2.68152e-27
-2.68163e-27
-2.68175e-27
-2.68187e-27
-2.68199e-27
-2.68212e-27
-2.68226e-27
-2.6824e-27
-2.68254e-27
-2.68269e-27
-2.68284e-27
-2.68299e-27
-2.68314e-27
-2.6833e-27
-2.68346e-27
-2.68362e-27
-2.68378e-27
-2.68394e-27
-2.6841e-27
-2.68427e-27
-2.68444e-27
-2.6846e-27
-2.68477e-27
-2.68494e-27
-2.68512e-27
-2.68529e-27
-2.68546e-27
-2.68564e-27
-2.68581e-27
-2.68599e-27
-2.68616e-27
-2.68634e-27
-2.68651e-27
-2.68669e-27
-2.68686e-27
-2.68703e-27
-2.68719e-27
-2.68736e-27
-2.68752e-27
-2.68767e-27
-2.68782e-27
-2.68797e-27
-2.6881e-27
-2.68823e-27
-2.68835e-27
-2.68842e-27
-2.68841e-27
-2.68809e-27
-2.68684e-27
-2.68265e-27
-2.6691e-27
-2.6259e-27
-2.48891e-27
-2.05609e-27
-6.92505e-28
3.59271e-27
1.70282e-26
5.90615e-26
1.903e-25
5.99296e-25
1.87172e-24
5.8241e-24
1.80832e-23
5.60573e-23
1.73546e-22
5.36653e-22
1.65776e-21
5.11617e-21
1.57761e-20
4.86098e-20
1.49673e-19
4.60564e-19
1.41639e-18
4.35356e-18
1.33751e-17
4.10734e-17
1.26086e-16
3.86944e-16
1.18731e-15
3.64328e-15
1.11828e-14
3.43492e-14
1.05645e-13
3.25637e-13
1.00722e-12
3.13191e-12
9.81536e-12
3.11115e-11
1.00189e-10
3.29611e-10
1.11465e-09
3.91807e-09
1.42652e-08
5.39669e-08
2.12218e-07
8.64448e-07
3.62773e-06
1.55904e-05
6.82351e-05
0.000302714
0.00135677
0.0061294
0.0278759
0.127595
0.588267
2.73717
12.8974
64.3972
351.96
2264.08
16726.3
135350
1.22624e+06
1.16747e+07
1.08461e+08
8.47662e+08
4.05846e+09
9.78091e+09
1.32033e+10
1.38674e+10
1.39172e+10
1.38261e+10
1.30868e+10
1.14731e+10
9.46578e+09
7.70863e+09
6.34314e+09
5.29348e+09
4.49518e+09
3.88167e+09
3.40163e+09
3.01848e+09
2.70667e+09
2.4484e+09
2.23117e+09
2.04599e+09
1.8863e+09
1.74725e+09
1.62511e+09
1.51705e+09
1.42079e+09
1.33457e+09
1.25693e+09
1.1867e+09
1.12291e+09
1.06474e+09
1.01151e+09
9.62654e+08
9.17682e+08
8.76182e+08
8.37811e+08
8.02328e+08
7.70307e+08
7.40927e+08
7.13241e+08
6.87197e+08
6.62652e+08
6.39472e+08
6.17557e+08
5.96813e+08
5.7715e+08
5.58493e+08
5.40768e+08
5.23915e+08
5.07872e+08
4.92586e+08
4.78008e+08
4.64093e+08
4.508e+08
4.38088e+08
4.25925e+08
4.14277e+08
4.03113e+08
3.92408e+08
3.82133e+08
3.72267e+08
3.62785e+08
3.53668e+08
3.44897e+08
3.36453e+08
3.28319e+08
3.2048e+08
3.12921e+08
3.05629e+08
2.9859e+08
2.91792e+08
2.85225e+08
2.78876e+08
2.72737e+08
2.66798e+08
2.6105e+08
2.55484e+08
2.50093e+08
2.44868e+08
2.39804e+08
2.34892e+08
2.30128e+08
2.25504e+08
2.21016e+08
2.16657e+08
2.12423e+08
2.08308e+08
2.04309e+08
2.00421e+08
1.96639e+08
1.9296e+08
1.89379e+08
1.85894e+08
1.82501e+08
1.79197e+08
1.75978e+08
1.72841e+08
1.69786e+08
1.66808e+08
1.63911e+08
1.61092e+08
1.58342e+08
1.55644e+08
1.53006e+08
1.50431e+08
1.47918e+08
1.45463e+08
1.43065e+08
1.40722e+08
1.38433e+08
1.36195e+08
1.34007e+08
1.31868e+08
1.29776e+08
1.2773e+08
1.25728e+08
1.23769e+08
1.21852e+08
1.19975e+08
1.18138e+08
1.16339e+08
1.14577e+08
1.12851e+08
1.1116e+08
1.09503e+08
1.0788e+08
1.06288e+08
1.04728e+08
1.03198e+08
1.01698e+08
1.00227e+08
9.8784e+07
9.73683e+07
9.59792e+07
9.46161e+07
9.32784e+07
9.19653e+07
9.0676e+07
8.94104e+07
8.81677e+07
8.69472e+07
8.57486e+07
8.45711e+07
8.34144e+07
8.2278e+07
8.11613e+07
8.00639e+07
7.89854e+07
7.79254e+07
7.68833e+07
7.58589e+07
7.48517e+07
7.38613e+07
7.28874e+07
7.19299e+07
7.09878e+07
7.00611e+07
6.91496e+07
6.82528e+07
6.73705e+07
6.65023e+07
6.56479e+07
6.48071e+07
6.39795e+07
6.31649e+07
6.23631e+07
6.15737e+07
6.07965e+07
6.00312e+07
5.92777e+07
5.85357e+07
5.7805e+07
5.70844e+07
5.63757e+07
5.56774e+07
5.49894e+07
5.43116e+07
5.36437e+07
5.29856e+07
5.23371e+07
5.16981e+07
5.10683e+07
5.04471e+07
4.98354e+07
4.92323e+07
4.86378e+07
4.80517e+07
4.74739e+07
4.69042e+07
4.63425e+07
4.57886e+07
4.52425e+07
4.47039e+07
4.41728e+07
4.3649e+07
4.31323e+07
4.26228e+07
4.21202e+07
4.16244e+07
4.11354e+07
4.0653e+07
4.01771e+07
3.97076e+07
3.92444e+07
3.87874e+07
3.83365e+07
3.78916e+07
3.74527e+07
3.70196e+07
3.65922e+07
3.61704e+07
3.57542e+07
3.53435e+07
3.49383e+07
3.45383e+07
3.41433e+07
3.37535e+07
3.33685e+07
3.2988e+07
3.26113e+07
3.22379e+07
3.18678e+07
3.15021e+07
3.11524e+07
3.08838e+07
)
;

boundaryField
{
    boundary
    {
        type            empty;
    }
    inlet
    {
        type            calculated;
        value           uniform 0;
    }
    outlet
    {
        type            calculated;
        value           uniform 0;
    }
}


// ************************************************************************* //
