/*--------------------------------*- C++ -*----------------------------------*\
  =========                 |
  \\      /  F ield         | OpenFOAM: The Open Source CFD Toolbox
   \\    /   O peration     | Website:  https://openfoam.org
    \\  /    A nd           | Version:  7
     \\/     M anipulation  |
\*---------------------------------------------------------------------------*/
FoamFile
{
    version     2.0;
    format      ascii;
    class       volScalarField;
    location    "0.00028";
    object      OH;
}
// * * * * * * * * * * * * * * * * * * * * * * * * * * * * * * * * * * * * * //

dimensions      [0 0 0 0 0 0 0];

internalField   nonuniform List<scalar> 
125
(
9.40758e-48
1.83708e-47
2.45493e-47
2.87992e-47
3.17571e-47
3.38673e-47
3.54365e-47
3.66775e-47
3.77396e-47
3.87288e-47
3.97201e-47
4.07663e-47
4.19024e-47
4.31489e-47
4.45137e-47
4.59928e-47
4.75721e-47
4.92281e-47
5.09301e-47
5.26422e-47
5.4326e-47
5.59443e-47
5.74635e-47
5.88562e-47
6.01029e-47
6.1193e-47
6.21242e-47
6.29016e-47
6.35363e-47
6.40433e-47
6.44397e-47
6.47434e-47
6.49714e-47
6.51392e-47
6.52605e-47
6.53466e-47
6.54066e-47
6.54477e-47
6.54754e-47
6.54938e-47
6.55058e-47
6.55135e-47
6.55185e-47
6.55216e-47
6.55236e-47
6.55249e-47
6.55258e-47
6.55264e-47
6.55268e-47
6.55272e-47
6.55275e-47
6.55279e-47
6.55282e-47
6.55285e-47
6.55289e-47
6.55292e-47
6.55296e-47
6.553e-47
6.55305e-47
6.55309e-47
6.55314e-47
6.5532e-47
6.55325e-47
6.55331e-47
6.55337e-47
6.55344e-47
6.55351e-47
6.55358e-47
6.55366e-47
6.55374e-47
6.55383e-47
6.55392e-47
6.55401e-47
6.55411e-47
6.55422e-47
6.55433e-47
6.55444e-47
6.55456e-47
6.55469e-47
6.55482e-47
6.55496e-47
6.5551e-47
6.55525e-47
6.55541e-47
6.55557e-47
6.55574e-47
6.55592e-47
6.5561e-47
6.55629e-47
6.55649e-47
6.5567e-47
6.55691e-47
6.55713e-47
6.55736e-47
6.5576e-47
6.55785e-47
6.5581e-47
6.55837e-47
6.55864e-47
6.55892e-47
6.55921e-47
6.55951e-47
6.55981e-47
6.56013e-47
6.56046e-47
6.56079e-47
6.56113e-47
6.56149e-47
6.56185e-47
6.56222e-47
6.56261e-47
6.563e-47
6.5634e-47
6.56381e-47
6.56423e-47
6.56466e-47
6.56509e-47
6.56554e-47
6.566e-47
6.56646e-47
6.56693e-47
6.56741e-47
6.56789e-47
6.56837e-47
6.56884e-47
)
;

boundaryField
{
    boundary
    {
        type            empty;
    }
    inlet
    {
        type            fixedValue;
        value           uniform 0;
    }
    outlet
    {
        type            zeroGradient;
    }
    procBoundary2to3
    {
        type            processor;
        value           uniform 6.56928e-47;
    }
}


// ************************************************************************* //
