/*--------------------------------*- C++ -*----------------------------------*\
  =========                 |
  \\      /  F ield         | OpenFOAM: The Open Source CFD Toolbox
   \\    /   O peration     | Website:  https://openfoam.org
    \\  /    A nd           | Version:  7
     \\/     M anipulation  |
\*---------------------------------------------------------------------------*/
FoamFile
{
    version     2.0;
    format      ascii;
    class       volScalarField;
    location    "0.00084";
    object      O;
}
// * * * * * * * * * * * * * * * * * * * * * * * * * * * * * * * * * * * * * //

dimensions      [0 0 0 0 0 0 0];

internalField   nonuniform List<scalar> 
125
(
1.57746e-47
3.76364e-47
5.96177e-47
8.16005e-47
1.03553e-46
1.25459e-46
1.47307e-46
1.69087e-46
1.90788e-46
2.12405e-46
2.33933e-46
2.55372e-46
2.76728e-46
2.98009e-46
3.1923e-46
3.40408e-46
3.61564e-46
3.82722e-46
4.03906e-46
4.2514e-46
4.46449e-46
4.67855e-46
4.8938e-46
5.11043e-46
5.32861e-46
5.54853e-46
5.77035e-46
5.99428e-46
6.22052e-46
6.44933e-46
6.68102e-46
6.91596e-46
7.15458e-46
7.39738e-46
7.64495e-46
7.89796e-46
8.15714e-46
8.42327e-46
8.69721e-46
8.97983e-46
9.27201e-46
9.57463e-46
9.88851e-46
1.02144e-45
1.0553e-45
1.09048e-45
1.127e-45
1.1649e-45
1.20414e-45
1.2447e-45
1.28652e-45
1.32949e-45
1.3735e-45
1.41839e-45
1.46399e-45
1.51009e-45
1.55646e-45
1.60286e-45
1.64904e-45
1.69473e-45
1.73967e-45
1.7836e-45
1.82628e-45
1.86747e-45
1.90697e-45
1.94459e-45
1.98018e-45
2.01363e-45
2.04484e-45
2.07377e-45
2.10039e-45
2.12472e-45
2.14679e-45
2.16669e-45
2.18449e-45
2.2003e-45
2.21426e-45
2.22648e-45
2.23712e-45
2.24631e-45
2.2542e-45
2.26092e-45
2.26661e-45
2.27139e-45
2.27539e-45
2.2787e-45
2.28144e-45
2.28367e-45
2.28549e-45
2.28696e-45
2.28815e-45
2.28909e-45
2.28984e-45
2.29044e-45
2.29091e-45
2.29127e-45
2.29156e-45
2.29178e-45
2.29196e-45
2.2921e-45
2.2922e-45
2.29229e-45
2.29236e-45
2.29242e-45
2.29247e-45
2.29251e-45
2.29255e-45
2.29258e-45
2.29262e-45
2.29265e-45
2.29269e-45
2.29272e-45
2.29275e-45
2.29279e-45
2.29283e-45
2.29287e-45
2.29291e-45
2.29295e-45
2.29299e-45
2.29302e-45
2.29305e-45
2.29302e-45
2.29284e-45
2.29225e-45
2.29043e-45
)
;

boundaryField
{
    boundary
    {
        type            empty;
    }
    inlet
    {
        type            fixedValue;
        value           uniform 0;
    }
    outlet
    {
        type            zeroGradient;
    }
    procBoundary2to3
    {
        type            processor;
        value           uniform 2.28779e-45;
    }
}


// ************************************************************************* //
