/*--------------------------------*- C++ -*----------------------------------*\
  =========                 |
  \\      /  F ield         | OpenFOAM: The Open Source CFD Toolbox
   \\    /   O peration     | Website:  https://openfoam.org
    \\  /    A nd           | Version:  7
     \\/     M anipulation  |
\*---------------------------------------------------------------------------*/
FoamFile
{
    version     2.0;
    format      ascii;
    class       volScalarField;
    location    "0.00084";
    object      OH;
}
// * * * * * * * * * * * * * * * * * * * * * * * * * * * * * * * * * * * * * //

dimensions      [0 0 0 0 0 0 0];

internalField   nonuniform List<scalar> 
125
(
9.3848e-48
1.8291e-47
2.43815e-47
2.85063e-47
3.12936e-47
3.31774e-47
3.44513e-47
3.53127e-47
3.58942e-47
3.62848e-47
3.65447e-47
3.67145e-47
3.68222e-47
3.6887e-47
3.69227e-47
3.6939e-47
3.69435e-47
3.69417e-47
3.69379e-47
3.69357e-47
3.69378e-47
3.69462e-47
3.69627e-47
3.69884e-47
3.70242e-47
3.70706e-47
3.71281e-47
3.71969e-47
3.72774e-47
3.73699e-47
3.74747e-47
3.75927e-47
3.77245e-47
3.78715e-47
3.80349e-47
3.82165e-47
3.84182e-47
3.86423e-47
3.88911e-47
3.91675e-47
3.9474e-47
3.98136e-47
4.0189e-47
4.06031e-47
4.10583e-47
4.1557e-47
4.21012e-47
4.26925e-47
4.33319e-47
4.40199e-47
4.47562e-47
4.55399e-47
4.63692e-47
4.72416e-47
4.81535e-47
4.91008e-47
5.00783e-47
5.10802e-47
5.21002e-47
5.31312e-47
5.4166e-47
5.5197e-47
5.62166e-47
5.72173e-47
5.81922e-47
5.91345e-47
6.00384e-47
6.08988e-47
6.17113e-47
6.24726e-47
6.31805e-47
6.38336e-47
6.44315e-47
6.49747e-47
6.54644e-47
6.59025e-47
6.62916e-47
6.66346e-47
6.69347e-47
6.71954e-47
6.74203e-47
6.76129e-47
6.77767e-47
6.79151e-47
6.80311e-47
6.81279e-47
6.8208e-47
6.82739e-47
6.83278e-47
6.83715e-47
6.84069e-47
6.84353e-47
6.8458e-47
6.8476e-47
6.84903e-47
6.85016e-47
6.85104e-47
6.85174e-47
6.85229e-47
6.85272e-47
6.85307e-47
6.85334e-47
6.85357e-47
6.85376e-47
6.85392e-47
6.85406e-47
6.85419e-47
6.8543e-47
6.85442e-47
6.85453e-47
6.85464e-47
6.85475e-47
6.85486e-47
6.85497e-47
6.85509e-47
6.85522e-47
6.85534e-47
6.85548e-47
6.85562e-47
6.85576e-47
6.85591e-47
6.85605e-47
6.85616e-47
6.85619e-47
6.85594e-47
)
;

boundaryField
{
    boundary
    {
        type            empty;
    }
    inlet
    {
        type            fixedValue;
        value           uniform 0;
    }
    outlet
    {
        type            zeroGradient;
    }
    procBoundary2to3
    {
        type            processor;
        value           uniform 6.85551e-47;
    }
}


// ************************************************************************* //
