/*--------------------------------*- C++ -*----------------------------------*\
  =========                 |
  \\      /  F ield         | OpenFOAM: The Open Source CFD Toolbox
   \\    /   O peration     | Website:  https://openfoam.org
    \\  /    A nd           | Version:  7
     \\/     M anipulation  |
\*---------------------------------------------------------------------------*/
FoamFile
{
    version     2.0;
    format      ascii;
    class       volScalarField;
    location    "5e-05";
    object      H;
}
// * * * * * * * * * * * * * * * * * * * * * * * * * * * * * * * * * * * * * //

dimensions      [0 0 0 0 0 0 0];

internalField   nonuniform List<scalar> 
124
(
7.49277e-05
7.49246e-05
7.49228e-05
7.49218e-05
7.49212e-05
7.49209e-05
7.49207e-05
7.49207e-05
7.49208e-05
7.49209e-05
7.4921e-05
7.49211e-05
7.49213e-05
7.49214e-05
7.49216e-05
7.49217e-05
7.49218e-05
7.49219e-05
7.4922e-05
7.49221e-05
7.49222e-05
7.49223e-05
7.49223e-05
7.49224e-05
7.49224e-05
7.49225e-05
7.49226e-05
7.49226e-05
7.49226e-05
7.49227e-05
7.49227e-05
7.49228e-05
7.49228e-05
7.49228e-05
7.49228e-05
7.49229e-05
7.49229e-05
7.49229e-05
7.4923e-05
7.4923e-05
7.4923e-05
7.49231e-05
7.49231e-05
7.49231e-05
7.49231e-05
7.49232e-05
7.49232e-05
7.49232e-05
7.49233e-05
7.49233e-05
7.49233e-05
7.49234e-05
7.49234e-05
7.49235e-05
7.49235e-05
7.49235e-05
7.49236e-05
7.49236e-05
7.49237e-05
7.49237e-05
7.49238e-05
7.49238e-05
7.49239e-05
7.49239e-05
7.4924e-05
7.4924e-05
7.49241e-05
7.49241e-05
7.49242e-05
7.49243e-05
7.49243e-05
7.49244e-05
7.49245e-05
7.49246e-05
7.49246e-05
7.49247e-05
7.49248e-05
7.49249e-05
7.4925e-05
7.49251e-05
7.49252e-05
7.49252e-05
7.49253e-05
7.49254e-05
7.49256e-05
7.49257e-05
7.49258e-05
7.49259e-05
7.4926e-05
7.49261e-05
7.49262e-05
7.49264e-05
7.49265e-05
7.49266e-05
7.49267e-05
7.49269e-05
7.4927e-05
7.49272e-05
7.49273e-05
7.49274e-05
7.49276e-05
7.49277e-05
7.49279e-05
7.49281e-05
7.49282e-05
7.49284e-05
7.49286e-05
7.49287e-05
7.49289e-05
7.49291e-05
7.49292e-05
7.49294e-05
7.49296e-05
7.49298e-05
7.493e-05
7.49302e-05
7.49304e-05
7.49305e-05
7.49307e-05
7.49309e-05
7.49311e-05
7.49313e-05
7.49314e-05
7.49315e-05
)
;

boundaryField
{
    boundary
    {
        type            empty;
    }
    inlet
    {
        type            fixedValue;
        value           nonuniform 0();
    }
    outlet
    {
        type            zeroGradient;
    }
    procBoundary0to1
    {
        type            processor;
        value           uniform 7.49292e-05;
    }
}


// ************************************************************************* //
