/*--------------------------------*- C++ -*----------------------------------*\
  =========                 |
  \\      /  F ield         | OpenFOAM: The Open Source CFD Toolbox
   \\    /   O peration     | Website:  https://openfoam.org
    \\  /    A nd           | Version:  7
     \\/     M anipulation  |
\*---------------------------------------------------------------------------*/
FoamFile
{
    version     2.0;
    format      ascii;
    class       volScalarField;
    location    "5e-05";
    object      H2O2;
}
// * * * * * * * * * * * * * * * * * * * * * * * * * * * * * * * * * * * * * //

dimensions      [0 0 0 0 0 0 0];

internalField   nonuniform List<scalar> 
124
(
1.89384e-07
1.89376e-07
1.89372e-07
1.89369e-07
1.89365e-07
1.89362e-07
1.89359e-07
1.89356e-07
1.89353e-07
1.8935e-07
1.89347e-07
1.89344e-07
1.89342e-07
1.89339e-07
1.89336e-07
1.89333e-07
1.8933e-07
1.89327e-07
1.89324e-07
1.89321e-07
1.89318e-07
1.89315e-07
1.89311e-07
1.89308e-07
1.89305e-07
1.89302e-07
1.89299e-07
1.89296e-07
1.89293e-07
1.8929e-07
1.89287e-07
1.89284e-07
1.89281e-07
1.89278e-07
1.89275e-07
1.89272e-07
1.89269e-07
1.89266e-07
1.89263e-07
1.8926e-07
1.89257e-07
1.89254e-07
1.89251e-07
1.89248e-07
1.89245e-07
1.89242e-07
1.89239e-07
1.89236e-07
1.89233e-07
1.89231e-07
1.89228e-07
1.89225e-07
1.89222e-07
1.89219e-07
1.89217e-07
1.89214e-07
1.89211e-07
1.89208e-07
1.89206e-07
1.89203e-07
1.892e-07
1.89198e-07
1.89195e-07
1.89193e-07
1.8919e-07
1.89188e-07
1.89185e-07
1.89183e-07
1.8918e-07
1.89178e-07
1.89176e-07
1.89173e-07
1.89171e-07
1.89169e-07
1.89167e-07
1.89165e-07
1.89163e-07
1.89161e-07
1.89159e-07
1.89157e-07
1.89155e-07
1.89153e-07
1.89151e-07
1.8915e-07
1.89148e-07
1.89146e-07
1.89145e-07
1.89143e-07
1.89142e-07
1.8914e-07
1.89139e-07
1.89138e-07
1.89137e-07
1.89135e-07
1.89134e-07
1.89133e-07
1.89132e-07
1.89131e-07
1.8913e-07
1.89129e-07
1.89128e-07
1.89128e-07
1.89127e-07
1.89126e-07
1.89126e-07
1.89125e-07
1.89125e-07
1.89124e-07
1.89124e-07
1.89124e-07
1.89123e-07
1.89123e-07
1.89123e-07
1.89123e-07
1.89123e-07
1.89122e-07
1.89122e-07
1.89122e-07
1.89122e-07
1.89122e-07
1.89122e-07
1.89122e-07
1.89121e-07
1.8912e-07
)
;

boundaryField
{
    boundary
    {
        type            empty;
    }
    inlet
    {
        type            fixedValue;
        value           nonuniform 0();
    }
    outlet
    {
        type            zeroGradient;
    }
    procBoundary0to1
    {
        type            processor;
        value           uniform 1.89389e-07;
    }
}


// ************************************************************************* //
