/*--------------------------------*- C++ -*----------------------------------*\
  =========                 |
  \\      /  F ield         | OpenFOAM: The Open Source CFD Toolbox
   \\    /   O peration     | Website:  https://openfoam.org
    \\  /    A nd           | Version:  7
     \\/     M anipulation  |
\*---------------------------------------------------------------------------*/
FoamFile
{
    version     2.0;
    format      ascii;
    class       volScalarField;
    location    "5e-05";
    object      HO2;
}
// * * * * * * * * * * * * * * * * * * * * * * * * * * * * * * * * * * * * * //

dimensions      [0 0 0 0 0 0 0];

internalField   nonuniform List<scalar> 
124
(
1.72593e-06
1.72615e-06
1.72623e-06
1.72627e-06
1.72629e-06
1.7263e-06
1.72632e-06
1.72633e-06
1.72634e-06
1.72635e-06
1.72637e-06
1.72638e-06
1.72639e-06
1.7264e-06
1.72641e-06
1.72643e-06
1.72644e-06
1.72645e-06
1.72646e-06
1.72647e-06
1.72648e-06
1.72649e-06
1.7265e-06
1.72651e-06
1.72652e-06
1.72652e-06
1.72653e-06
1.72654e-06
1.72655e-06
1.72656e-06
1.72657e-06
1.72658e-06
1.72659e-06
1.72659e-06
1.7266e-06
1.72661e-06
1.72662e-06
1.72662e-06
1.72663e-06
1.72664e-06
1.72664e-06
1.72665e-06
1.72666e-06
1.72666e-06
1.72667e-06
1.72667e-06
1.72668e-06
1.72668e-06
1.72669e-06
1.72669e-06
1.7267e-06
1.7267e-06
1.7267e-06
1.72671e-06
1.72671e-06
1.72671e-06
1.72671e-06
1.72671e-06
1.72672e-06
1.72672e-06
1.72672e-06
1.72672e-06
1.72672e-06
1.72672e-06
1.72672e-06
1.72671e-06
1.72671e-06
1.72671e-06
1.72671e-06
1.7267e-06
1.7267e-06
1.72669e-06
1.72669e-06
1.72668e-06
1.72668e-06
1.72667e-06
1.72667e-06
1.72666e-06
1.72665e-06
1.72664e-06
1.72663e-06
1.72662e-06
1.72661e-06
1.7266e-06
1.72659e-06
1.72658e-06
1.72656e-06
1.72655e-06
1.72654e-06
1.72652e-06
1.72651e-06
1.72649e-06
1.72648e-06
1.72646e-06
1.72644e-06
1.72642e-06
1.7264e-06
1.72638e-06
1.72636e-06
1.72634e-06
1.72632e-06
1.7263e-06
1.72628e-06
1.72625e-06
1.72623e-06
1.72621e-06
1.72618e-06
1.72616e-06
1.72613e-06
1.7261e-06
1.72608e-06
1.72605e-06
1.72602e-06
1.72599e-06
1.72596e-06
1.72593e-06
1.7259e-06
1.72587e-06
1.72584e-06
1.72581e-06
1.72578e-06
1.72576e-06
1.72573e-06
1.72571e-06
)
;

boundaryField
{
    boundary
    {
        type            empty;
    }
    inlet
    {
        type            fixedValue;
        value           nonuniform 0();
    }
    outlet
    {
        type            zeroGradient;
    }
    procBoundary0to1
    {
        type            processor;
        value           uniform 1.726e-06;
    }
}


// ************************************************************************* //
