/*--------------------------------*- C++ -*----------------------------------*\
  =========                 |
  \\      /  F ield         | OpenFOAM: The Open Source CFD Toolbox
   \\    /   O peration     | Website:  https://openfoam.org
    \\  /    A nd           | Version:  7
     \\/     M anipulation  |
\*---------------------------------------------------------------------------*/
FoamFile
{
    version     2.0;
    format      ascii;
    class       volScalarField;
    location    "5e-05";
    object      p;
}
// * * * * * * * * * * * * * * * * * * * * * * * * * * * * * * * * * * * * * //

dimensions      [1 -1 -2 0 0 0 0];

internalField   nonuniform List<scalar> 
124
(
102433
102432
102431
102431
102430
102429
102428
102427
102426
102425
102424
102423
102423
102422
102421
102420
102419
102418
102417
102416
102415
102414
102413
102412
102411
102410
102409
102408
102407
102406
102405
102404
102403
102402
102401
102400
102399
102398
102397
102396
102395
102394
102393
102392
102390
102389
102388
102387
102386
102385
102384
102383
102381
102380
102379
102378
102377
102375
102374
102373
102372
102371
102369
102368
102367
102366
102364
102363
102362
102361
102359
102358
102357
102355
102354
102353
102351
102350
102349
102347
102346
102345
102343
102342
102341
102339
102338
102336
102335
102334
102332
102331
102329
102328
102326
102325
102324
102322
102321
102319
102318
102316
102315
102313
102312
102310
102309
102307
102306
102304
102303
102301
102300
102298
102296
102295
102293
102292
102290
102289
102287
102285
102284
102282
)
;

boundaryField
{
    boundary
    {
        type            empty;
    }
    inlet
    {
        type            zeroGradient;
    }
    outlet
    {
        type            waveTransmissive;
        gamma           1.4;
        value           uniform 102281;
    }
    procBoundary0to1
    {
        type            processor;
        value           uniform 102434;
    }
}


// ************************************************************************* //
