/*--------------------------------*- C++ -*----------------------------------*\
  =========                 |
  \\      /  F ield         | OpenFOAM: The Open Source CFD Toolbox
   \\    /   O peration     | Website:  https://openfoam.org
    \\  /    A nd           | Version:  7
     \\/     M anipulation  |
\*---------------------------------------------------------------------------*/
FoamFile
{
    version     2.0;
    format      ascii;
    class       surfaceScalarField;
    location    "5e-05";
    object      phi;
}
// * * * * * * * * * * * * * * * * * * * * * * * * * * * * * * * * * * * * * //

dimensions      [1 0 -1 0 0 0 0];

internalField   nonuniform List<scalar> 
123
(
4.67503e-06
4.67197e-06
4.6689e-06
4.6658e-06
4.66269e-06
4.65956e-06
4.65641e-06
4.65325e-06
4.65006e-06
4.64686e-06
4.64363e-06
4.64039e-06
4.63713e-06
4.63385e-06
4.63056e-06
4.62724e-06
4.6239e-06
4.62055e-06
4.61717e-06
4.61377e-06
4.61036e-06
4.60692e-06
4.60346e-06
4.59998e-06
4.59648e-06
4.59296e-06
4.58942e-06
4.58586e-06
4.58227e-06
4.57866e-06
4.57503e-06
4.57138e-06
4.56771e-06
4.56401e-06
4.56029e-06
4.55655e-06
4.55279e-06
4.549e-06
4.54519e-06
4.54136e-06
4.5375e-06
4.53362e-06
4.52971e-06
4.52578e-06
4.52183e-06
4.51786e-06
4.51386e-06
4.50983e-06
4.50578e-06
4.50171e-06
4.49761e-06
4.49349e-06
4.48935e-06
4.48518e-06
4.48098e-06
4.47676e-06
4.47252e-06
4.46825e-06
4.46396e-06
4.45964e-06
4.4553e-06
4.45093e-06
4.44654e-06
4.44212e-06
4.43768e-06
4.43322e-06
4.42873e-06
4.42421e-06
4.41968e-06
4.41511e-06
4.41053e-06
4.40592e-06
4.40128e-06
4.39662e-06
4.39194e-06
4.38724e-06
4.38251e-06
4.37775e-06
4.37297e-06
4.36817e-06
4.36335e-06
4.3585e-06
4.35363e-06
4.34874e-06
4.34382e-06
4.33888e-06
4.33392e-06
4.32893e-06
4.32393e-06
4.3189e-06
4.31385e-06
4.30878e-06
4.30368e-06
4.29857e-06
4.29343e-06
4.28827e-06
4.28309e-06
4.27789e-06
4.27267e-06
4.26743e-06
4.26216e-06
4.25688e-06
4.25158e-06
4.24626e-06
4.24091e-06
4.23555e-06
4.23017e-06
4.22477e-06
4.21935e-06
4.21392e-06
4.20846e-06
4.20299e-06
4.1975e-06
4.19199e-06
4.18646e-06
4.18092e-06
4.17535e-06
4.16978e-06
4.16418e-06
4.15857e-06
4.15294e-06
4.1473e-06
4.14164e-06
)
;

boundaryField
{
    boundary
    {
        type            empty;
        value           nonuniform 0();
    }
    inlet
    {
        type            calculated;
        value           nonuniform 0();
    }
    outlet
    {
        type            calculated;
        value           uniform 4.13597e-06;
    }
    procBoundary0to1
    {
        type            processor;
        value           uniform -4.67808e-06;
    }
}


// ************************************************************************* //
