/*--------------------------------*- C++ -*----------------------------------*\
  =========                 |
  \\      /  F ield         | OpenFOAM: The Open Source CFD Toolbox
   \\    /   O peration     | Website:  https://openfoam.org
    \\  /    A nd           | Version:  7
     \\/     M anipulation  |
\*---------------------------------------------------------------------------*/
FoamFile
{
    version     2.0;
    format      ascii;
    class       volScalarField;
    location    "5e-05";
    object      Qdot;
}
// * * * * * * * * * * * * * * * * * * * * * * * * * * * * * * * * * * * * * //

dimensions      [1 -1 -3 0 0 0 0];

internalField   nonuniform List<scalar> 
124
(
-651934
-614029
-595684
-586117
-581503
-579340
-578434
-578192
-578313
-578641
-579092
-579619
-580193
-580797
-581421
-582059
-582705
-583357
-584012
-584667
-585320
-585969
-586614
-587254
-587887
-588512
-589130
-589740
-590341
-590934
-591518
-592094
-592660
-593219
-593769
-594310
-594843
-595366
-595880
-596384
-596879
-597364
-597839
-598304
-598759
-599204
-599638
-600063
-600478
-600881
-601272
-601651
-602019
-602375
-602719
-603051
-603370
-603676
-603969
-604248
-604512
-604762
-604997
-605216
-605419
-605606
-605777
-605932
-606071
-606191
-606294
-606377
-606442
-606488
-606514
-606522
-606510
-606478
-606426
-606354
-606262
-606149
-606015
-605860
-605684
-605487
-605268
-605027
-604765
-604481
-604175
-603847
-603496
-603123
-602728
-602312
-601874
-601415
-600931
-600424
-599892
-599335
-598756
-598157
-597537
-596897
-596229
-595545
-594840
-594112
-593363
-592592
-591802
-590992
-590163
-589314
-588451
-587577
-586692
-585797
-584897
-583998
-583140
-582477
)
;

boundaryField
{
    boundary
    {
        type            empty;
    }
    inlet
    {
        type            calculated;
        value           nonuniform 0();
    }
    outlet
    {
        type            calculated;
        value           uniform 0;
    }
    procBoundary0to1
    {
        type            processor;
        value           uniform 0;
    }
}


// ************************************************************************* //
