/*--------------------------------*- C++ -*----------------------------------*\
  =========                 |
  \\      /  F ield         | OpenFOAM: The Open Source CFD Toolbox
   \\    /   O peration     | Website:  https://openfoam.org
    \\  /    A nd           | Version:  7
     \\/     M anipulation  |
\*---------------------------------------------------------------------------*/
FoamFile
{
    version     2.0;
    format      ascii;
    class       volScalarField;
    location    "5e-05";
    object      T;
}
// * * * * * * * * * * * * * * * * * * * * * * * * * * * * * * * * * * * * * //

dimensions      [0 0 0 1 0 0 0];

internalField   nonuniform List<scalar> 
124
(
2391.97
2391.98
2391.98
2391.98
2391.99
2391.99
2392
2392
2392.01
2392.01
2392.01
2392.02
2392.02
2392.03
2392.03
2392.03
2392.04
2392.04
2392.04
2392.05
2392.05
2392.06
2392.06
2392.06
2392.07
2392.07
2392.07
2392.08
2392.08
2392.08
2392.09
2392.09
2392.09
2392.1
2392.1
2392.1
2392.1
2392.11
2392.11
2392.11
2392.12
2392.12
2392.12
2392.12
2392.13
2392.13
2392.13
2392.13
2392.14
2392.14
2392.14
2392.14
2392.15
2392.15
2392.15
2392.15
2392.15
2392.16
2392.16
2392.16
2392.16
2392.16
2392.16
2392.17
2392.17
2392.17
2392.17
2392.17
2392.17
2392.17
2392.17
2392.17
2392.17
2392.17
2392.17
2392.17
2392.17
2392.17
2392.17
2392.17
2392.17
2392.17
2392.17
2392.17
2392.17
2392.17
2392.16
2392.16
2392.16
2392.16
2392.16
2392.16
2392.15
2392.15
2392.15
2392.15
2392.14
2392.14
2392.14
2392.13
2392.13
2392.13
2392.12
2392.12
2392.12
2392.11
2392.11
2392.1
2392.1
2392.09
2392.09
2392.09
2392.08
2392.08
2392.07
2392.06
2392.06
2392.05
2392.05
2392.04
2392.04
2392.03
2392.03
2392.03
)
;

boundaryField
{
    boundary
    {
        type            empty;
    }
    inlet
    {
        type            fixedValue;
        value           nonuniform 0();
    }
    outlet
    {
        type            zeroGradient;
    }
    procBoundary0to1
    {
        type            processor;
        value           uniform 2391.97;
    }
}


// ************************************************************************* //
