/*--------------------------------*- C++ -*----------------------------------*\
  =========                 |
  \\      /  F ield         | OpenFOAM: The Open Source CFD Toolbox
   \\    /   O peration     | Website:  https://openfoam.org
    \\  /    A nd           | Version:  7
     \\/     M anipulation  |
\*---------------------------------------------------------------------------*/
FoamFile
{
    version     2.0;
    format      ascii;
    class       volVectorField;
    location    "5e-05";
    object      U;
}
// * * * * * * * * * * * * * * * * * * * * * * * * * * * * * * * * * * * * * //

dimensions      [0 1 -1 0 0 0 0];

internalField   nonuniform List<vector> 
124
(
(10.9632 0 0)
(10.9565 0 0)
(10.949 0 0)
(10.942 0 0)
(10.9349 0 0)
(10.9277 0 0)
(10.9205 0 0)
(10.9132 0 0)
(10.9058 0 0)
(10.8985 0 0)
(10.891 0 0)
(10.8836 0 0)
(10.8761 0 0)
(10.8685 0 0)
(10.8609 0 0)
(10.8533 0 0)
(10.8456 0 0)
(10.8379 0 0)
(10.8301 0 0)
(10.8223 0 0)
(10.8144 0 0)
(10.8065 0 0)
(10.7985 0 0)
(10.7905 0 0)
(10.7824 0 0)
(10.7743 0 0)
(10.7662 0 0)
(10.7579 0 0)
(10.7497 0 0)
(10.7414 0 0)
(10.733 0 0)
(10.7246 0 0)
(10.7161 0 0)
(10.7076 0 0)
(10.699 0 0)
(10.6904 0 0)
(10.6817 0 0)
(10.673 0 0)
(10.6642 0 0)
(10.6554 0 0)
(10.6465 0 0)
(10.6375 0 0)
(10.6285 0 0)
(10.6195 0 0)
(10.6103 0 0)
(10.6012 0 0)
(10.5919 0 0)
(10.5827 0 0)
(10.5733 0 0)
(10.5639 0 0)
(10.5545 0 0)
(10.545 0 0)
(10.5354 0 0)
(10.5258 0 0)
(10.5161 0 0)
(10.5063 0 0)
(10.4965 0 0)
(10.4867 0 0)
(10.4768 0 0)
(10.4668 0 0)
(10.4568 0 0)
(10.4467 0 0)
(10.4366 0 0)
(10.4264 0 0)
(10.4161 0 0)
(10.4058 0 0)
(10.3954 0 0)
(10.385 0 0)
(10.3745 0 0)
(10.364 0 0)
(10.3534 0 0)
(10.3427 0 0)
(10.332 0 0)
(10.3212 0 0)
(10.3104 0 0)
(10.2995 0 0)
(10.2886 0 0)
(10.2776 0 0)
(10.2665 0 0)
(10.2554 0 0)
(10.2443 0 0)
(10.2331 0 0)
(10.2218 0 0)
(10.2105 0 0)
(10.1991 0 0)
(10.1877 0 0)
(10.1762 0 0)
(10.1646 0 0)
(10.153 0 0)
(10.1414 0 0)
(10.1297 0 0)
(10.118 0 0)
(10.1062 0 0)
(10.0943 0 0)
(10.0824 0 0)
(10.0705 0 0)
(10.0585 0 0)
(10.0464 0 0)
(10.0343 0 0)
(10.0222 0 0)
(10.01 0 0)
(9.99772 0 0)
(9.98543 0 0)
(9.97309 0 0)
(9.9607 0 0)
(9.94827 0 0)
(9.9358 0 0)
(9.92327 0 0)
(9.91071 0 0)
(9.89809 0 0)
(9.88544 0 0)
(9.87274 0 0)
(9.86 0 0)
(9.84722 0 0)
(9.83439 0 0)
(9.82152 0 0)
(9.80862 0 0)
(9.79567 0 0)
(9.78268 0 0)
(9.76968 0 0)
(9.75668 0 0)
(9.74345 0 0)
(9.72908 0 0)
(9.71247 0 0)
)
;

boundaryField
{
    boundary
    {
        type            empty;
    }
    inlet
    {
        type            fixedValue;
        value           nonuniform 0();
    }
    outlet
    {
        type            zeroGradient;
    }
    procBoundary0to1
    {
        type            processor;
        value           uniform (10.9705 0 0);
    }
}


// ************************************************************************* //
