/*--------------------------------*- C++ -*----------------------------------*\
  =========                 |
  \\      /  F ield         | OpenFOAM: The Open Source CFD Toolbox
   \\    /   O peration     | Website:  https://openfoam.org
    \\  /    A nd           | Version:  7
     \\/     M anipulation  |
\*---------------------------------------------------------------------------*/
FoamFile
{
    version     2.0;
    format      ascii;
    class       volScalarField;
    location    "0.0009";
    object      H;
}
// * * * * * * * * * * * * * * * * * * * * * * * * * * * * * * * * * * * * * //

dimensions      [0 0 0 0 0 0 0];

internalField   nonuniform List<scalar> 
125
(
6.32938e-24
2.35185e-23
9.0829e-23
3.6413e-22
1.5085e-21
6.42063e-21
2.79167e-20
1.23396e-19
5.52521e-19
2.50078e-18
1.14338e-17
5.28518e-17
2.47614e-16
1.1809e-15
5.76843e-15
2.90842e-14
1.52596e-13
8.59828e-13
5.69828e-12
4.9665e-11
4.81019e-10
4.48474e-09
4.18729e-08
3.79417e-07
3.11436e-06
2.05622e-05
9.27443e-05
0.000260828
0.000521343
0.000853927
0.00121771
0.00154351
0.00177316
0.00189551
0.00192958
0.00190683
0.00185197
0.00178165
0.00170595
0.0016305
0.00155817
0.00149029
0.00142726
0.00136904
0.00131536
0.00126586
0.00122014
0.00117785
0.00113862
0.00110214
0.00106813
0.00103636
0.00100659
0.000978643
0.000952351
0.000927564
0.000904153
0.000882003
0.000861012
0.000841088
0.00082215
0.000804654
0.000788338
0.000772662
0.000757589
0.000743086
0.000729117
0.000715655
0.00070267
0.000690136
0.00067803
0.000666328
0.000655011
0.000644059
0.000633454
0.000623178
0.000613217
0.000603555
0.000594179
0.000585076
0.000576234
0.00056764
0.000559286
0.00055116
0.000543252
0.000535555
0.000528059
0.000520756
0.000513639
0.000506701
0.000499935
0.000493334
0.000486892
0.000480603
0.000474462
0.000468464
0.000462604
0.000456876
0.000451276
0.000445801
0.000440445
0.000435204
0.000430076
0.000425057
0.000420142
0.000415329
0.000410615
0.000405996
0.000401469
0.000397033
0.000392684
0.000388419
0.000384237
0.000380135
0.000376111
0.000372162
0.000368287
0.000364484
0.000360751
0.000357086
0.000353488
0.000349955
0.000346487
0.000343082
0.000339739
)
;

boundaryField
{
    boundary
    {
        type            empty;
    }
    inlet
    {
        type            fixedValue;
        value           nonuniform 0();
    }
    outlet
    {
        type            zeroGradient;
    }
    procBoundary1to0
    {
        type            processor;
        value           uniform 0.000336447;
    }
    procBoundary1to3
    {
        type            processor;
        value           uniform 1.76561e-24;
    }
}


// ************************************************************************* //
