/*--------------------------------*- C++ -*----------------------------------*\
  =========                 |
  \\      /  F ield         | OpenFOAM: The Open Source CFD Toolbox
   \\    /   O peration     | Website:  https://openfoam.org
    \\  /    A nd           | Version:  7
     \\/     M anipulation  |
\*---------------------------------------------------------------------------*/
FoamFile
{
    version     2.0;
    format      ascii;
    class       volScalarField;
    location    "0.0009";
    object      HO2;
}
// * * * * * * * * * * * * * * * * * * * * * * * * * * * * * * * * * * * * * //

dimensions      [0 0 0 0 0 0 0];

internalField   nonuniform List<scalar> 
125
(
1.25393e-18
5.24553e-18
2.19244e-17
9.16764e-17
3.83595e-16
1.60607e-15
6.72835e-15
2.82017e-14
1.18259e-13
4.96082e-13
2.08159e-12
8.73613e-12
3.66676e-11
1.53899e-10
6.45836e-10
2.70934e-09
1.13595e-08
4.75748e-08
1.98783e-07
8.25795e-07
3.38582e-06
1.35093e-05
5.06631e-05
0.0001649
0.00038889
0.000520111
0.000475791
0.000367236
0.000262726
0.000184353
0.000128892
8.98426e-05
6.3045e-05
4.46665e-05
3.32193e-05
2.58883e-05
2.11209e-05
1.79258e-05
1.56981e-05
1.40762e-05
1.28442e-05
1.18721e-05
1.10799e-05
1.04171e-05
9.85094e-06
9.35922e-06
8.92652e-06
8.54169e-06
8.19645e-06
7.88446e-06
7.60076e-06
7.34143e-06
7.10325e-06
6.88363e-06
6.68036e-06
6.49164e-06
6.31592e-06
6.15189e-06
5.99844e-06
5.85464e-06
5.71976e-06
5.59696e-06
5.48257e-06
5.37375e-06
5.27013e-06
5.17133e-06
5.07702e-06
4.98689e-06
4.90068e-06
4.81814e-06
4.73904e-06
4.66318e-06
4.59035e-06
4.5204e-06
4.45314e-06
4.38844e-06
4.32614e-06
4.26614e-06
4.20829e-06
4.1525e-06
4.09865e-06
4.04665e-06
3.99641e-06
3.94784e-06
3.90086e-06
3.85541e-06
3.8114e-06
3.76878e-06
3.72748e-06
3.68745e-06
3.64862e-06
3.61095e-06
3.57439e-06
3.5389e-06
3.50442e-06
3.47093e-06
3.43837e-06
3.40671e-06
3.37593e-06
3.34598e-06
3.31684e-06
3.28846e-06
3.26084e-06
3.23394e-06
3.20773e-06
3.18219e-06
3.1573e-06
3.13303e-06
3.10937e-06
3.08629e-06
3.06378e-06
3.04181e-06
3.02038e-06
2.99945e-06
2.97903e-06
2.95908e-06
2.93961e-06
2.92058e-06
2.902e-06
2.88385e-06
2.86612e-06
2.84879e-06
2.83187e-06
2.81536e-06
2.79926e-06
)
;

boundaryField
{
    boundary
    {
        type            empty;
    }
    inlet
    {
        type            fixedValue;
        value           nonuniform 0();
    }
    outlet
    {
        type            zeroGradient;
    }
    procBoundary1to0
    {
        type            processor;
        value           uniform 2.78349e-06;
    }
    procBoundary1to3
    {
        type            processor;
        value           uniform 2.99217e-19;
    }
}


// ************************************************************************* //
