/*--------------------------------*- C++ -*----------------------------------*\
  =========                 |
  \\      /  F ield         | OpenFOAM: The Open Source CFD Toolbox
   \\    /   O peration     | Website:  https://openfoam.org
    \\  /    A nd           | Version:  7
     \\/     M anipulation  |
\*---------------------------------------------------------------------------*/
FoamFile
{
    version     2.0;
    format      ascii;
    class       volScalarField;
    location    "0.00057";
    object      Qdot;
}
// * * * * * * * * * * * * * * * * * * * * * * * * * * * * * * * * * * * * * //

dimensions      [1 -1 -3 0 0 0 0];

internalField   nonuniform List<scalar> 
125
(
6.57545e-10
2.31045e-09
8.39192e-09
3.16439e-08
1.23929e-07
5.02738e-07
2.10242e-06
9.01225e-06
3.93778e-05
0.000174544
0.000781897
0.00353021
0.0160372
0.0732492
0.336438
1.55586
7.26257
34.6705
180.968
1095.98
7723.93
59545.1
521857
4.90429e+06
4.64849e+07
3.98645e+08
2.39536e+09
7.55639e+09
1.23348e+10
1.37841e+10
1.39218e+10
1.39295e+10
1.34807e+10
1.22261e+10
1.03625e+10
8.39281e+09
6.82462e+09
5.66358e+09
4.77657e+09
4.09866e+09
3.57213e+09
3.15509e+09
2.81815e+09
2.54085e+09
2.30894e+09
2.11221e+09
1.94329e+09
1.79673e+09
1.66844e+09
1.55525e+09
1.45471e+09
1.36485e+09
1.28413e+09
1.21125e+09
1.14518e+09
1.08504e+09
1.03009e+09
9.79738e+08
9.33459e+08
8.90828e+08
8.51537e+08
8.16198e+08
7.83863e+08
7.53466e+08
7.24949e+08
6.98128e+08
6.72864e+08
6.49021e+08
6.26494e+08
6.05183e+08
5.84995e+08
5.65851e+08
5.47674e+08
5.304e+08
5.13965e+08
4.98315e+08
4.83396e+08
4.69163e+08
4.55572e+08
4.42583e+08
4.30159e+08
4.18268e+08
4.06877e+08
3.95958e+08
3.85484e+08
3.7543e+08
3.65773e+08
3.56491e+08
3.47565e+08
3.38976e+08
3.30706e+08
3.2274e+08
3.15061e+08
3.07657e+08
3.00512e+08
2.93615e+08
2.86955e+08
2.8052e+08
2.74299e+08
2.68283e+08
2.62463e+08
2.56829e+08
2.51374e+08
2.4609e+08
2.4097e+08
2.36006e+08
2.31192e+08
2.26522e+08
2.2199e+08
2.1759e+08
2.13317e+08
2.09166e+08
2.05132e+08
2.0121e+08
1.97398e+08
1.93689e+08
1.9008e+08
1.86569e+08
1.8315e+08
1.79821e+08
1.76579e+08
1.73421e+08
1.70345e+08
1.67349e+08
1.64433e+08
)
;

boundaryField
{
    boundary
    {
        type            empty;
    }
    inlet
    {
        type            calculated;
        value           nonuniform 0();
    }
    outlet
    {
        type            calculated;
        value           nonuniform 0();
    }
    procBoundary1to0
    {
        type            processor;
        value           uniform 0;
    }
    procBoundary1to3
    {
        type            processor;
        value           uniform 0;
    }
}


// ************************************************************************* //
