/*--------------------------------*- C++ -*----------------------------------*\
  =========                 |
  \\      /  F ield         | OpenFOAM: The Open Source CFD Toolbox
   \\    /   O peration     | Website:  https://openfoam.org
    \\  /    A nd           | Version:  7
     \\/     M anipulation  |
\*---------------------------------------------------------------------------*/
FoamFile
{
    version     2.0;
    format      ascii;
    class       volScalarField;
    location    "0.00098";
    object      H;
}
// * * * * * * * * * * * * * * * * * * * * * * * * * * * * * * * * * * * * * //

dimensions      [0 0 0 0 0 0 0];

internalField   nonuniform List<scalar> 
124
(
0.000335556
0.000332331
0.00032916
0.000326042
0.000322976
0.00031996
0.000316992
0.000314073
0.000311201
0.000308374
0.000305592
0.000302853
0.000300157
0.000297503
0.000294889
0.000292316
0.000289781
0.000287284
0.000284824
0.000282401
0.000280014
0.000277661
0.000275343
0.000273058
0.000270806
0.000268586
0.000266398
0.00026424
0.000262113
0.000260015
0.000257946
0.000255906
0.000253894
0.000251909
0.000249951
0.000248019
0.000246113
0.000244233
0.000242377
0.000240546
0.000238739
0.000236955
0.000235194
0.000233456
0.000231741
0.000230047
0.000228375
0.000226724
0.000225093
0.000223484
0.000221894
0.000220323
0.000218773
0.000217241
0.000215728
0.000214233
0.000212756
0.000211298
0.000209856
0.000208432
0.000207025
0.000205635
0.000204261
0.000202903
0.000201562
0.000200236
0.000198925
0.000197629
0.000196349
0.000195083
0.000193832
0.000192595
0.000191373
0.000190164
0.000188969
0.000187787
0.000186619
0.000185464
0.000184321
0.000183192
0.000182075
0.00018097
0.000179878
0.000178798
0.000177729
0.000176672
0.000175627
0.000174593
0.000173571
0.00017256
0.000171559
0.00017057
0.000169591
0.000168623
0.000167665
0.000166717
0.00016578
0.000164853
0.000163935
0.000163028
0.000162131
0.000161243
0.000160365
0.000159496
0.000158637
0.000157788
0.000156949
0.000156119
0.0001553
0.00015449
0.000153691
0.000152904
0.000152129
0.000151367
0.00015062
0.00014989
0.000149182
0.000148499
0.000147848
0.00014724
0.000146689
0.000146216
0.000145852
0.000145641
)
;

boundaryField
{
    boundary
    {
        type            empty;
    }
    inlet
    {
        type            fixedValue;
        value           nonuniform 0();
    }
    outlet
    {
        type            zeroGradient;
    }
    procBoundary0to1
    {
        type            processor;
        value           uniform 0.000338824;
    }
}


// ************************************************************************* //
