/*--------------------------------*- C++ -*----------------------------------*\
  =========                 |
  \\      /  F ield         | OpenFOAM: The Open Source CFD Toolbox
   \\    /   O peration     | Website:  https://openfoam.org
    \\  /    A nd           | Version:  7
     \\/     M anipulation  |
\*---------------------------------------------------------------------------*/
FoamFile
{
    version     2.0;
    format      ascii;
    class       surfaceScalarField;
    location    "0.00098";
    object      phi;
}
// * * * * * * * * * * * * * * * * * * * * * * * * * * * * * * * * * * * * * //

dimensions      [1 0 -1 0 0 0 0];

internalField   nonuniform List<scalar> 
123
(
7.22298e-06
7.22303e-06
7.22307e-06
7.22311e-06
7.22315e-06
7.2232e-06
7.22324e-06
7.22328e-06
7.22332e-06
7.22336e-06
7.2234e-06
7.22344e-06
7.22348e-06
7.22352e-06
7.22356e-06
7.2236e-06
7.22364e-06
7.22368e-06
7.22371e-06
7.22375e-06
7.22378e-06
7.22381e-06
7.22385e-06
7.22388e-06
7.22391e-06
7.22394e-06
7.22397e-06
7.224e-06
7.22403e-06
7.22405e-06
7.22408e-06
7.22411e-06
7.22413e-06
7.22415e-06
7.22418e-06
7.2242e-06
7.22422e-06
7.22424e-06
7.22427e-06
7.22429e-06
7.22431e-06
7.22433e-06
7.22435e-06
7.22437e-06
7.22439e-06
7.22442e-06
7.22444e-06
7.22446e-06
7.22448e-06
7.22451e-06
7.22453e-06
7.22455e-06
7.22458e-06
7.2246e-06
7.22463e-06
7.22465e-06
7.22468e-06
7.22471e-06
7.22473e-06
7.22476e-06
7.22479e-06
7.22481e-06
7.22484e-06
7.22487e-06
7.2249e-06
7.22492e-06
7.22495e-06
7.22498e-06
7.22501e-06
7.22503e-06
7.22506e-06
7.22509e-06
7.22511e-06
7.22514e-06
7.22516e-06
7.22519e-06
7.22521e-06
7.22523e-06
7.22525e-06
7.22527e-06
7.22529e-06
7.22531e-06
7.22533e-06
7.22535e-06
7.22536e-06
7.22538e-06
7.22539e-06
7.22541e-06
7.22542e-06
7.22543e-06
7.22544e-06
7.22545e-06
7.22546e-06
7.22546e-06
7.22547e-06
7.22547e-06
7.22547e-06
7.22548e-06
7.22548e-06
7.22547e-06
7.22547e-06
7.22547e-06
7.22546e-06
7.22545e-06
7.22545e-06
7.22543e-06
7.22542e-06
7.22541e-06
7.22539e-06
7.22537e-06
7.22535e-06
7.22533e-06
7.22531e-06
7.22528e-06
7.22525e-06
7.22522e-06
7.22519e-06
7.22515e-06
7.22512e-06
7.22508e-06
7.22504e-06
7.22499e-06
7.22495e-06
)
;

boundaryField
{
    boundary
    {
        type            empty;
        value           nonuniform 0();
    }
    inlet
    {
        type            calculated;
        value           nonuniform 0();
    }
    outlet
    {
        type            calculated;
        value           uniform 7.2249e-06;
    }
    procBoundary0to1
    {
        type            processor;
        value           uniform -7.22294e-06;
    }
}


// ************************************************************************* //
