/*--------------------------------*- C++ -*----------------------------------*\
  =========                 |
  \\      /  F ield         | OpenFOAM: The Open Source CFD Toolbox
   \\    /   O peration     | Website:  https://openfoam.org
    \\  /    A nd           | Version:  7
     \\/     M anipulation  |
\*---------------------------------------------------------------------------*/
FoamFile
{
    version     2.0;
    format      ascii;
    class       volVectorField;
    location    "0.00098";
    object      U;
}
// * * * * * * * * * * * * * * * * * * * * * * * * * * * * * * * * * * * * * //

dimensions      [0 1 -1 0 0 0 0];

internalField   nonuniform List<vector> 
124
(
(15.7904 0 0)
(15.8004 0 0)
(15.8103 0 0)
(15.8201 0 0)
(15.8298 0 0)
(15.8393 0 0)
(15.8487 0 0)
(15.858 0 0)
(15.8671 0 0)
(15.8761 0 0)
(15.8851 0 0)
(15.8939 0 0)
(15.9026 0 0)
(15.9112 0 0)
(15.9197 0 0)
(15.928 0 0)
(15.9363 0 0)
(15.9445 0 0)
(15.9526 0 0)
(15.9606 0 0)
(15.9685 0 0)
(15.9763 0 0)
(15.984 0 0)
(15.9916 0 0)
(15.9992 0 0)
(16.0066 0 0)
(16.014 0 0)
(16.0213 0 0)
(16.0285 0 0)
(16.0356 0 0)
(16.0426 0 0)
(16.0496 0 0)
(16.0565 0 0)
(16.0633 0 0)
(16.0701 0 0)
(16.0767 0 0)
(16.0833 0 0)
(16.0899 0 0)
(16.0963 0 0)
(16.1027 0 0)
(16.1091 0 0)
(16.1153 0 0)
(16.1215 0 0)
(16.1277 0 0)
(16.1338 0 0)
(16.1398 0 0)
(16.1457 0 0)
(16.1516 0 0)
(16.1575 0 0)
(16.1632 0 0)
(16.169 0 0)
(16.1746 0 0)
(16.1802 0 0)
(16.1858 0 0)
(16.1913 0 0)
(16.1968 0 0)
(16.2022 0 0)
(16.2075 0 0)
(16.2128 0 0)
(16.2181 0 0)
(16.2233 0 0)
(16.2284 0 0)
(16.2335 0 0)
(16.2386 0 0)
(16.2436 0 0)
(16.2485 0 0)
(16.2535 0 0)
(16.2583 0 0)
(16.2632 0 0)
(16.2679 0 0)
(16.2727 0 0)
(16.2774 0 0)
(16.2821 0 0)
(16.2867 0 0)
(16.2912 0 0)
(16.2958 0 0)
(16.3003 0 0)
(16.3047 0 0)
(16.3092 0 0)
(16.3135 0 0)
(16.3179 0 0)
(16.3222 0 0)
(16.3264 0 0)
(16.3307 0 0)
(16.3349 0 0)
(16.339 0 0)
(16.3432 0 0)
(16.3472 0 0)
(16.3513 0 0)
(16.3553 0 0)
(16.3593 0 0)
(16.3632 0 0)
(16.3672 0 0)
(16.3711 0 0)
(16.3749 0 0)
(16.3787 0 0)
(16.3825 0 0)
(16.3863 0 0)
(16.39 0 0)
(16.3937 0 0)
(16.3974 0 0)
(16.401 0 0)
(16.4046 0 0)
(16.4082 0 0)
(16.4117 0 0)
(16.4153 0 0)
(16.4188 0 0)
(16.4222 0 0)
(16.4257 0 0)
(16.4291 0 0)
(16.4325 0 0)
(16.4359 0 0)
(16.4392 0 0)
(16.4426 0 0)
(16.4459 0 0)
(16.4492 0 0)
(16.4525 0 0)
(16.4558 0 0)
(16.4591 0 0)
(16.4624 0 0)
(16.4656 0 0)
(16.4687 0 0)
(16.4713 0 0)
(16.4733 0 0)
)
;

boundaryField
{
    boundary
    {
        type            empty;
    }
    inlet
    {
        type            fixedValue;
        value           nonuniform 0();
    }
    outlet
    {
        type            zeroGradient;
    }
    procBoundary0to1
    {
        type            processor;
        value           uniform (15.7803 0 0);
    }
}


// ************************************************************************* //
