/*--------------------------------*- C++ -*----------------------------------*\
  =========                 |
  \\      /  F ield         | OpenFOAM: The Open Source CFD Toolbox
   \\    /   O peration     | Website:  https://openfoam.org
    \\  /    A nd           | Version:  7
     \\/     M anipulation  |
\*---------------------------------------------------------------------------*/
FoamFile
{
    version     2.0;
    format      ascii;
    class       volScalarField;
    location    "0.00058";
    object      OH;
}
// * * * * * * * * * * * * * * * * * * * * * * * * * * * * * * * * * * * * * //

dimensions      [0 0 0 0 0 0 0];

internalField   nonuniform List<scalar> 
125
(
9.36018e-48
1.8222e-47
2.42736e-47
2.83737e-47
3.11544e-47
3.30508e-47
3.43557e-47
3.52652e-47
3.59104e-47
3.63789e-47
3.67293e-47
3.70015e-47
3.72225e-47
3.7411e-47
3.75803e-47
3.77402e-47
3.78982e-47
3.80606e-47
3.82328e-47
3.84198e-47
3.86268e-47
3.88587e-47
3.91208e-47
3.94183e-47
3.97567e-47
4.01416e-47
4.05781e-47
4.10714e-47
4.16263e-47
4.22466e-47
4.29355e-47
4.36951e-47
4.45262e-47
4.54282e-47
4.63985e-47
4.74333e-47
4.85265e-47
4.96706e-47
5.08562e-47
5.20724e-47
5.33073e-47
5.4548e-47
5.57813e-47
5.69937e-47
5.81726e-47
5.93062e-47
6.0384e-47
6.13972e-47
6.23389e-47
6.32044e-47
6.39909e-47
6.46977e-47
6.53257e-47
6.58778e-47
6.63578e-47
6.67706e-47
6.71221e-47
6.74181e-47
6.76649e-47
6.78686e-47
6.8035e-47
6.81698e-47
6.82777e-47
6.83635e-47
6.8431e-47
6.84836e-47
6.85242e-47
6.85553e-47
6.8579e-47
6.85968e-47
6.86102e-47
6.86201e-47
6.86275e-47
6.86329e-47
6.86369e-47
6.86398e-47
6.8642e-47
6.86436e-47
6.86449e-47
6.86459e-47
6.86467e-47
6.86475e-47
6.86481e-47
6.86488e-47
6.86494e-47
6.865e-47
6.86506e-47
6.86513e-47
6.8652e-47
6.86527e-47
6.86534e-47
6.86542e-47
6.86551e-47
6.8656e-47
6.86569e-47
6.86579e-47
6.86589e-47
6.866e-47
6.86612e-47
6.86624e-47
6.86637e-47
6.8665e-47
6.86664e-47
6.86678e-47
6.86693e-47
6.86709e-47
6.86726e-47
6.86743e-47
6.86761e-47
6.86779e-47
6.86799e-47
6.86819e-47
6.8684e-47
6.86862e-47
6.86884e-47
6.86907e-47
6.86932e-47
6.86957e-47
6.86983e-47
6.87009e-47
6.87036e-47
6.87064e-47
6.87094e-47
6.87129e-47
6.87186e-47
)
;

boundaryField
{
    boundary
    {
        type            empty;
    }
    inlet
    {
        type            fixedValue;
        value           uniform 0;
    }
    outlet
    {
        type            zeroGradient;
    }
    procBoundary2to3
    {
        type            processor;
        value           uniform 6.87253e-47;
    }
}


// ************************************************************************* //
