/*--------------------------------*- C++ -*----------------------------------*\
  =========                 |
  \\      /  F ield         | OpenFOAM: The Open Source CFD Toolbox
   \\    /   O peration     | Website:  https://openfoam.org
    \\  /    A nd           | Version:  7
     \\/     M anipulation  |
\*---------------------------------------------------------------------------*/
FoamFile
{
    version     2.0;
    format      ascii;
    class       volScalarField;
    location    "0.001";
    object      H2O;
}
// * * * * * * * * * * * * * * * * * * * * * * * * * * * * * * * * * * * * * //

dimensions      [0 0 0 0 0 0 0];

internalField   nonuniform List<scalar> 
500
(
7.8837e-48
2.27816e-47
4.09883e-47
6.14335e-47
8.33956e-47
1.06389e-46
1.30086e-46
1.54266e-46
1.78777e-46
2.03519e-46
2.28418e-46
2.53424e-46
2.785e-46
3.03619e-46
3.28759e-46
3.539e-46
3.79028e-46
4.04129e-46
4.29193e-46
4.54213e-46
4.79183e-46
5.04103e-46
5.28977e-46
5.53813e-46
5.78622e-46
6.03422e-46
6.28232e-46
6.53078e-46
6.77985e-46
7.02983e-46
7.28101e-46
7.53371e-46
7.78823e-46
8.04489e-46
8.304e-46
8.56587e-46
8.83082e-46
9.09918e-46
9.37132e-46
9.6476e-46
9.92848e-46
1.02144e-45
1.0506e-45
1.08038e-45
1.11085e-45
1.1421e-45
1.1742e-45
1.20725e-45
1.24135e-45
1.2766e-45
1.31311e-45
1.35097e-45
1.39031e-45
1.43121e-45
1.47376e-45
1.51803e-45
1.56409e-45
1.61196e-45
1.66167e-45
1.71318e-45
1.76647e-45
1.82144e-45
1.87798e-45
1.93595e-45
1.99515e-45
2.05538e-45
2.11639e-45
2.17791e-45
2.23965e-45
2.30129e-45
2.36251e-45
2.423e-45
2.48243e-45
2.54049e-45
2.59688e-45
2.65132e-45
2.70358e-45
2.75344e-45
2.80071e-45
2.84526e-45
2.88698e-45
2.9258e-45
2.9617e-45
2.9947e-45
3.02483e-45
3.05218e-45
3.07684e-45
3.09893e-45
3.11861e-45
3.13602e-45
3.15133e-45
3.16471e-45
3.17633e-45
3.18636e-45
3.19497e-45
3.20231e-45
3.20853e-45
3.21377e-45
3.21817e-45
3.22182e-45
3.22485e-45
3.22735e-45
3.22939e-45
3.23106e-45
3.23241e-45
3.2335e-45
3.23437e-45
3.23507e-45
3.23563e-45
3.23608e-45
3.23643e-45
3.23671e-45
3.23694e-45
3.23712e-45
3.23726e-45
3.23738e-45
3.23748e-45
3.23757e-45
3.23764e-45
3.2377e-45
3.23775e-45
3.23777e-45
3.23768e-45
3.23721e-45
3.23535e-45
3.23191e-45
3.23197e-45
3.23202e-45
3.23208e-45
3.23215e-45
3.23221e-45
3.23228e-45
3.23235e-45
3.23243e-45
3.23251e-45
3.23259e-45
3.23268e-45
3.23278e-45
3.23288e-45
3.23299e-45
3.2331e-45
3.23322e-45
3.23335e-45
3.23348e-45
3.23362e-45
3.23376e-45
3.2339e-45
3.23405e-45
3.2342e-45
3.23436e-45
3.23453e-45
3.2347e-45
3.23488e-45
3.23506e-45
3.23526e-45
3.23547e-45
3.2357e-45
3.23594e-45
3.23621e-45
3.23649e-45
3.2368e-45
3.23713e-45
3.23749e-45
3.23787e-45
3.23827e-45
3.2387e-45
3.23914e-45
3.2396e-45
3.24007e-45
3.24054e-45
3.24102e-45
3.24149e-45
3.24196e-45
3.24242e-45
3.24287e-45
3.2433e-45
3.24371e-45
3.24409e-45
3.24446e-45
3.24481e-45
3.24514e-45
3.24545e-45
3.24574e-45
3.24602e-45
3.24629e-45
3.24655e-45
3.2468e-45
3.24706e-45
3.24731e-45
3.24756e-45
3.24783e-45
3.24811e-45
3.24842e-45
3.24883e-45
3.24954e-45
3.25123e-45
3.25614e-45
3.27162e-45
3.32169e-45
3.48469e-45
4.01512e-45
5.73781e-45
1.13189e-44
2.93582e-44
8.75486e-44
2.74965e-43
8.77975e-43
2.81747e-42
9.0583e-42
2.91674e-41
9.4123e-41
3.04725e-40
9.91082e-40
3.24305e-39
1.06941e-38
3.55961e-38
1.19794e-37
4.08192e-37
1.40992e-36
4.94019e-36
1.75639e-35
6.33465e-35
2.316e-34
8.57436e-34
3.21024e-33
1.21372e-32
4.62705e-32
1.77619e-31
6.85678e-31
2.65891e-30
1.03471e-29
4.0375e-29
1.57864e-28
6.18151e-28
2.42297e-27
9.50364e-27
3.72905e-26
1.46345e-25
5.74335e-25
2.25378e-24
8.84275e-24
3.46882e-23
1.36049e-22
5.33507e-22
2.09187e-21
8.20171e-21
3.21572e-20
1.26091e-19
4.9449e-19
1.93965e-18
7.61048e-18
3.00389e-17
1.18264e-16
4.64879e-16
1.82729e-15
7.18469e-15
2.82598e-14
1.11196e-13
4.37681e-13
1.7233e-12
6.78709e-12
2.6737e-11
1.0535e-10
4.15172e-10
1.63637e-09
6.45015e-09
2.54249e-08
1.00208e-07
3.9484e-07
1.55486e-06
6.11606e-06
2.39981e-05
9.3587e-05
0.000359017
0.00131795
0.00434808
0.0117146
0.0244189
0.0410292
0.0611537
0.0851204
0.111109
0.135108
0.153873
0.170203
0.179837
0.186307
0.190697
0.19376
0.195989
0.197691
0.199058
0.200206
0.201205
0.2021
0.202919
0.203678
0.20439
0.205062
0.205701
0.206309
0.20689
0.207446
0.20798
0.208493
0.208987
0.209462
0.20992
0.210362
0.210789
0.211201
0.211599
0.211971
0.212327
0.212674
0.213012
0.213341
0.213663
0.213977
0.214285
0.214585
0.214879
0.215166
0.215448
0.215723
0.215994
0.216258
0.216518
0.216773
0.217023
0.217268
0.217509
0.217746
0.217979
0.218208
0.218433
0.218654
0.218872
0.219087
0.219298
0.219506
0.21971
0.219912
0.220111
0.220306
0.220499
0.220689
0.220877
0.221062
0.221244
0.221424
0.221601
0.221776
0.221949
0.222119
0.222287
0.222453
0.222616
0.222778
0.222937
0.223094
0.22325
0.223403
0.223554
0.223704
0.223852
0.223997
0.224142
0.224284
0.224425
0.224564
0.224701
0.224837
0.224971
0.225103
0.225234
0.225364
0.225492
0.225619
0.225745
0.225869
0.225992
0.226113
0.226234
0.226353
0.22647
0.226587
0.226702
0.226816
0.226929
0.227041
0.227152
0.227261
0.22737
0.227477
0.227583
0.227688
0.227793
0.227896
0.227998
0.228099
0.228199
0.228298
0.228397
0.228494
0.22859
0.228686
0.22878
0.228874
0.228967
0.229059
0.22915
0.22924
0.229329
0.229418
0.229505
0.229592
0.229679
0.229764
0.229849
0.229933
0.230016
0.230098
0.23018
0.230261
0.230341
0.230421
0.2305
0.230579
0.230657
0.230734
0.23081
0.230886
0.230962
0.231037
0.231111
0.231185
0.231258
0.231331
0.231403
0.231474
0.231545
0.231616
0.231686
0.231755
0.231824
0.231893
0.231961
0.232028
0.232096
0.232162
0.232228
0.232294
0.232359
0.232424
0.232488
0.232552
0.232615
0.232678
0.232741
0.232803
0.232864
0.232925
0.232986
0.233046
0.233106
0.233165
0.233224
0.233283
0.233341
0.233399
0.233456
0.233513
0.233569
0.233625
0.233681
0.233736
0.233791
0.233845
0.233899
0.233952
0.234006
0.234058
0.234111
0.234163
0.234215
0.234266
0.234317
0.234367
0.234417
0.234467
0.234516
0.234565
0.234612
0.234659
0.234705
0.234749
0.234789
0.234823
0.234846
)
;

boundaryField
{
    boundary
    {
        type            empty;
    }
    inlet
    {
        type            fixedValue;
        value           uniform 0;
    }
    outlet
    {
        type            zeroGradient;
    }
}


// ************************************************************************* //
