/*--------------------------------*- C++ -*----------------------------------*\
  =========                 |
  \\      /  F ield         | OpenFOAM: The Open Source CFD Toolbox
   \\    /   O peration     | Website:  https://openfoam.org
    \\  /    A nd           | Version:  7
     \\/     M anipulation  |
\*---------------------------------------------------------------------------*/
FoamFile
{
    version     2.0;
    format      ascii;
    class       volScalarField;
    location    "0.001";
    object      N2;
}
// * * * * * * * * * * * * * * * * * * * * * * * * * * * * * * * * * * * * * //

dimensions      [0 0 0 0 0 0 0];

internalField   nonuniform List<scalar> 
500
(
0.745219
0.745219
0.745219
0.745219
0.745219
0.745219
0.745219
0.745219
0.745219
0.745219
0.745219
0.745219
0.745219
0.745219
0.745219
0.745219
0.745219
0.745219
0.745219
0.745219
0.745219
0.745219
0.745219
0.745219
0.745219
0.745219
0.745219
0.745219
0.745219
0.745219
0.745219
0.745219
0.745219
0.745219
0.745219
0.745219
0.745219
0.745219
0.745219
0.745219
0.745219
0.745219
0.745219
0.745219
0.745219
0.745219
0.745219
0.745219
0.745219
0.745219
0.745219
0.745219
0.745219
0.745219
0.745219
0.745219
0.745219
0.745219
0.745219
0.745219
0.745219
0.745219
0.745219
0.745219
0.745219
0.745219
0.745219
0.745219
0.74522
0.74522
0.74522
0.74522
0.74522
0.74522
0.74522
0.74522
0.74522
0.74522
0.74522
0.74522
0.74522
0.74522
0.74522
0.74522
0.74522
0.74522
0.74522
0.74522
0.74522
0.74522
0.74522
0.74522
0.74522
0.74522
0.74522
0.74522
0.74522
0.74522
0.74522
0.74522
0.74522
0.74522
0.74522
0.74522
0.74522
0.74522
0.74522
0.74522
0.74522
0.74522
0.74522
0.74522
0.74522
0.74522
0.74522
0.74522
0.74522
0.74522
0.74522
0.74522
0.74522
0.74522
0.74522
0.74522
0.74522
0.74522
0.74522
0.74522
0.74522
0.74522
0.74522
0.74522
0.74522
0.74522
0.74522
0.74522
0.74522
0.74522
0.74522
0.74522
0.74522
0.74522
0.74522
0.74522
0.74522
0.74522
0.74522
0.74522
0.74522
0.74522
0.74522
0.74522
0.74522
0.74522
0.74522
0.74522
0.74522
0.74522
0.74522
0.74522
0.74522
0.74522
0.74522
0.74522
0.74522
0.74522
0.74522
0.74522
0.74522
0.74522
0.74522
0.74522
0.74522
0.74522
0.74522
0.74522
0.74522
0.74522
0.74522
0.74522
0.74522
0.74522
0.74522
0.74522
0.74522
0.74522
0.74522
0.74522
0.74522
0.74522
0.74522
0.74522
0.74522
0.74522
0.74522
0.74522
0.74522
0.74522
0.74522
0.74522
0.74522
0.74522
0.74522
0.74522
0.74522
0.74522
0.74522
0.74522
0.74522
0.74522
0.74522
0.74522
0.74522
0.74522
0.74522
0.74522
0.74522
0.74522
0.74522
0.74522
0.74522
0.74522
0.74522
0.74522
0.74522
0.74522
0.74522
0.74522
0.74522
0.74522
0.74522
0.74522
0.74522
0.74522
0.74522
0.74522
0.74522
0.74522
0.74522
0.74522
0.74522
0.74522
0.74522
0.74522
0.74522
0.74522
0.74522
0.74522
0.74522
0.74522
0.74522
0.74522
0.74522
0.74522
0.74522
0.74522
0.74522
0.74522
0.74522
0.74522
0.74522
0.74522
0.74522
0.74522
0.74522
0.745221
0.745222
0.745224
0.745229
0.745239
0.745259
0.745297
0.745368
0.745481
0.745602
0.745599
0.745366
0.744975
0.744449
0.743907
0.74362
0.74371
0.744006
0.744184
0.744768
0.744978
0.745124
0.745217
0.745274
0.745308
0.745328
0.745338
0.745344
0.745345
0.745345
0.745344
0.745342
0.74534
0.745337
0.745335
0.745332
0.74533
0.745327
0.745325
0.745323
0.74532
0.745318
0.745316
0.745314
0.745312
0.74531
0.745307
0.745305
0.745303
0.745301
0.745299
0.745297
0.745294
0.745292
0.74529
0.745288
0.745286
0.745283
0.745281
0.745279
0.745277
0.745275
0.745274
0.745272
0.74527
0.745268
0.745267
0.745265
0.745264
0.745263
0.745262
0.74526
0.745259
0.745259
0.745258
0.745257
0.745256
0.745256
0.745255
0.745255
0.745254
0.745254
0.745253
0.745253
0.745253
0.745252
0.745252
0.745252
0.745251
0.745251
0.745251
0.74525
0.74525
0.74525
0.74525
0.745249
0.745249
0.745249
0.745248
0.745248
0.745247
0.745247
0.745247
0.745246
0.745246
0.745246
0.745245
0.745245
0.745245
0.745244
0.745244
0.745244
0.745244
0.745244
0.745243
0.745243
0.745243
0.745243
0.745243
0.745242
0.745242
0.745242
0.745242
0.745242
0.745242
0.745242
0.745242
0.745241
0.745241
0.745241
0.745241
0.745241
0.745241
0.745241
0.745241
0.74524
0.74524
0.74524
0.74524
0.74524
0.745239
0.745239
0.745239
0.745239
0.745238
0.745238
0.745238
0.745237
0.745237
0.745237
0.745236
0.745236
0.745236
0.745235
0.745235
0.745234
0.745234
0.745234
0.745233
0.745233
0.745232
0.745232
0.745232
0.745231
0.745231
0.745231
0.74523
0.74523
0.74523
0.745229
0.745229
0.745229
0.745229
0.745228
0.745228
0.745228
0.745228
0.745228
0.745228
0.745227
0.745227
0.745227
0.745227
0.745227
0.745227
0.745227
0.745227
0.745227
0.745227
0.745227
0.745227
0.745227
0.745227
0.745227
0.745227
0.745227
0.745227
0.745227
0.745227
0.745227
0.745227
0.745227
0.745227
0.745227
0.745227
0.745227
0.745227
0.745227
0.745227
0.745227
0.745227
0.745227
0.745227
0.745227
0.745227
0.745227
0.745227
0.745226
0.745226
0.745226
0.745226
0.745226
0.745226
0.745225
0.745225
0.745224
0.745224
0.745223
0.745223
0.745222
0.745221
0.74522
0.745219
0.745218
0.745217
)
;

boundaryField
{
    boundary
    {
        type            empty;
    }
    inlet
    {
        type            fixedValue;
        value           uniform 0.74522;
    }
    outlet
    {
        type            zeroGradient;
    }
}


// ************************************************************************* //
