/*--------------------------------*- C++ -*----------------------------------*\
  =========                 |
  \\      /  F ield         | OpenFOAM: The Open Source CFD Toolbox
   \\    /   O peration     | Website:  https://openfoam.org
    \\  /    A nd           | Version:  7
     \\/     M anipulation  |
\*---------------------------------------------------------------------------*/
FoamFile
{
    version     2.0;
    format      ascii;
    class       volScalarField;
    location    "0.001";
    object      O2;
}
// * * * * * * * * * * * * * * * * * * * * * * * * * * * * * * * * * * * * * //

dimensions      [0 0 0 0 0 0 0];

internalField   nonuniform List<scalar> 
500
(
0.226269
0.226269
0.226269
0.226269
0.226269
0.226269
0.226269
0.226269
0.226269
0.226269
0.226269
0.226269
0.226269
0.226269
0.226269
0.226269
0.226269
0.226269
0.226269
0.226269
0.226269
0.226269
0.226269
0.226269
0.226269
0.226269
0.226269
0.226269
0.226269
0.226269
0.226269
0.226269
0.226269
0.226269
0.226269
0.226269
0.226269
0.226269
0.226269
0.226269
0.226269
0.226269
0.226269
0.226269
0.226269
0.226269
0.226269
0.226269
0.226269
0.226269
0.226269
0.226269
0.226269
0.226269
0.226269
0.226269
0.226269
0.226269
0.226269
0.226269
0.226269
0.226269
0.226269
0.226269
0.226269
0.226269
0.226269
0.226269
0.226269
0.226269
0.226269
0.226269
0.226269
0.226269
0.226269
0.226269
0.226269
0.226269
0.226269
0.226269
0.226269
0.226269
0.226269
0.226269
0.226269
0.226269
0.226269
0.226269
0.226269
0.226269
0.226269
0.226269
0.226269
0.226269
0.226269
0.226269
0.226269
0.226269
0.226269
0.226269
0.226269
0.226269
0.226269
0.226269
0.226269
0.226269
0.226269
0.226269
0.226269
0.226269
0.226269
0.226269
0.226269
0.226269
0.226269
0.226269
0.226269
0.226269
0.226269
0.226269
0.226269
0.226269
0.226269
0.226269
0.226269
0.226269
0.226269
0.226269
0.226269
0.226269
0.226269
0.226269
0.226269
0.226269
0.226269
0.226269
0.226269
0.226269
0.226269
0.226269
0.226269
0.226269
0.226269
0.226269
0.226269
0.226269
0.226269
0.226269
0.226269
0.226269
0.226269
0.226269
0.226269
0.226269
0.226269
0.226269
0.226269
0.226269
0.226269
0.226269
0.226269
0.226269
0.226269
0.226269
0.226269
0.226269
0.226269
0.226269
0.226269
0.226269
0.226269
0.226269
0.226269
0.226269
0.226269
0.226269
0.226269
0.226269
0.226269
0.226269
0.226269
0.226269
0.226269
0.226269
0.226269
0.226269
0.226269
0.226269
0.226269
0.226269
0.226269
0.226269
0.226269
0.226269
0.226269
0.226269
0.226269
0.226269
0.226269
0.226269
0.226269
0.226269
0.226269
0.226269
0.226269
0.226269
0.226269
0.226269
0.226269
0.226269
0.226269
0.226269
0.226269
0.226269
0.226269
0.226269
0.226269
0.226269
0.226269
0.226269
0.226269
0.226269
0.226269
0.226269
0.226269
0.226269
0.226269
0.226269
0.226269
0.226269
0.226269
0.226269
0.226269
0.226269
0.226269
0.226269
0.226269
0.226269
0.226269
0.226269
0.226269
0.226269
0.226269
0.226269
0.226269
0.226269
0.226269
0.226269
0.226269
0.226269
0.226269
0.226269
0.226269
0.226269
0.226269
0.226269
0.226269
0.226269
0.226269
0.226269
0.226269
0.226269
0.226269
0.226269
0.226269
0.226269
0.22627
0.22627
0.226272
0.226274
0.226278
0.226276
0.226238
0.226039
0.225249
0.222794
0.216775
0.206115
0.192047
0.174213
0.151607
0.125888
0.101411
0.0819866
0.0644433
0.0541148
0.0471291
0.0423945
0.0391223
0.0367867
0.0350512
0.0337045
0.032615
0.0317003
0.0309086
0.0302066
0.0295727
0.0289925
0.0284561
0.0279563
0.0274881
0.0270473
0.026631
0.0262367
0.0258622
0.025506
0.0251663
0.0248421
0.0245321
0.0242355
0.0239515
0.0236795
0.0234271
0.0231874
0.0229552
0.0227302
0.022512
0.0223002
0.0220945
0.0218945
0.0217001
0.0215108
0.0213265
0.0211468
0.0209716
0.0208006
0.0206337
0.0204706
0.0203111
0.0201552
0.0200026
0.0198531
0.0197067
0.0195632
0.0194225
0.0192844
0.019149
0.019016
0.0188854
0.0187571
0.018631
0.018507
0.0183852
0.0182654
0.0181475
0.0180316
0.0179175
0.0178053
0.0176948
0.0175861
0.017479
0.0173736
0.0172699
0.0171677
0.0170671
0.016968
0.0168704
0.0167742
0.0166795
0.0165861
0.0164941
0.0164035
0.0163141
0.016226
0.0161392
0.0160535
0.0159691
0.0158858
0.0158036
0.0157225
0.0156425
0.0155635
0.0154855
0.0154086
0.0153326
0.0152576
0.0151835
0.0151103
0.015038
0.0149666
0.014896
0.0148263
0.0147574
0.0146893
0.014622
0.0145555
0.0144897
0.0144247
0.0143604
0.0142969
0.014234
0.0141719
0.0141105
0.0140497
0.0139896
0.0139302
0.0138715
0.0138134
0.0137559
0.0136991
0.0136429
0.0135873
0.0135323
0.0134779
0.0134241
0.0133709
0.0133183
0.0132662
0.0132147
0.0131637
0.0131133
0.0130634
0.013014
0.0129652
0.0129168
0.012869
0.0128216
0.0127747
0.0127283
0.0126823
0.0126367
0.0125916
0.0125469
0.0125027
0.0124588
0.0124153
0.0123722
0.0123295
0.0122872
0.0122452
0.0122035
0.0121622
0.0121212
0.0120806
0.0120403
0.0120002
0.0119605
0.0119211
0.0118819
0.0118431
0.0118045
0.0117662
0.0117282
0.0116905
0.011653
0.0116158
0.0115788
0.0115422
0.0115057
0.0114696
0.0114336
0.011398
0.0113626
0.0113274
0.0112925
0.0112579
0.0112235
0.0111893
0.0111554
0.0111217
0.0110883
0.0110552
0.0110223
0.0109896
0.0109572
0.010925
0.010893
0.0108613
0.0108299
0.0107987
0.0107677
0.0107369
0.0107064
0.0106761
0.0106461
0.0106162
0.0105866
0.0105573
0.0105281
0.0104992
0.0104705
0.010442
0.0104137
0.0103856
0.0103577
0.01033
0.0103025
0.0102752
0.0102481
0.0102212
0.0101944
0.0101677
0.0101412
0.0101149
0.0100888
0.0100631
0.010038
0.0100142
0.00999327
0.00997859
)
;

boundaryField
{
    boundary
    {
        type            empty;
    }
    inlet
    {
        type            fixedValue;
        value           uniform 0.226269;
    }
    outlet
    {
        type            zeroGradient;
    }
}


// ************************************************************************* //
