/*--------------------------------*- C++ -*----------------------------------*\
  =========                 |
  \\      /  F ield         | OpenFOAM: The Open Source CFD Toolbox
   \\    /   O peration     | Website:  https://openfoam.org
    \\  /    A nd           | Version:  7
     \\/     M anipulation  |
\*---------------------------------------------------------------------------*/
FoamFile
{
    version     2.0;
    format      ascii;
    class       volScalarField;
    location    "0.001";
    object      Qdot;
}
// * * * * * * * * * * * * * * * * * * * * * * * * * * * * * * * * * * * * * //

dimensions      [1 -1 -3 0 0 0 0];

internalField   nonuniform List<scalar> 
500
(
-2.45265e-27
-1.86329e-27
-1.73641e-27
-1.7092e-27
-1.70349e-27
-1.70246e-27
-1.70248e-27
-1.70277e-27
-1.70313e-27
-1.70351e-27
-1.70388e-27
-1.70421e-27
-1.70449e-27
-1.70468e-27
-1.70479e-27
-1.70478e-27
-1.70465e-27
-1.70438e-27
-1.70396e-27
-1.70338e-27
-1.70264e-27
-1.70175e-27
-1.70071e-27
-1.69954e-27
-1.69826e-27
-1.69691e-27
-1.69551e-27
-1.69411e-27
-1.69275e-27
-1.69146e-27
-1.6903e-27
-1.6893e-27
-1.68851e-27
-1.68795e-27
-1.68768e-27
-1.68771e-27
-1.68809e-27
-1.68883e-27
-1.68997e-27
-1.69154e-27
-1.69355e-27
-1.69605e-27
-1.69906e-27
-1.70262e-27
-1.70678e-27
-1.71157e-27
-1.71706e-27
-1.72328e-27
-1.73031e-27
-1.73819e-27
-1.74701e-27
-1.75682e-27
-1.76769e-27
-1.77968e-27
-1.79286e-27
-1.80727e-27
-1.82296e-27
-1.83997e-27
-1.85832e-27
-1.87803e-27
-1.89909e-27
-1.92148e-27
-1.94517e-27
-1.9701e-27
-1.99619e-27
-2.02336e-27
-2.05148e-27
-2.08043e-27
-2.11006e-27
-2.14021e-27
-2.17071e-27
-2.20137e-27
-2.232e-27
-2.26243e-27
-2.29245e-27
-2.32189e-27
-2.35057e-27
-2.37834e-27
-2.40504e-27
-2.43056e-27
-2.45479e-27
-2.47764e-27
-2.49906e-27
-2.51899e-27
-2.53743e-27
-2.55438e-27
-2.56986e-27
-2.5839e-27
-2.59657e-27
-2.60792e-27
-2.61802e-27
-2.62697e-27
-2.63484e-27
-2.64172e-27
-2.64771e-27
-2.65288e-27
-2.65732e-27
-2.66112e-27
-2.66434e-27
-2.66707e-27
-2.66936e-27
-2.67127e-27
-2.67287e-27
-2.67418e-27
-2.67527e-27
-2.67616e-27
-2.67688e-27
-2.67747e-27
-2.67795e-27
-2.67834e-27
-2.67865e-27
-2.6789e-27
-2.6791e-27
-2.67926e-27
-2.6794e-27
-2.67951e-27
-2.6796e-27
-2.67967e-27
-2.67974e-27
-2.67979e-27
-2.67984e-27
-2.67989e-27
-2.67993e-27
-2.67997e-27
-2.67998e-27
-2.67996e-27
-2.68003e-27
-2.68009e-27
-2.68014e-27
-2.68018e-27
-2.68021e-27
-2.68026e-27
-2.6803e-27
-2.68035e-27
-2.68041e-27
-2.68048e-27
-2.68055e-27
-2.68063e-27
-2.68071e-27
-2.6808e-27
-2.6809e-27
-2.681e-27
-2.68111e-27
-2.68122e-27
-2.68134e-27
-2.68145e-27
-2.68157e-27
-2.68169e-27
-2.6818e-27
-2.68191e-27
-2.68202e-27
-2.68213e-27
-2.68223e-27
-2.68233e-27
-2.68242e-27
-2.68251e-27
-2.6826e-27
-2.68268e-27
-2.68277e-27
-2.68285e-27
-2.68294e-27
-2.68303e-27
-2.68313e-27
-2.68322e-27
-2.68332e-27
-2.68343e-27
-2.68354e-27
-2.68366e-27
-2.68379e-27
-2.68391e-27
-2.68405e-27
-2.68418e-27
-2.68433e-27
-2.68447e-27
-2.68462e-27
-2.68477e-27
-2.68493e-27
-2.68508e-27
-2.68524e-27
-2.6854e-27
-2.68557e-27
-2.68573e-27
-2.6859e-27
-2.68607e-27
-2.68624e-27
-2.68641e-27
-2.68658e-27
-2.68675e-27
-2.68693e-27
-2.68711e-27
-2.68728e-27
-2.68746e-27
-2.68764e-27
-2.68782e-27
-2.688e-27
-2.68818e-27
-2.68835e-27
-2.68853e-27
-2.68871e-27
-2.68888e-27
-2.68905e-27
-2.68922e-27
-2.68938e-27
-2.68954e-27
-2.68967e-27
-2.68975e-27
-2.68968e-27
-2.6891e-27
-2.68699e-27
-2.68004e-27
-2.65795e-27
-2.5885e-27
-2.37123e-27
-1.69325e-27
4.18212e-28
6.98302e-27
2.73634e-26
9.05481e-26
2.86194e-25
8.91305e-25
2.76089e-24
8.53179e-24
2.63294e-23
8.11734e-23
2.50053e-22
7.69718e-22
2.36778e-21
7.2791e-21
2.23644e-20
6.86744e-20
2.10766e-19
6.46525e-19
1.98226e-18
6.07498e-18
1.86103e-17
5.69924e-17
1.7449e-16
5.34155e-16
1.63525e-15
5.00759e-15
1.53446e-14
4.70742e-14
1.44685e-13
4.45994e-13
1.3808e-12
4.3025e-12
1.35309e-11
4.31102e-11
1.39821e-10
4.64271e-10
1.58793e-09
5.65627e-09
2.08838e-08
8.01066e-08
3.19053e-07
1.31402e-06
5.56429e-06
2.40819e-05
0.000105967
0.000472025
0.00212193
0.00960688
0.043761
0.200559
0.925794
4.31438
20.3786
104.347
587.989
4013.99
30247.6
253983
2.35011e+06
2.24113e+07
2.02256e+08
1.42216e+09
5.61981e+09
1.11581e+10
1.35534e+10
1.3883e+10
1.39202e+10
1.36987e+10
1.27276e+10
1.0967e+10
8.94296e+09
7.2619e+09
5.9976e+09
5.02957e+09
4.29226e+09
3.72299e+09
3.275e+09
2.91535e+09
2.62108e+09
2.37617e+09
2.16933e+09
1.99238e+09
1.83935e+09
1.70575e+09
1.58816e+09
1.48393e+09
1.39096e+09
1.30757e+09
1.23239e+09
1.16433e+09
1.10245e+09
1.04598e+09
9.94282e+08
9.46794e+08
9.03055e+08
8.62669e+08
8.25307e+08
7.90736e+08
7.59522e+08
7.30864e+08
7.03844e+08
6.78418e+08
6.54432e+08
6.31773e+08
6.10339e+08
5.90038e+08
5.70785e+08
5.52506e+08
5.35134e+08
5.18606e+08
5.02865e+08
4.8786e+08
4.73543e+08
4.5987e+08
4.46802e+08
4.34302e+08
4.22334e+08
4.10869e+08
3.99876e+08
3.89329e+08
3.79204e+08
3.69476e+08
3.60124e+08
3.51128e+08
3.4247e+08
3.34131e+08
3.26097e+08
3.18351e+08
3.10879e+08
3.03669e+08
2.96706e+08
2.89981e+08
2.83481e+08
2.77197e+08
2.71119e+08
2.65237e+08
2.59544e+08
2.5403e+08
2.48688e+08
2.4351e+08
2.38491e+08
2.33623e+08
2.289e+08
2.24316e+08
2.19865e+08
2.15544e+08
2.11345e+08
2.07265e+08
2.03298e+08
1.99442e+08
1.95691e+08
1.92041e+08
1.88489e+08
1.85032e+08
1.81665e+08
1.78386e+08
1.75192e+08
1.72079e+08
1.69046e+08
1.6609e+08
1.63214e+08
1.60416e+08
1.57684e+08
1.55003e+08
1.52381e+08
1.49823e+08
1.47325e+08
1.44885e+08
1.42501e+08
1.40172e+08
1.37895e+08
1.35669e+08
1.33493e+08
1.31364e+08
1.29282e+08
1.27246e+08
1.25253e+08
1.23302e+08
1.21393e+08
1.19525e+08
1.17695e+08
1.15903e+08
1.14148e+08
1.12429e+08
1.10745e+08
1.09094e+08
1.07477e+08
1.05892e+08
1.04338e+08
1.02815e+08
1.01321e+08
9.98562e+07
9.84195e+07
9.70101e+07
9.56274e+07
9.42707e+07
9.29394e+07
9.16328e+07
9.035e+07
8.9091e+07
8.78549e+07
8.66411e+07
8.54491e+07
8.42783e+07
8.31282e+07
8.19984e+07
8.08884e+07
7.97976e+07
7.87256e+07
7.76721e+07
7.66364e+07
7.56183e+07
7.46173e+07
7.3633e+07
7.26654e+07
7.17133e+07
7.0777e+07
6.98559e+07
6.89497e+07
6.80582e+07
6.71809e+07
6.63176e+07
6.54679e+07
6.46316e+07
6.38085e+07
6.29981e+07
6.22003e+07
6.14147e+07
6.06412e+07
5.98795e+07
5.91294e+07
5.83906e+07
5.7663e+07
5.69453e+07
5.62395e+07
5.55439e+07
5.48584e+07
5.41831e+07
5.35175e+07
5.28616e+07
5.22153e+07
5.15783e+07
5.09505e+07
5.03311e+07
4.97211e+07
4.91198e+07
4.85268e+07
4.79422e+07
4.73658e+07
4.67975e+07
4.6237e+07
4.56843e+07
4.51392e+07
4.46016e+07
4.40714e+07
4.35484e+07
4.30325e+07
4.25236e+07
4.20216e+07
4.15263e+07
4.10376e+07
4.05555e+07
4.00798e+07
3.96104e+07
3.91473e+07
3.86902e+07
3.82392e+07
3.7794e+07
3.73547e+07
3.69212e+07
3.64933e+07
3.60709e+07
3.56541e+07
3.52426e+07
3.48367e+07
3.44359e+07
3.404e+07
3.36494e+07
3.32636e+07
3.28823e+07
3.25051e+07
3.21313e+07
3.17614e+07
3.13959e+07
3.10473e+07
3.07795e+07
)
;

boundaryField
{
    boundary
    {
        type            empty;
    }
    inlet
    {
        type            calculated;
        value           uniform 0;
    }
    outlet
    {
        type            calculated;
        value           uniform 0;
    }
}


// ************************************************************************* //
