/*--------------------------------*- C++ -*----------------------------------*\
  =========                 |
  \\      /  F ield         | OpenFOAM: The Open Source CFD Toolbox
   \\    /   O peration     | Website:  https://openfoam.org
    \\  /    A nd           | Version:  7
     \\/     M anipulation  |
\*---------------------------------------------------------------------------*/
FoamFile
{
    version     2.0;
    format      ascii;
    class       volScalarField;
    location    "0.00069";
    object      OH;
}
// * * * * * * * * * * * * * * * * * * * * * * * * * * * * * * * * * * * * * //

dimensions      [0 0 0 0 0 0 0];

internalField   nonuniform List<scalar> 
125
(
9.36684e-48
1.82294e-47
2.42579e-47
2.8306e-47
3.1008e-47
3.28043e-47
3.3995e-47
3.47837e-47
3.53076e-47
3.56594e-47
3.59014e-47
3.60751e-47
3.6208e-47
3.6318e-47
3.64165e-47
3.65107e-47
3.66049e-47
3.6702e-47
3.68035e-47
3.69107e-47
3.70247e-47
3.71466e-47
3.72777e-47
3.74198e-47
3.75748e-47
3.77452e-47
3.79338e-47
3.81436e-47
3.8378e-47
3.86407e-47
3.89356e-47
3.92666e-47
3.96377e-47
4.00529e-47
4.05159e-47
4.10301e-47
4.15984e-47
4.22232e-47
4.29061e-47
4.36479e-47
4.44483e-47
4.5306e-47
4.62185e-47
4.71819e-47
4.81913e-47
4.92405e-47
5.03221e-47
5.14277e-47
5.25484e-47
5.36742e-47
5.47952e-47
5.59013e-47
5.69827e-47
5.803e-47
5.9035e-47
5.99902e-47
6.08896e-47
6.17283e-47
6.25032e-47
6.32122e-47
6.3855e-47
6.44323e-47
6.4946e-47
6.53989e-47
6.57947e-47
6.61374e-47
6.64316e-47
6.6682e-47
6.68932e-47
6.707e-47
6.72166e-47
6.73372e-47
6.74358e-47
6.75155e-47
6.75797e-47
6.76308e-47
6.76713e-47
6.77032e-47
6.77281e-47
6.77474e-47
6.77623e-47
6.77738e-47
6.77825e-47
6.77893e-47
6.77944e-47
6.77983e-47
6.78014e-47
6.78038e-47
6.78057e-47
6.78072e-47
6.78086e-47
6.78097e-47
6.78108e-47
6.78117e-47
6.78127e-47
6.78136e-47
6.78146e-47
6.78155e-47
6.78165e-47
6.78175e-47
6.78186e-47
6.78196e-47
6.78208e-47
6.7822e-47
6.78232e-47
6.78245e-47
6.78259e-47
6.78273e-47
6.78288e-47
6.78303e-47
6.78319e-47
6.78335e-47
6.78353e-47
6.78371e-47
6.78389e-47
6.78409e-47
6.78429e-47
6.7845e-47
6.78471e-47
6.78494e-47
6.78518e-47
6.78544e-47
6.78575e-47
6.78612e-47
6.78661e-47
)
;

boundaryField
{
    boundary
    {
        type            empty;
    }
    inlet
    {
        type            fixedValue;
        value           uniform 0;
    }
    outlet
    {
        type            zeroGradient;
    }
    procBoundary2to3
    {
        type            processor;
        value           uniform 6.78719e-47;
    }
}


// ************************************************************************* //
