/*--------------------------------*- C++ -*----------------------------------*\
  =========                 |
  \\      /  F ield         | OpenFOAM: The Open Source CFD Toolbox
   \\    /   O peration     | Website:  https://openfoam.org
    \\  /    A nd           | Version:  7
     \\/     M anipulation  |
\*---------------------------------------------------------------------------*/
FoamFile
{
    version     2.0;
    format      ascii;
    class       volScalarField;
    location    "0.00069";
    object      Qdot;
}
// * * * * * * * * * * * * * * * * * * * * * * * * * * * * * * * * * * * * * //

dimensions      [1 -1 -3 0 0 0 0];

internalField   nonuniform List<scalar> 
125
(
-2.45038e-27
-1.85878e-27
-1.72917e-27
-1.69879e-27
-1.6896e-27
-1.68491e-27
-1.68128e-27
-1.67809e-27
-1.67531e-27
-1.67299e-27
-1.67119e-27
-1.66995e-27
-1.66926e-27
-1.66912e-27
-1.66947e-27
-1.67029e-27
-1.67152e-27
-1.67313e-27
-1.67508e-27
-1.67736e-27
-1.67996e-27
-1.68289e-27
-1.68619e-27
-1.68991e-27
-1.6941e-27
-1.69884e-27
-1.70423e-27
-1.71038e-27
-1.71739e-27
-1.7254e-27
-1.73453e-27
-1.74493e-27
-1.75672e-27
-1.77003e-27
-1.78499e-27
-1.8017e-27
-1.82027e-27
-1.84075e-27
-1.86319e-27
-1.8876e-27
-1.91397e-27
-1.94223e-27
-1.97229e-27
-2.004e-27
-2.03718e-27
-2.07162e-27
-2.10705e-27
-2.1432e-27
-2.17976e-27
-2.2164e-27
-2.25279e-27
-2.2886e-27
-2.32352e-27
-2.35725e-27
-2.38952e-27
-2.42011e-27
-2.44883e-27
-2.47554e-27
-2.50015e-27
-2.52261e-27
-2.54292e-27
-2.56111e-27
-2.57726e-27
-2.59147e-27
-2.60386e-27
-2.61456e-27
-2.62373e-27
-2.63152e-27
-2.63808e-27
-2.64356e-27
-2.6481e-27
-2.65182e-27
-2.65486e-27
-2.65732e-27
-2.65929e-27
-2.66087e-27
-2.66211e-27
-2.66309e-27
-2.66385e-27
-2.66444e-27
-2.66489e-27
-2.66524e-27
-2.66551e-27
-2.66572e-27
-2.66587e-27
-2.66599e-27
-2.66609e-27
-2.66616e-27
-2.66622e-27
-2.66627e-27
-2.66631e-27
-2.66634e-27
-2.66637e-27
-2.6664e-27
-2.66643e-27
-2.66646e-27
-2.66649e-27
-2.66652e-27
-2.66655e-27
-2.66658e-27
-2.66662e-27
-2.66665e-27
-2.66669e-27
-2.66672e-27
-2.66676e-27
-2.6668e-27
-2.66684e-27
-2.66689e-27
-2.66693e-27
-2.66698e-27
-2.66703e-27
-2.66708e-27
-2.66714e-27
-2.66719e-27
-2.66725e-27
-2.66731e-27
-2.66737e-27
-2.66744e-27
-2.6675e-27
-2.66758e-27
-2.66765e-27
-2.66774e-27
-2.66784e-27
-2.66798e-27
-2.66821e-27
)
;

boundaryField
{
    boundary
    {
        type            empty;
    }
    inlet
    {
        type            calculated;
        value           uniform 0;
    }
    outlet
    {
        type            calculated;
        value           nonuniform 0();
    }
    procBoundary2to3
    {
        type            processor;
        value           uniform 0;
    }
}


// ************************************************************************* //
