/*--------------------------------*- C++ -*----------------------------------*\
  =========                 |
  \\      /  F ield         | OpenFOAM: The Open Source CFD Toolbox
   \\    /   O peration     | Website:  https://openfoam.org
    \\  /    A nd           | Version:  7
     \\/     M anipulation  |
\*---------------------------------------------------------------------------*/
FoamFile
{
    version     2.0;
    format      ascii;
    class       volScalarField;
    location    "0.00069";
    object      T;
}
// * * * * * * * * * * * * * * * * * * * * * * * * * * * * * * * * * * * * * //

dimensions      [0 0 0 1 0 0 0];

internalField   nonuniform List<scalar> 
125
(
299.998
299.994
299.99
299.984
299.978
299.971
299.965
299.958
299.953
299.948
299.945
299.942
299.941
299.94
299.941
299.942
299.945
299.948
299.952
299.956
299.961
299.967
299.974
299.981
299.989
299.998
300.009
300.021
300.034
300.05
300.067
300.087
300.109
300.135
300.162
300.193
300.227
300.264
300.305
300.348
300.394
300.443
300.494
300.547
300.602
300.657
300.714
300.771
300.827
300.883
300.938
300.991
301.041
301.09
301.135
301.178
301.218
301.255
301.288
301.318
301.346
301.37
301.391
301.41
301.426
301.44
301.452
301.462
301.471
301.478
301.484
301.489
301.493
301.496
301.498
301.5
301.502
301.503
301.504
301.505
301.506
301.506
301.506
301.507
301.507
301.507
301.507
301.507
301.507
301.507
301.508
301.508
301.508
301.508
301.508
301.508
301.508
301.508
301.508
301.508
301.508
301.508
301.508
301.508
301.508
301.508
301.508
301.508
301.508
301.508
301.508
301.508
301.509
301.509
301.509
301.509
301.509
301.509
301.509
301.509
301.509
301.509
301.509
301.51
301.51
)
;

boundaryField
{
    boundary
    {
        type            empty;
    }
    inlet
    {
        type            fixedValue;
        value           uniform 300;
    }
    outlet
    {
        type            zeroGradient;
    }
    procBoundary2to3
    {
        type            processor;
        value           uniform 301.51;
    }
}


// ************************************************************************* //
