/*--------------------------------*- C++ -*----------------------------------*\
  =========                 |
  \\      /  F ield         | OpenFOAM: The Open Source CFD Toolbox
   \\    /   O peration     | Website:  https://openfoam.org
    \\  /    A nd           | Version:  7
     \\/     M anipulation  |
\*---------------------------------------------------------------------------*/
FoamFile
{
    version     2.0;
    format      ascii;
    class       volScalarField;
    location    "0.0003";
    object      HO2;
}
// * * * * * * * * * * * * * * * * * * * * * * * * * * * * * * * * * * * * * //

dimensions      [0 0 0 0 0 0 0];

internalField   nonuniform List<scalar> 
125
(
5.6051e-38
1.27758e-37
2.00018e-37
2.72756e-37
3.46093e-37
4.20235e-37
4.95439e-37
5.72014e-37
6.50299e-37
7.30644e-37
8.13363e-37
8.98692e-37
9.86731e-37
1.07739e-36
1.17036e-36
1.26507e-36
1.36069e-36
1.45616e-36
1.55025e-36
1.64163e-36
1.72895e-36
1.81098e-36
1.88663e-36
1.9551e-36
2.01588e-36
2.06879e-36
2.11393e-36
2.15168e-36
2.18264e-36
2.20752e-36
2.22713e-36
2.24229e-36
2.25379e-36
2.26235e-36
2.2686e-36
2.27309e-36
2.27626e-36
2.27845e-36
2.27994e-36
2.28094e-36
2.2816e-36
2.28203e-36
2.28231e-36
2.28248e-36
2.28258e-36
2.28265e-36
2.28269e-36
2.28271e-36
2.28273e-36
2.28274e-36
2.28274e-36
2.28275e-36
2.28275e-36
2.28275e-36
2.28276e-36
2.28276e-36
2.28276e-36
2.28277e-36
2.28277e-36
2.28278e-36
2.28278e-36
2.28279e-36
2.2828e-36
2.28281e-36
2.28282e-36
2.28283e-36
2.28284e-36
2.28285e-36
2.28286e-36
2.28288e-36
2.28289e-36
2.28291e-36
2.28292e-36
2.28294e-36
2.28296e-36
2.28298e-36
2.283e-36
2.28303e-36
2.28305e-36
2.28308e-36
2.2831e-36
2.28313e-36
2.28316e-36
2.2832e-36
2.28323e-36
2.28327e-36
2.2833e-36
2.28334e-36
2.28338e-36
2.28343e-36
2.28347e-36
2.28352e-36
2.28357e-36
2.28362e-36
2.28367e-36
2.28372e-36
2.28378e-36
2.28384e-36
2.2839e-36
2.28397e-36
2.28403e-36
2.2841e-36
2.28417e-36
2.28424e-36
2.28432e-36
2.2844e-36
2.28448e-36
2.28456e-36
2.28464e-36
2.28473e-36
2.28482e-36
2.28491e-36
2.28501e-36
2.28511e-36
2.28521e-36
2.28531e-36
2.28541e-36
2.28552e-36
2.28563e-36
2.28574e-36
2.28585e-36
2.28596e-36
2.28608e-36
2.28626e-36
2.28678e-36
)
;

boundaryField
{
    boundary
    {
        type            empty;
    }
    inlet
    {
        type            fixedValue;
        value           uniform 0;
    }
    outlet
    {
        type            zeroGradient;
    }
    procBoundary2to3
    {
        type            processor;
        value           uniform 2.2881e-36;
    }
}


// ************************************************************************* //
