/*--------------------------------*- C++ -*----------------------------------*\
  =========                 |
  \\      /  F ield         | OpenFOAM: The Open Source CFD Toolbox
   \\    /   O peration     | Website:  https://openfoam.org
    \\  /    A nd           | Version:  7
     \\/     M anipulation  |
\*---------------------------------------------------------------------------*/
FoamFile
{
    version     2.0;
    format      ascii;
    class       surfaceScalarField;
    location    "0.0003";
    object      phi;
}
// * * * * * * * * * * * * * * * * * * * * * * * * * * * * * * * * * * * * * //

dimensions      [1 0 -1 0 0 0 0];

internalField   nonuniform List<scalar> 
124
(
6.93058e-06
6.93014e-06
6.92969e-06
6.92921e-06
6.9287e-06
6.92813e-06
6.9275e-06
6.92678e-06
6.92597e-06
6.92504e-06
6.92397e-06
6.92274e-06
6.92135e-06
6.91978e-06
6.91804e-06
6.91613e-06
6.91408e-06
6.91191e-06
6.90965e-06
6.90735e-06
6.90505e-06
6.90278e-06
6.90059e-06
6.89852e-06
6.89659e-06
6.89481e-06
6.89321e-06
6.89178e-06
6.89052e-06
6.88942e-06
6.88846e-06
6.88763e-06
6.88691e-06
6.88629e-06
6.88574e-06
6.88525e-06
6.88481e-06
6.88441e-06
6.88403e-06
6.88368e-06
6.88334e-06
6.88301e-06
6.88269e-06
6.88237e-06
6.88206e-06
6.88175e-06
6.88144e-06
6.88113e-06
6.88082e-06
6.88051e-06
6.88021e-06
6.8799e-06
6.8796e-06
6.87929e-06
6.87898e-06
6.87868e-06
6.87837e-06
6.87807e-06
6.87776e-06
6.87746e-06
6.87715e-06
6.87685e-06
6.87654e-06
6.87624e-06
6.87593e-06
6.87563e-06
6.87532e-06
6.87502e-06
6.87472e-06
6.87441e-06
6.87411e-06
6.8738e-06
6.8735e-06
6.8732e-06
6.87289e-06
6.87259e-06
6.87229e-06
6.87199e-06
6.87168e-06
6.87138e-06
6.87108e-06
6.87078e-06
6.87048e-06
6.87017e-06
6.86987e-06
6.86957e-06
6.86927e-06
6.86897e-06
6.86867e-06
6.86837e-06
6.86807e-06
6.86776e-06
6.86746e-06
6.86716e-06
6.86686e-06
6.86656e-06
6.86626e-06
6.86596e-06
6.86566e-06
6.86537e-06
6.86507e-06
6.86477e-06
6.86447e-06
6.86417e-06
6.86387e-06
6.86357e-06
6.86327e-06
6.86298e-06
6.86268e-06
6.86238e-06
6.86208e-06
6.86178e-06
6.86149e-06
6.86119e-06
6.86089e-06
6.8606e-06
6.8603e-06
6.86e-06
6.85971e-06
6.85941e-06
6.85911e-06
6.85882e-06
6.85852e-06
6.85823e-06
)
;

boundaryField
{
    boundary
    {
        type            empty;
        value           nonuniform 0();
    }
    inlet
    {
        type            calculated;
        value           uniform -6.93101e-06;
    }
    outlet
    {
        type            calculated;
        value           nonuniform 0();
    }
    procBoundary2to3
    {
        type            processor;
        value           uniform 6.85793e-06;
    }
}


// ************************************************************************* //
