/*--------------------------------*- C++ -*----------------------------------*\
  =========                 |
  \\      /  F ield         | OpenFOAM: The Open Source CFD Toolbox
   \\    /   O peration     | Website:  https://openfoam.org
    \\  /    A nd           | Version:  7
     \\/     M anipulation  |
\*---------------------------------------------------------------------------*/
FoamFile
{
    version     2.0;
    format      ascii;
    class       volScalarField;
    location    "0.0003";
    object      Qdot;
}
// * * * * * * * * * * * * * * * * * * * * * * * * * * * * * * * * * * * * * //

dimensions      [1 -1 -3 0 0 0 0];

internalField   nonuniform List<scalar> 
125
(
-2.45452e-27
-1.86777e-27
-1.74413e-27
-1.721e-27
-1.72042e-27
-1.72588e-27
-1.73408e-27
-1.74466e-27
-1.75791e-27
-1.77428e-27
-1.79426e-27
-1.8183e-27
-1.84677e-27
-1.87992e-27
-1.91784e-27
-1.9604e-27
-2.00725e-27
-2.05782e-27
-2.1113e-27
-2.1667e-27
-2.22288e-27
-2.27863e-27
-2.33275e-27
-2.38412e-27
-2.4318e-27
-2.47506e-27
-2.51346e-27
-2.5468e-27
-2.57511e-27
-2.59865e-27
-2.61782e-27
-2.63312e-27
-2.64509e-27
-2.65428e-27
-2.6612e-27
-2.66633e-27
-2.67005e-27
-2.67272e-27
-2.67459e-27
-2.67589e-27
-2.67677e-27
-2.67736e-27
-2.67775e-27
-2.67801e-27
-2.67818e-27
-2.67829e-27
-2.67835e-27
-2.6784e-27
-2.67843e-27
-2.67845e-27
-2.67847e-27
-2.67848e-27
-2.67849e-27
-2.6785e-27
-2.67852e-27
-2.67853e-27
-2.67854e-27
-2.67855e-27
-2.67857e-27
-2.67858e-27
-2.6786e-27
-2.67861e-27
-2.67863e-27
-2.67865e-27
-2.67867e-27
-2.67869e-27
-2.67871e-27
-2.67873e-27
-2.67875e-27
-2.67878e-27
-2.67881e-27
-2.67883e-27
-2.67886e-27
-2.67889e-27
-2.67893e-27
-2.67896e-27
-2.679e-27
-2.67903e-27
-2.67907e-27
-2.67911e-27
-2.67916e-27
-2.6792e-27
-2.67925e-27
-2.6793e-27
-2.67935e-27
-2.6794e-27
-2.67946e-27
-2.67952e-27
-2.67957e-27
-2.67964e-27
-2.6797e-27
-2.67977e-27
-2.67984e-27
-2.67991e-27
-2.67999e-27
-2.68006e-27
-2.68014e-27
-2.68023e-27
-2.68031e-27
-2.6804e-27
-2.68049e-27
-2.68059e-27
-2.68068e-27
-2.68078e-27
-2.68089e-27
-2.68099e-27
-2.6811e-27
-2.68121e-27
-2.68133e-27
-2.68145e-27
-2.68157e-27
-2.68169e-27
-2.68182e-27
-2.68195e-27
-2.68208e-27
-2.68222e-27
-2.68236e-27
-2.6825e-27
-2.68265e-27
-2.6828e-27
-2.68295e-27
-2.6831e-27
-2.68326e-27
-2.68342e-27
-2.6836e-27
)
;

boundaryField
{
    boundary
    {
        type            empty;
    }
    inlet
    {
        type            calculated;
        value           uniform 0;
    }
    outlet
    {
        type            calculated;
        value           nonuniform 0();
    }
    procBoundary2to3
    {
        type            processor;
        value           uniform 0;
    }
}


// ************************************************************************* //
