/*--------------------------------*- C++ -*----------------------------------*\
  =========                 |
  \\      /  F ield         | OpenFOAM: The Open Source CFD Toolbox
   \\    /   O peration     | Website:  https://openfoam.org
    \\  /    A nd           | Version:  7
     \\/     M anipulation  |
\*---------------------------------------------------------------------------*/
FoamFile
{
    version     2.0;
    format      ascii;
    class       volScalarField;
    location    "0.00054";
    object      Qdot;
}
// * * * * * * * * * * * * * * * * * * * * * * * * * * * * * * * * * * * * * //

dimensions      [1 -1 -3 0 0 0 0];

internalField   nonuniform List<scalar> 
124
(
1.61812e+08
1.59018e+08
1.5629e+08
1.53629e+08
1.51032e+08
1.48497e+08
1.46023e+08
1.43606e+08
1.41245e+08
1.38939e+08
1.36685e+08
1.34483e+08
1.3233e+08
1.30225e+08
1.28167e+08
1.26154e+08
1.24185e+08
1.22259e+08
1.20374e+08
1.18529e+08
1.16723e+08
1.14956e+08
1.13225e+08
1.1153e+08
1.0987e+08
1.08245e+08
1.06652e+08
1.05092e+08
1.03563e+08
1.02065e+08
1.00596e+08
9.91571e+07
9.77461e+07
9.63629e+07
9.50066e+07
9.36768e+07
9.23728e+07
9.10939e+07
8.984e+07
8.86105e+07
8.74052e+07
8.62253e+07
8.50768e+07
8.40062e+07
8.28567e+07
8.18988e+07
8.01105e+07
7.91928e+07
7.82026e+07
7.71972e+07
7.61949e+07
7.52019e+07
7.42213e+07
7.32529e+07
7.22973e+07
7.13544e+07
7.04238e+07
6.95049e+07
6.85973e+07
6.77005e+07
6.6814e+07
6.59372e+07
6.50695e+07
6.42105e+07
6.33594e+07
6.25159e+07
6.1678e+07
6.08475e+07
6.00225e+07
5.92022e+07
5.83862e+07
5.75738e+07
5.67645e+07
5.59576e+07
5.51526e+07
5.43488e+07
5.35458e+07
5.2743e+07
5.19393e+07
5.11353e+07
5.03301e+07
4.95231e+07
4.8714e+07
4.79026e+07
4.70886e+07
4.62718e+07
4.5452e+07
4.46291e+07
4.3803e+07
4.29738e+07
4.21415e+07
4.13062e+07
4.04682e+07
3.96275e+07
3.87845e+07
3.79395e+07
3.70927e+07
3.62447e+07
3.53958e+07
3.45464e+07
3.3697e+07
3.28482e+07
3.20004e+07
3.11542e+07
3.03101e+07
2.94686e+07
2.86304e+07
2.7796e+07
2.69661e+07
2.61413e+07
2.53222e+07
2.45095e+07
2.37038e+07
2.29058e+07
2.2116e+07
2.13353e+07
2.05642e+07
1.98036e+07
1.90531e+07
1.83127e+07
1.75835e+07
1.6869e+07
1.61931e+07
1.56685e+07
)
;

boundaryField
{
    boundary
    {
        type            empty;
    }
    inlet
    {
        type            calculated;
        value           nonuniform 0();
    }
    outlet
    {
        type            calculated;
        value           uniform 0;
    }
    procBoundary0to1
    {
        type            processor;
        value           uniform 0;
    }
}


// ************************************************************************* //
