/*--------------------------------*- C++ -*----------------------------------*\
  =========                 |
  \\      /  F ield         | OpenFOAM: The Open Source CFD Toolbox
   \\    /   O peration     | Website:  https://openfoam.org
    \\  /    A nd           | Version:  7
     \\/     M anipulation  |
\*---------------------------------------------------------------------------*/
FoamFile
{
    version     2.0;
    format      ascii;
    class       volScalarField;
    location    "0.00014";
    object      O;
}
// * * * * * * * * * * * * * * * * * * * * * * * * * * * * * * * * * * * * * //

dimensions      [0 0 0 0 0 0 0];

internalField   nonuniform List<scalar> 
124
(
0.000563492
0.000550422
0.000538144
0.00052662
0.000515819
0.000505711
0.000496265
0.000487454
0.000479249
0.000471621
0.000464542
0.000457986
0.000451925
0.000446333
0.000441183
0.00043645
0.000432109
0.000428135
0.000424506
0.000421199
0.00041819
0.000415461
0.000412989
0.000410756
0.000408743
0.000406933
0.00040531
0.000403857
0.000402559
0.000401404
0.000400377
0.000399467
0.000398663
0.000397953
0.00039733
0.000396783
0.000396304
0.000395887
0.000395524
0.000395209
0.000394936
0.000394701
0.000394499
0.000394326
0.000394178
0.000394051
0.000393944
0.000393853
0.000393777
0.000393713
0.000393659
0.000393614
0.000393577
0.000393546
0.000393521
0.000393501
0.000393484
0.000393471
0.000393461
0.000393453
0.000393446
0.000393442
0.000393439
0.000393436
0.000393435
0.000393435
0.000393435
0.000393435
0.000393436
0.000393437
0.000393439
0.000393441
0.000393442
0.000393444
0.000393446
0.000393448
0.000393451
0.000393453
0.000393455
0.000393457
0.000393459
0.000393461
0.000393464
0.000393466
0.000393468
0.00039347
0.000393472
0.000393474
0.000393476
0.000393478
0.00039348
0.000393482
0.000393484
0.000393485
0.000393487
0.000393489
0.000393491
0.000393492
0.000393494
0.000393495
0.000393497
0.000393498
0.0003935
0.000393501
0.000393502
0.000393503
0.000393505
0.000393506
0.000393507
0.000393508
0.000393509
0.00039351
0.000393511
0.000393511
0.000393512
0.000393513
0.000393513
0.000393514
0.000393515
0.000393515
0.000393516
0.000393516
0.000393516
0.000393516
)
;

boundaryField
{
    boundary
    {
        type            empty;
    }
    inlet
    {
        type            fixedValue;
        value           nonuniform 0();
    }
    outlet
    {
        type            zeroGradient;
    }
    procBoundary0to1
    {
        type            processor;
        value           uniform 0.000577389;
    }
}


// ************************************************************************* //
