/*--------------------------------*- C++ -*----------------------------------*\
  =========                 |
  \\      /  F ield         | OpenFOAM: The Open Source CFD Toolbox
   \\    /   O peration     | Website:  https://openfoam.org
    \\  /    A nd           | Version:  7
     \\/     M anipulation  |
\*---------------------------------------------------------------------------*/
FoamFile
{
    version     2.0;
    format      ascii;
    class       volScalarField;
    location    "0.00014";
    object      p;
}
// * * * * * * * * * * * * * * * * * * * * * * * * * * * * * * * * * * * * * //

dimensions      [1 -1 -2 0 0 0 0];

internalField   nonuniform List<scalar> 
124
(
102976
102976
102975
102975
102975
102975
102975
102975
102975
102975
102974
102974
102974
102974
102974
102974
102974
102974
102974
102973
102973
102973
102973
102973
102973
102973
102973
102973
102972
102972
102972
102972
102972
102972
102972
102972
102971
102971
102971
102971
102971
102971
102971
102971
102971
102970
102970
102970
102970
102970
102970
102970
102970
102969
102969
102969
102969
102969
102969
102969
102969
102968
102968
102968
102968
102968
102968
102968
102968
102967
102967
102967
102967
102967
102967
102967
102967
102966
102966
102966
102966
102966
102966
102966
102965
102965
102965
102965
102965
102965
102965
102965
102964
102964
102964
102964
102964
102964
102964
102963
102963
102963
102963
102963
102963
102963
102962
102962
102962
102962
102962
102962
102962
102962
102961
102961
102961
102961
102961
102961
102961
102960
102960
102960
)
;

boundaryField
{
    boundary
    {
        type            empty;
    }
    inlet
    {
        type            zeroGradient;
    }
    outlet
    {
        type            waveTransmissive;
        gamma           1.4;
        value           uniform 102960;
    }
    procBoundary0to1
    {
        type            processor;
        value           uniform 102976;
    }
}


// ************************************************************************* //
