/*--------------------------------*- C++ -*----------------------------------*\
  =========                 |
  \\      /  F ield         | OpenFOAM: The Open Source CFD Toolbox
   \\    /   O peration     | Website:  https://openfoam.org
    \\  /    A nd           | Version:  7
     \\/     M anipulation  |
\*---------------------------------------------------------------------------*/
FoamFile
{
    version     2.0;
    format      ascii;
    class       volVectorField;
    location    "0.00014";
    object      U;
}
// * * * * * * * * * * * * * * * * * * * * * * * * * * * * * * * * * * * * * //

dimensions      [0 1 -1 0 0 0 0];

internalField   nonuniform List<vector> 
124
(
(14.9882 0 0)
(14.9876 0 0)
(14.9877 0 0)
(14.9887 0 0)
(14.9893 0 0)
(14.9898 0 0)
(14.9904 0 0)
(14.9911 0 0)
(14.9917 0 0)
(14.9924 0 0)
(14.993 0 0)
(14.9937 0 0)
(14.9943 0 0)
(14.9948 0 0)
(14.9953 0 0)
(14.9957 0 0)
(14.9961 0 0)
(14.9965 0 0)
(14.9967 0 0)
(14.9969 0 0)
(14.997 0 0)
(14.997 0 0)
(14.997 0 0)
(14.997 0 0)
(14.9968 0 0)
(14.9966 0 0)
(14.9963 0 0)
(14.996 0 0)
(14.9956 0 0)
(14.9951 0 0)
(14.9946 0 0)
(14.994 0 0)
(14.9934 0 0)
(14.9928 0 0)
(14.9921 0 0)
(14.9914 0 0)
(14.9907 0 0)
(14.9899 0 0)
(14.9891 0 0)
(14.9882 0 0)
(14.9874 0 0)
(14.9865 0 0)
(14.9856 0 0)
(14.9847 0 0)
(14.9837 0 0)
(14.9828 0 0)
(14.9818 0 0)
(14.9808 0 0)
(14.9798 0 0)
(14.9788 0 0)
(14.9778 0 0)
(14.9768 0 0)
(14.9758 0 0)
(14.9748 0 0)
(14.9737 0 0)
(14.9727 0 0)
(14.9717 0 0)
(14.9706 0 0)
(14.9695 0 0)
(14.9685 0 0)
(14.9674 0 0)
(14.9663 0 0)
(14.9653 0 0)
(14.9642 0 0)
(14.9631 0 0)
(14.962 0 0)
(14.9609 0 0)
(14.9598 0 0)
(14.9588 0 0)
(14.9577 0 0)
(14.9566 0 0)
(14.9554 0 0)
(14.9543 0 0)
(14.9532 0 0)
(14.9521 0 0)
(14.951 0 0)
(14.9499 0 0)
(14.9488 0 0)
(14.9476 0 0)
(14.9465 0 0)
(14.9454 0 0)
(14.9442 0 0)
(14.9431 0 0)
(14.942 0 0)
(14.9408 0 0)
(14.9397 0 0)
(14.9385 0 0)
(14.9374 0 0)
(14.9362 0 0)
(14.935 0 0)
(14.9339 0 0)
(14.9327 0 0)
(14.9316 0 0)
(14.9304 0 0)
(14.9292 0 0)
(14.928 0 0)
(14.9269 0 0)
(14.9257 0 0)
(14.9245 0 0)
(14.9233 0 0)
(14.9221 0 0)
(14.9209 0 0)
(14.9197 0 0)
(14.9185 0 0)
(14.9173 0 0)
(14.9161 0 0)
(14.9149 0 0)
(14.9137 0 0)
(14.9125 0 0)
(14.9113 0 0)
(14.9101 0 0)
(14.9089 0 0)
(14.9077 0 0)
(14.9065 0 0)
(14.9052 0 0)
(14.904 0 0)
(14.9028 0 0)
(14.9016 0 0)
(14.9003 0 0)
(14.8991 0 0)
(14.8979 0 0)
(14.8966 0 0)
(14.8953 0 0)
(14.8937 0 0)
)
;

boundaryField
{
    boundary
    {
        type            empty;
    }
    inlet
    {
        type            fixedValue;
        value           nonuniform 0();
    }
    outlet
    {
        type            zeroGradient;
    }
    procBoundary0to1
    {
        type            processor;
        value           uniform (14.9878 0 0);
    }
}


// ************************************************************************* //
