/*--------------------------------*- C++ -*----------------------------------*\
  =========                 |
  \\      /  F ield         | OpenFOAM: The Open Source CFD Toolbox
   \\    /   O peration     | Website:  https://openfoam.org
    \\  /    A nd           | Version:  7
     \\/     M anipulation  |
\*---------------------------------------------------------------------------*/
FoamFile
{
    version     2.0;
    format      ascii;
    class       volScalarField;
    location    "0.00028";
    object      H;
}
// * * * * * * * * * * * * * * * * * * * * * * * * * * * * * * * * * * * * * //

dimensions      [0 0 0 0 0 0 0];

internalField   nonuniform List<scalar> 
500
(
1.48818e-41
2.01952e-41
2.13874e-41
2.1704e-41
2.18481e-41
2.19751e-41
2.21231e-41
2.23059e-41
2.25321e-41
2.28094e-41
2.31446e-41
2.3543e-41
2.40077e-41
2.45394e-41
2.51356e-41
2.57905e-41
2.64948e-41
2.72361e-41
2.79991e-41
2.87669e-41
2.95219e-41
3.02472e-41
3.09277e-41
3.15511e-41
3.21089e-41
3.25964e-41
3.30128e-41
3.33605e-41
3.36444e-41
3.38714e-41
3.4049e-41
3.41853e-41
3.42877e-41
3.43633e-41
3.44181e-41
3.4457e-41
3.44842e-41
3.45029e-41
3.45156e-41
3.4524e-41
3.45295e-41
3.45331e-41
3.45354e-41
3.45369e-41
3.45378e-41
3.45384e-41
3.45388e-41
3.45391e-41
3.45393e-41
3.45395e-41
3.45396e-41
3.45398e-41
3.45399e-41
3.45401e-41
3.45403e-41
3.45404e-41
3.45406e-41
3.45408e-41
3.4541e-41
3.45412e-41
3.45415e-41
3.45417e-41
3.4542e-41
3.45422e-41
3.45425e-41
3.45428e-41
3.45431e-41
3.45435e-41
3.45438e-41
3.45442e-41
3.45446e-41
3.4545e-41
3.45454e-41
3.45459e-41
3.45464e-41
3.45469e-41
3.45474e-41
3.45479e-41
3.45485e-41
3.45491e-41
3.45497e-41
3.45504e-41
3.45511e-41
3.45518e-41
3.45525e-41
3.45533e-41
3.45541e-41
3.45549e-41
3.45558e-41
3.45567e-41
3.45576e-41
3.45586e-41
3.45595e-41
3.45606e-41
3.45616e-41
3.45628e-41
3.45639e-41
3.45651e-41
3.45663e-41
3.45676e-41
3.45689e-41
3.45702e-41
3.45716e-41
3.4573e-41
3.45744e-41
3.45759e-41
3.45775e-41
3.45791e-41
3.45807e-41
3.45824e-41
3.45841e-41
3.45858e-41
3.45876e-41
3.45894e-41
3.45913e-41
3.45932e-41
3.45952e-41
3.45972e-41
3.45992e-41
3.46013e-41
3.46034e-41
3.46056e-41
3.46077e-41
3.46099e-41
3.4612e-41
3.46141e-41
3.46163e-41
3.46186e-41
3.46208e-41
3.46231e-41
3.46253e-41
3.46275e-41
3.46296e-41
3.46318e-41
3.46339e-41
3.46361e-41
3.46383e-41
3.46406e-41
3.46429e-41
3.46454e-41
3.46479e-41
3.46506e-41
3.46533e-41
3.46561e-41
3.4659e-41
3.4662e-41
3.46649e-41
3.46679e-41
3.46708e-41
3.46736e-41
3.46764e-41
3.46792e-41
3.46818e-41
3.46844e-41
3.46868e-41
3.46892e-41
3.46914e-41
3.46936e-41
3.46956e-41
3.46976e-41
3.46994e-41
3.47012e-41
3.47028e-41
3.47042e-41
3.47056e-41
3.47068e-41
3.47079e-41
3.47088e-41
3.47095e-41
3.47101e-41
3.47105e-41
3.47107e-41
3.47107e-41
3.47105e-41
3.471e-41
3.47093e-41
3.47084e-41
3.47072e-41
3.47058e-41
3.47041e-41
3.47021e-41
3.46997e-41
3.46971e-41
3.46941e-41
3.46908e-41
3.46871e-41
3.46831e-41
3.46787e-41
3.46739e-41
3.46687e-41
3.46631e-41
3.46571e-41
3.46506e-41
3.46436e-41
3.46362e-41
3.46284e-41
3.462e-41
3.46111e-41
3.46017e-41
3.45918e-41
3.45814e-41
3.45704e-41
3.45589e-41
3.45468e-41
3.45342e-41
3.45209e-41
3.45071e-41
3.44927e-41
3.44777e-41
3.44621e-41
3.44458e-41
3.4429e-41
3.44116e-41
3.43935e-41
3.43748e-41
3.43555e-41
3.43356e-41
3.43151e-41
3.4294e-41
3.42723e-41
3.42502e-41
3.42283e-41
3.42105e-41
3.4217e-41
3.43539e-41
3.51734e-41
3.95152e-41
6.181e-41
1.74537e-40
7.3738e-40
3.51379e-39
1.70443e-38
8.21818e-38
3.91923e-37
1.84665e-36
8.59434e-36
3.95053e-35
1.79356e-34
8.04311e-34
3.56315e-33
1.5597e-32
6.74807e-32
2.88699e-31
1.22208e-30
5.12259e-30
2.12846e-29
8.77795e-29
3.59893e-28
1.46976e-27
5.99219e-27
2.44493e-26
1.0034e-25
4.13678e-25
1.72008e-24
7.22736e-24
3.07236e-23
1.32191e-22
5.75493e-22
2.53292e-21
1.12581e-20
5.04754e-20
2.28074e-19
1.03816e-18
4.76149e-18
2.20293e-17
1.03047e-16
4.89197e-16
2.36987e-15
1.17993e-14
6.08754e-14
3.27973e-13
1.97963e-12
1.455e-11
1.36797e-10
1.29443e-09
1.21095e-08
1.12367e-07
9.86e-07
7.48204e-06
4.25941e-05
0.000155131
0.00036607
0.000661109
0.00101358
0.00136844
0.00165525
0.00183528
0.00191684
0.0019212
0.00188112
0.00181763
0.00174407
0.00166819
0.00159418
0.00152405
0.00145863
0.00139808
0.00134221
0.00129071
0.0012432
0.00119927
0.00115858
0.00112079
0.00108561
0.00105277
0.00102204
0.000993224
0.000966143
0.000940642
0.000916582
0.000893843
0.000872317
0.000852506
0.000834095
0.000816467
0.000799573
0.000783368
0.00076781
0.000752861
0.000738485
0.00072465
0.000711324
0.000698481
0.000686094
0.00067414
0.000662597
0.000651443
0.00064066
0.00063023
0.000620136
0.000610363
0.000600895
0.00059172
0.000582824
0.000574196
0.000565823
0.000557696
0.000549803
0.000542136
0.000534686
0.000527443
0.000520399
0.000513547
0.000506878
0.000500387
0.000494066
0.000487907
0.000481906
0.000476055
0.000470349
0.000464782
0.000459348
0.000454042
0.000448858
0.000443791
0.000438835
0.000433986
0.000429239
0.000424588
0.000420028
0.000415555
0.000411164
0.00040685
0.000402608
0.000398435
0.000394324
0.000390271
0.000386273
0.000382325
0.000378421
0.000374559
0.000370732
0.000366936
0.000363166
0.000359414
0.000355671
0.000351923
0.000348174
0.000344423
0.000340667
0.000336905
0.000333133
0.000329349
0.000325551
0.000321734
0.000317899
0.000314041
0.00031016
0.000306254
0.000302322
0.000298363
0.000294376
0.000290361
0.000286319
0.000282248
0.000278151
0.000274027
0.000269878
0.000265706
0.000261512
0.000257298
0.000253067
0.000248821
0.000244562
0.000240294
0.00023602
0.000231743
0.000227466
0.000223194
0.000218929
0.000214676
0.000210439
0.000206221
0.000202026
0.00019786
0.000193725
0.000189626
0.000185567
0.000181552
0.000177585
0.000173671
0.000169812
0.000166012
0.000162276
0.000158607
0.000155007
0.000151481
0.000148031
0.000144659
0.00014137
0.000138164
0.000135044
0.000132012
0.00012907
0.000126219
0.00012346
0.000120794
0.000118221
0.000115743
0.000113358
0.000111068
0.000108872
0.000106768
0.000104757
0.000102837
0.000101007
9.92659e-05
9.76115e-05
9.60422e-05
9.45561e-05
9.31512e-05
9.18251e-05
9.05757e-05
8.94004e-05
8.82967e-05
8.72621e-05
8.62939e-05
8.53895e-05
8.45461e-05
8.37611e-05
8.30317e-05
8.23552e-05
8.1729e-05
8.11503e-05
8.06166e-05
8.01253e-05
7.96739e-05
7.926e-05
7.88811e-05
7.85351e-05
7.82197e-05
7.79326e-05
7.7672e-05
7.74358e-05
7.72223e-05
7.70296e-05
7.68561e-05
7.67002e-05
7.65605e-05
7.64354e-05
7.63238e-05
7.62243e-05
7.6136e-05
7.60576e-05
7.59883e-05
7.59272e-05
7.58733e-05
7.58261e-05
7.57847e-05
7.57485e-05
7.5717e-05
7.56897e-05
7.56662e-05
7.56459e-05
7.56286e-05
7.5614e-05
7.56021e-05
7.55927e-05
7.5586e-05
7.55824e-05
)
;

boundaryField
{
    boundary
    {
        type            empty;
    }
    inlet
    {
        type            fixedValue;
        value           uniform 0;
    }
    outlet
    {
        type            zeroGradient;
    }
}


// ************************************************************************* //
