/*--------------------------------*- C++ -*----------------------------------*\
  =========                 |
  \\      /  F ield         | OpenFOAM: The Open Source CFD Toolbox
   \\    /   O peration     | Website:  https://openfoam.org
    \\  /    A nd           | Version:  7
     \\/     M anipulation  |
\*---------------------------------------------------------------------------*/
FoamFile
{
    version     2.0;
    format      ascii;
    class       volScalarField;
    location    "0.00028";
    object      H2;
}
// * * * * * * * * * * * * * * * * * * * * * * * * * * * * * * * * * * * * * //

dimensions      [0 0 0 0 0 0 0];

internalField   nonuniform List<scalar> 
500
(
0.0285116
0.0285116
0.0285116
0.0285116
0.0285116
0.0285116
0.0285116
0.0285116
0.0285116
0.0285116
0.0285116
0.0285116
0.0285116
0.0285116
0.0285116
0.0285116
0.0285116
0.0285116
0.0285116
0.0285116
0.0285116
0.0285116
0.0285116
0.0285116
0.0285116
0.0285116
0.0285116
0.0285116
0.0285116
0.0285116
0.0285116
0.0285116
0.0285116
0.0285116
0.0285116
0.0285116
0.0285116
0.0285116
0.0285116
0.0285116
0.0285116
0.0285116
0.0285116
0.0285116
0.0285116
0.0285116
0.0285116
0.0285116
0.0285116
0.0285116
0.0285116
0.0285116
0.0285116
0.0285116
0.0285116
0.0285116
0.0285116
0.0285116
0.0285116
0.0285116
0.0285116
0.0285116
0.0285116
0.0285116
0.0285116
0.0285116
0.0285116
0.0285116
0.0285116
0.0285116
0.0285116
0.0285116
0.0285116
0.0285116
0.0285116
0.0285116
0.0285116
0.0285116
0.0285116
0.0285116
0.0285116
0.0285116
0.0285116
0.0285116
0.0285116
0.0285116
0.0285116
0.0285116
0.0285116
0.0285116
0.0285116
0.0285116
0.0285116
0.0285116
0.0285116
0.0285116
0.0285116
0.0285116
0.0285116
0.0285116
0.0285116
0.0285116
0.0285116
0.0285116
0.0285116
0.0285116
0.0285116
0.0285116
0.0285116
0.0285116
0.0285116
0.0285116
0.0285116
0.0285116
0.0285116
0.0285116
0.0285116
0.0285116
0.0285116
0.0285116
0.0285116
0.0285116
0.0285116
0.0285116
0.0285116
0.0285116
0.0285116
0.0285116
0.0285116
0.0285116
0.0285116
0.0285116
0.0285116
0.0285116
0.0285116
0.0285116
0.0285116
0.0285116
0.0285116
0.0285116
0.0285116
0.0285116
0.0285116
0.0285116
0.0285116
0.0285116
0.0285116
0.0285116
0.0285116
0.0285116
0.0285116
0.0285116
0.0285116
0.0285116
0.0285116
0.0285116
0.0285116
0.0285116
0.0285116
0.0285116
0.0285116
0.0285116
0.0285116
0.0285116
0.0285116
0.0285116
0.0285116
0.0285116
0.0285116
0.0285116
0.0285116
0.0285116
0.0285116
0.0285116
0.0285116
0.0285116
0.0285116
0.0285116
0.0285116
0.0285116
0.0285116
0.0285116
0.0285116
0.0285116
0.0285116
0.0285116
0.0285116
0.0285116
0.0285116
0.0285116
0.0285116
0.0285116
0.0285116
0.0285116
0.0285116
0.0285116
0.0285116
0.0285116
0.0285116
0.0285116
0.0285116
0.0285116
0.0285116
0.0285116
0.0285116
0.0285116
0.0285116
0.0285116
0.0285116
0.0285116
0.0285116
0.0285116
0.0285116
0.0285116
0.0285116
0.0285116
0.0285116
0.0285116
0.0285116
0.0285116
0.0285116
0.0285116
0.0285116
0.0285116
0.0285116
0.0285116
0.0285116
0.0285116
0.0285116
0.0285116
0.0285116
0.0285116
0.0285116
0.0285116
0.0285116
0.0285116
0.0285116
0.0285116
0.0285116
0.0285116
0.0285116
0.0285116
0.0285116
0.0285116
0.0285116
0.0285116
0.0285116
0.0285116
0.0285116
0.0285116
0.0285116
0.0285116
0.0285116
0.0285116
0.0285116
0.0285116
0.0285116
0.0285116
0.0285116
0.0285116
0.0285116
0.0285116
0.0285116
0.0285116
0.0285115
0.0285114
0.0285113
0.028511
0.0285103
0.0285088
0.0285056
0.028499
0.0284851
0.028456
0.0283953
0.0282692
0.0280116
0.0275038
0.0265759
0.0250695
0.0229673
0.0204367
0.0175907
0.0145379
0.0115608
0.00902925
0.00714614
0.00577348
0.0049588
0.00445281
0.00414149
0.00394866
0.00382639
0.00374557
0.00368884
0.00364599
0.0036111
0.00358073
0.00355295
0.00352665
0.00350124
0.0034764
0.00345197
0.00342787
0.00340409
0.00338061
0.00335744
0.0033346
0.00331209
0.00328994
0.00326814
0.00324671
0.00322628
0.00320668
0.00318736
0.00316832
0.00314957
0.00313109
0.00311291
0.00309501
0.0030774
0.00306008
0.00304305
0.00302632
0.00300989
0.00299376
0.00297794
0.00296242
0.0029472
0.0029323
0.00291771
0.00290343
0.00288948
0.00287584
0.00286252
0.00284954
0.00283688
0.00282455
0.00281255
0.0028009
0.00278958
0.00277861
0.00276799
0.00275771
0.00274779
0.00273822
0.00272901
0.00272017
0.00271169
0.00270357
0.00269582
0.00268845
0.00268145
0.00267482
0.00266856
0.00266269
0.00265718
0.00265205
0.00264729
0.0026429
0.00263887
0.00263521
0.0026319
0.00262894
0.00262631
0.00262402
0.00262205
0.0026204
0.00261904
0.00261798
0.0026172
0.0026167
0.00261647
0.00261652
0.00261686
0.00261752
0.00261722
0.00261706
0.00261691
0.00261671
0.00261641
0.00261599
0.00261539
0.00261456
0.00261346
0.00261205
0.00261028
0.0026081
0.00260546
0.00260233
0.00259865
0.00259439
0.00258951
0.00258395
0.0025777
0.00257071
0.00256295
0.00255439
0.00254501
0.00253479
0.00252371
0.00251174
0.0024989
0.00248515
0.00247051
0.00245498
0.00243855
0.00242125
0.00240308
0.00238407
0.00236424
0.0023436
0.0023222
0.00230007
0.00227724
0.00225376
0.00222967
0.00220501
0.00217984
0.00215421
0.00212816
0.00210177
0.00207507
0.00204814
0.00202103
0.00199381
0.00196652
0.00193923
0.00191201
0.0018849
0.00185797
0.00183128
0.00180487
0.00177881
0.00175313
0.0017279
0.00170314
0.00167892
0.00165526
0.00163219
0.00160977
0.001588
0.00156691
0.00154654
0.00152689
0.00150798
0.00148982
0.00147241
0.00145576
0.00143988
0.00142475
0.00141037
0.00139673
0.00138383
0.00137164
0.00136016
0.00134936
0.00133922
0.00132973
0.00132086
0.00131258
0.00130489
0.00129774
0.00129111
0.00128499
0.00127934
0.00127413
0.00126935
0.00126497
0.00126096
0.0012573
0.00125396
0.00125093
0.00124818
0.00124569
0.00124345
0.00124142
0.0012396
0.00123797
0.00123651
0.00123521
0.00123404
0.00123301
0.0012321
0.00123129
0.00123057
0.00122994
0.00122939
0.00122891
0.00122848
0.00122812
0.0012278
0.00122752
0.00122729
0.00122708
0.00122691
0.00122677
0.00122666
0.00122658
0.00122654
)
;

boundaryField
{
    boundary
    {
        type            empty;
    }
    inlet
    {
        type            fixedValue;
        value           uniform 0.0285116;
    }
    outlet
    {
        type            zeroGradient;
    }
}


// ************************************************************************* //
