/*--------------------------------*- C++ -*----------------------------------*\
  =========                 |
  \\      /  F ield         | OpenFOAM: The Open Source CFD Toolbox
   \\    /   O peration     | Website:  https://openfoam.org
    \\  /    A nd           | Version:  7
     \\/     M anipulation  |
\*---------------------------------------------------------------------------*/
FoamFile
{
    version     2.0;
    format      ascii;
    class       volScalarField;
    location    "0.00028";
    object      H2O;
}
// * * * * * * * * * * * * * * * * * * * * * * * * * * * * * * * * * * * * * //

dimensions      [0 0 0 0 0 0 0];

internalField   nonuniform List<scalar> 
500
(
7.93272e-48
2.29888e-47
4.15058e-47
6.24856e-47
8.52991e-47
1.09579e-46
1.35143e-46
1.61934e-46
1.89976e-46
2.19329e-46
2.50052e-46
2.82168e-46
3.15635e-46
3.50315e-46
3.85965e-46
4.22227e-46
4.58644e-46
4.94677e-46
5.29743e-46
5.6326e-46
5.94688e-46
6.23573e-46
6.49579e-46
6.72502e-46
6.92282e-46
7.08988e-46
7.22798e-46
7.33973e-46
7.42828e-46
7.49699e-46
7.54923e-46
7.58816e-46
7.61659e-46
7.63696e-46
7.65128e-46
7.66116e-46
7.66785e-46
7.67231e-46
7.67522e-46
7.67709e-46
7.67827e-46
7.679e-46
7.67944e-46
7.67971e-46
7.67986e-46
7.67995e-46
7.68e-46
7.68002e-46
7.68004e-46
7.68004e-46
7.68005e-46
7.68005e-46
7.68005e-46
7.68006e-46
7.68006e-46
7.68007e-46
7.68008e-46
7.68009e-46
7.6801e-46
7.68012e-46
7.68014e-46
7.68016e-46
7.68019e-46
7.68022e-46
7.68025e-46
7.68029e-46
7.68033e-46
7.68037e-46
7.68042e-46
7.68048e-46
7.68054e-46
7.6806e-46
7.68067e-46
7.68074e-46
7.68082e-46
7.6809e-46
7.681e-46
7.68109e-46
7.6812e-46
7.6813e-46
7.68142e-46
7.68154e-46
7.68167e-46
7.68181e-46
7.68196e-46
7.68211e-46
7.68227e-46
7.68244e-46
7.68261e-46
7.6828e-46
7.68299e-46
7.68319e-46
7.68341e-46
7.68363e-46
7.68386e-46
7.68409e-46
7.68434e-46
7.6846e-46
7.68487e-46
7.68515e-46
7.68543e-46
7.68573e-46
7.68604e-46
7.68636e-46
7.68669e-46
7.68703e-46
7.68738e-46
7.68774e-46
7.68811e-46
7.68849e-46
7.68889e-46
7.68929e-46
7.6897e-46
7.69013e-46
7.69056e-46
7.69101e-46
7.69147e-46
7.69193e-46
7.69241e-46
7.6929e-46
7.6934e-46
7.69393e-46
7.69459e-46
7.69571e-46
7.69868e-46
7.70527e-46
7.70495e-46
7.70425e-46
7.70308e-46
7.70136e-46
7.69914e-46
7.69647e-46
7.6935e-46
7.69037e-46
7.68723e-46
7.68428e-46
7.68172e-46
7.67974e-46
7.6785e-46
7.67811e-46
7.67861e-46
7.67995e-46
7.68203e-46
7.68467e-46
7.68771e-46
7.69093e-46
7.69419e-46
7.69732e-46
7.70024e-46
7.70288e-46
7.7052e-46
7.70721e-46
7.70893e-46
7.71037e-46
7.71159e-46
7.71261e-46
7.71347e-46
7.7142e-46
7.71484e-46
7.71538e-46
7.71587e-46
7.71629e-46
7.71666e-46
7.71699e-46
7.71728e-46
7.71752e-46
7.71772e-46
7.71787e-46
7.71798e-46
7.71804e-46
7.71805e-46
7.718e-46
7.7179e-46
7.71775e-46
7.71753e-46
7.71724e-46
7.71689e-46
7.71647e-46
7.71598e-46
7.7154e-46
7.71475e-46
7.71401e-46
7.71319e-46
7.71228e-46
7.71127e-46
7.71016e-46
7.70896e-46
7.70765e-46
7.70623e-46
7.7047e-46
7.70306e-46
7.7013e-46
7.69941e-46
7.69741e-46
7.69527e-46
7.693e-46
7.6906e-46
7.68806e-46
7.68537e-46
7.68254e-46
7.67957e-46
7.67645e-46
7.67317e-46
7.66973e-46
7.66614e-46
7.66239e-46
7.65848e-46
7.6544e-46
7.65016e-46
7.64575e-46
7.64118e-46
7.63649e-46
7.63193e-46
7.62909e-46
7.63774e-46
7.7178e-46
8.23356e-46
1.13829e-45
3.03313e-45
1.43438e-44
8.14475e-44
4.77592e-43
2.80755e-42
1.64803e-41
9.66667e-41
5.67505e-40
3.34074e-39
1.97552e-38
1.17535e-37
7.04373e-37
4.25423e-36
2.58915e-35
1.58649e-34
9.7727e-34
6.04011e-33
3.73733e-32
2.30971e-31
1.4225e-30
8.71215e-30
5.29608e-29
3.19021e-28
1.90154e-27
1.12021e-26
6.51585e-26
3.73917e-25
2.11555e-24
1.17945e-23
6.47656e-23
3.50144e-22
1.8631e-21
9.75406e-21
4.99062e-20
2.5252e-19
1.25769e-18
6.15979e-18
2.96633e-17
1.40467e-16
6.54213e-16
2.99774e-15
1.35206e-14
6.00588e-14
2.62936e-13
1.13549e-12
4.84166e-12
2.04057e-11
8.51037e-11
3.51639e-10
1.44116e-09
5.86543e-09
2.37319e-08
9.5552e-08
3.83154e-07
1.53101e-06
6.09677e-06
2.41735e-05
9.50984e-05
0.000367321
0.00135409
0.00446791
0.0119873
0.0248405
0.0415645
0.0618166
0.0858996
0.111908
0.135806
0.154415
0.170581
0.1801
0.186492
0.190831
0.193862
0.196071
0.197762
0.199121
0.200264
0.201261
0.202154
0.202972
0.203731
0.204443
0.205115
0.205754
0.206363
0.206945
0.207502
0.208036
0.20855
0.209045
0.209521
0.20998
0.210422
0.210835
0.211229
0.211613
0.211986
0.21235
0.212706
0.213053
0.213392
0.213724
0.214048
0.214367
0.214678
0.214985
0.215285
0.215581
0.215872
0.216158
0.216441
0.216719
0.216994
0.217266
0.217535
0.217802
0.218066
0.218328
0.218589
0.218848
0.219106
0.219363
0.219619
0.219874
0.220129
0.220384
0.220639
0.220895
0.221151
0.221407
0.221665
0.221923
0.222183
0.222443
0.222705
0.222968
0.223233
0.223499
0.223767
0.224036
0.224306
0.224578
0.224851
0.225126
0.225401
0.225677
0.225954
0.226231
0.226509
0.226787
0.227064
0.227342
0.227619
0.227896
0.228174
0.228451
0.228731
0.228998
0.229263
0.229525
0.229783
0.230039
0.23029
0.230538
0.230783
0.231023
0.231259
0.231491
0.231719
0.231943
0.232162
0.232378
0.23259
0.232799
0.233003
0.233205
0.233403
0.233598
0.23379
0.23398
0.234167
0.234351
0.234534
0.234714
0.234892
0.235069
0.235244
0.235416
0.235588
0.235757
0.235925
0.236091
0.236254
0.236416
0.236576
0.236734
0.236889
0.237042
0.237192
0.237339
0.237483
0.237623
0.23776
0.237894
0.238023
0.238149
0.238271
0.238388
0.238501
0.238609
0.238713
0.238812
0.238906
0.238996
0.239081
0.239161
0.239237
0.239308
0.239374
0.239437
0.239495
0.239549
0.239599
0.239646
0.239689
0.239728
0.239764
0.239797
0.239828
0.239856
0.239881
0.239904
0.239924
0.239943
0.23996
0.239976
0.23999
0.240002
0.240013
0.240023
0.240032
0.240041
0.240048
0.240055
0.24006
0.240066
0.240071
0.240075
0.240079
0.240082
0.240085
0.240088
0.24009
0.240093
0.240095
0.240096
0.240098
0.240099
0.2401
0.240102
0.240103
0.240103
0.240104
0.240105
0.240105
0.240106
0.240106
0.240107
0.240107
0.240107
0.240107
0.240108
0.240108
0.240108
0.240108
0.240108
0.240108
0.240108
0.240108
0.240108
0.240108
)
;

boundaryField
{
    boundary
    {
        type            empty;
    }
    inlet
    {
        type            fixedValue;
        value           uniform 0;
    }
    outlet
    {
        type            zeroGradient;
    }
}


// ************************************************************************* //
