/*--------------------------------*- C++ -*----------------------------------*\
  =========                 |
  \\      /  F ield         | OpenFOAM: The Open Source CFD Toolbox
   \\    /   O peration     | Website:  https://openfoam.org
    \\  /    A nd           | Version:  7
     \\/     M anipulation  |
\*---------------------------------------------------------------------------*/
FoamFile
{
    version     2.0;
    format      ascii;
    class       volScalarField;
    location    "0.00028";
    object      H2O2;
}
// * * * * * * * * * * * * * * * * * * * * * * * * * * * * * * * * * * * * * //

dimensions      [0 0 0 0 0 0 0];

internalField   nonuniform List<scalar> 
500
(
2.0083e-52
6.473e-52
1.29195e-51
2.13925e-51
3.19524e-51
4.46779e-51
5.96659e-51
7.70258e-51
9.68694e-51
1.19293e-50
1.44356e-50
1.72053e-50
2.02287e-50
2.34845e-50
2.69384e-50
3.05426e-50
3.42368e-50
3.79515e-50
4.16117e-50
4.51426e-50
4.8475e-50
5.15503e-50
5.43242e-50
5.67694e-50
5.88759e-50
6.06492e-50
6.21086e-50
6.32828e-50
6.42069e-50
6.49185e-50
6.54549e-50
6.58509e-50
6.61373e-50
6.63403e-50
6.64815e-50
6.65778e-50
6.66424e-50
6.66848e-50
6.67122e-50
6.67296e-50
6.67404e-50
6.67471e-50
6.67511e-50
6.67535e-50
6.67549e-50
6.67557e-50
6.67561e-50
6.67564e-50
6.67566e-50
6.67567e-50
6.67568e-50
6.67568e-50
6.67569e-50
6.6757e-50
6.67572e-50
6.67573e-50
6.67575e-50
6.67576e-50
6.67578e-50
6.67581e-50
6.67584e-50
6.67586e-50
6.6759e-50
6.67593e-50
6.67597e-50
6.67602e-50
6.67606e-50
6.67612e-50
6.67617e-50
6.67623e-50
6.6763e-50
6.67637e-50
6.67644e-50
6.67652e-50
6.67661e-50
6.6767e-50
6.67679e-50
6.67689e-50
6.677e-50
6.67712e-50
6.67724e-50
6.67737e-50
6.6775e-50
6.67764e-50
6.67779e-50
6.67795e-50
6.67811e-50
6.67828e-50
6.67846e-50
6.67865e-50
6.67884e-50
6.67905e-50
6.67926e-50
6.67948e-50
6.67971e-50
6.67995e-50
6.6802e-50
6.68045e-50
6.68072e-50
6.681e-50
6.68128e-50
6.68158e-50
6.68188e-50
6.6822e-50
6.68252e-50
6.68286e-50
6.6832e-50
6.68356e-50
6.68393e-50
6.6843e-50
6.68469e-50
6.68509e-50
6.68549e-50
6.68591e-50
6.68634e-50
6.68677e-50
6.68722e-50
6.68768e-50
6.68814e-50
6.68861e-50
6.68908e-50
6.68953e-50
6.68999e-50
6.69074e-50
6.69347e-50
6.70098e-50
6.69693e-50
6.69182e-50
6.68605e-50
6.68e-50
6.67394e-50
6.6681e-50
6.66267e-50
6.65786e-50
6.65381e-50
6.65067e-50
6.64858e-50
6.64763e-50
6.64789e-50
6.64937e-50
6.65201e-50
6.65566e-50
6.66014e-50
6.66519e-50
6.67055e-50
6.67596e-50
6.68119e-50
6.68607e-50
6.69049e-50
6.69437e-50
6.6977e-50
6.70049e-50
6.70281e-50
6.7047e-50
6.70624e-50
6.70748e-50
6.7085e-50
6.70934e-50
6.71004e-50
6.71064e-50
6.71115e-50
6.71159e-50
6.71199e-50
6.71233e-50
6.71263e-50
6.71289e-50
6.71311e-50
6.71328e-50
6.71342e-50
6.7135e-50
6.71354e-50
6.71353e-50
6.71347e-50
6.71335e-50
6.71318e-50
6.71294e-50
6.71264e-50
6.71227e-50
6.71184e-50
6.71133e-50
6.71074e-50
6.71008e-50
6.70933e-50
6.7085e-50
6.70758e-50
6.70657e-50
6.70546e-50
6.70426e-50
6.70295e-50
6.70154e-50
6.70002e-50
6.69838e-50
6.69663e-50
6.69477e-50
6.69278e-50
6.69067e-50
6.68843e-50
6.68605e-50
6.68355e-50
6.68091e-50
6.67812e-50
6.6752e-50
6.67213e-50
6.66891e-50
6.66554e-50
6.66202e-50
6.65835e-50
6.65452e-50
6.65054e-50
6.64639e-50
6.64209e-50
6.63762e-50
6.633e-50
6.62823e-50
6.62348e-50
6.62032e-50
6.63305e-50
6.79238e-50
8.27752e-50
2.16111e-49
1.39636e-48
1.1722e-47
1.01017e-46
8.64224e-46
7.31017e-45
6.10974e-44
5.04436e-43
4.11332e-42
3.31203e-41
2.63284e-40
2.06583e-39
1.59959e-38
1.22201e-37
9.20855e-37
6.84318e-36
5.01379e-35
3.62081e-34
2.57668e-33
1.80639e-32
1.24722e-31
8.47865e-31
5.67348e-30
3.73587e-29
2.42009e-28
1.54185e-27
9.65766e-27
5.945e-26
3.59488e-25
2.13436e-24
1.24373e-23
7.11134e-23
3.9624e-22
2.1791e-21
1.17701e-20
6.23899e-20
3.24545e-19
1.6571e-18
8.30764e-18
4.09135e-17
1.98057e-16
9.43175e-16
4.42277e-15
2.04448e-14
9.32833e-14
4.20677e-13
1.87773e-12
8.30754e-12
3.64811e-11
1.59213e-10
6.91362e-10
2.99003e-09
1.28886e-08
5.53894e-08
2.37157e-07
1.00786e-06
4.19131e-06
1.62552e-05
5.11731e-05
0.000100739
0.000125125
0.000102082
5.42379e-05
2.25199e-05
9.28219e-06
5.15564e-06
4.42153e-06
4.78775e-06
5.50389e-06
6.05933e-06
6.4517e-06
6.67797e-06
6.76767e-06
6.75601e-06
6.67359e-06
6.54408e-06
6.38476e-06
6.20782e-06
6.02177e-06
5.83237e-06
5.64354e-06
5.45789e-06
5.27712e-06
5.10228e-06
4.93399e-06
4.77256e-06
4.6181e-06
4.47058e-06
4.32985e-06
4.19573e-06
4.068e-06
3.94644e-06
3.83086e-06
3.72439e-06
3.62432e-06
3.52836e-06
3.4363e-06
3.34796e-06
3.26316e-06
3.18171e-06
3.10346e-06
3.02825e-06
2.95592e-06
2.88635e-06
2.81938e-06
2.7549e-06
2.69278e-06
2.63291e-06
2.57516e-06
2.51945e-06
2.46567e-06
2.41373e-06
2.36355e-06
2.31503e-06
2.2681e-06
2.22268e-06
2.17871e-06
2.13611e-06
2.09482e-06
2.05479e-06
2.01595e-06
1.97826e-06
1.94165e-06
1.90607e-06
1.87149e-06
1.83784e-06
1.8051e-06
1.77322e-06
1.74214e-06
1.71185e-06
1.68229e-06
1.65343e-06
1.62523e-06
1.59766e-06
1.57068e-06
1.54426e-06
1.51836e-06
1.49295e-06
1.46799e-06
1.44346e-06
1.41933e-06
1.39555e-06
1.37211e-06
1.34897e-06
1.3261e-06
1.30348e-06
1.28107e-06
1.25885e-06
1.23679e-06
1.21487e-06
1.19306e-06
1.17133e-06
1.14967e-06
1.12803e-06
1.10639e-06
1.0847e-06
1.0629e-06
1.04151e-06
1.02007e-06
9.98646e-07
9.77242e-07
9.5586e-07
9.34508e-07
9.13196e-07
8.91938e-07
8.70751e-07
8.49653e-07
8.28667e-07
8.07814e-07
7.87121e-07
7.66613e-07
7.46317e-07
7.26261e-07
7.06473e-07
6.8698e-07
6.67808e-07
6.48985e-07
6.30535e-07
6.1248e-07
5.94842e-07
5.7764e-07
5.60892e-07
5.44611e-07
5.28809e-07
5.13498e-07
4.98682e-07
4.84368e-07
4.70556e-07
4.57248e-07
4.44441e-07
4.32131e-07
4.20311e-07
4.08974e-07
3.98111e-07
3.87711e-07
3.77762e-07
3.68251e-07
3.59166e-07
3.50493e-07
3.42216e-07
3.34322e-07
3.26795e-07
3.19622e-07
3.12786e-07
3.06273e-07
3.0007e-07
2.94163e-07
2.88538e-07
2.83182e-07
2.78081e-07
2.73225e-07
2.68601e-07
2.64198e-07
2.60007e-07
2.56017e-07
2.52218e-07
2.48602e-07
2.4516e-07
2.41885e-07
2.3877e-07
2.35807e-07
2.32989e-07
2.30311e-07
2.27767e-07
2.25352e-07
2.23061e-07
2.20887e-07
2.18829e-07
2.16879e-07
2.15036e-07
2.13294e-07
2.1165e-07
2.101e-07
2.0864e-07
2.07268e-07
2.05979e-07
2.0477e-07
2.03638e-07
2.02579e-07
2.01591e-07
2.0067e-07
1.99813e-07
1.99017e-07
1.98279e-07
1.97596e-07
1.96965e-07
1.96382e-07
1.95846e-07
1.95354e-07
1.94902e-07
1.94489e-07
1.94111e-07
1.93767e-07
1.93454e-07
1.9317e-07
1.92912e-07
1.92679e-07
1.92468e-07
1.92279e-07
1.92108e-07
1.91955e-07
1.91818e-07
1.91696e-07
1.91587e-07
1.9149e-07
1.91404e-07
1.91327e-07
1.91259e-07
1.912e-07
1.91147e-07
1.91101e-07
1.9106e-07
1.91024e-07
1.90993e-07
1.90966e-07
1.90942e-07
1.90922e-07
1.90905e-07
1.90891e-07
1.9088e-07
1.90873e-07
)
;

boundaryField
{
    boundary
    {
        type            empty;
    }
    inlet
    {
        type            fixedValue;
        value           uniform 0;
    }
    outlet
    {
        type            zeroGradient;
    }
}


// ************************************************************************* //
