/*--------------------------------*- C++ -*----------------------------------*\
  =========                 |
  \\      /  F ield         | OpenFOAM: The Open Source CFD Toolbox
   \\    /   O peration     | Website:  https://openfoam.org
    \\  /    A nd           | Version:  7
     \\/     M anipulation  |
\*---------------------------------------------------------------------------*/
FoamFile
{
    version     2.0;
    format      ascii;
    class       volScalarField;
    location    "0.00028";
    object      HO2;
}
// * * * * * * * * * * * * * * * * * * * * * * * * * * * * * * * * * * * * * //

dimensions      [0 0 0 0 0 0 0];

internalField   nonuniform List<scalar> 
500
(
5.60694e-38
1.27858e-37
2.00291e-37
2.73329e-37
3.47133e-37
4.21955e-37
4.98107e-37
5.75942e-37
6.55823e-37
7.3807e-37
8.22908e-37
9.10406e-37
1.00042e-36
1.09256e-36
1.18615e-36
1.28024e-36
1.37367e-36
1.46508e-36
1.55307e-36
1.63626e-36
1.71346e-36
1.78366e-36
1.84621e-36
1.90079e-36
1.94741e-36
1.98639e-36
2.0183e-36
2.04387e-36
2.06393e-36
2.07935e-36
2.09096e-36
2.09954e-36
2.10574e-36
2.11015e-36
2.11322e-36
2.11532e-36
2.11673e-36
2.11766e-36
2.11826e-36
2.11865e-36
2.11889e-36
2.11904e-36
2.11913e-36
2.11919e-36
2.11922e-36
2.11924e-36
2.11925e-36
2.11925e-36
2.11926e-36
2.11926e-36
2.11926e-36
2.11926e-36
2.11927e-36
2.11927e-36
2.11927e-36
2.11927e-36
2.11928e-36
2.11928e-36
2.11929e-36
2.11929e-36
2.1193e-36
2.11931e-36
2.11931e-36
2.11932e-36
2.11933e-36
2.11934e-36
2.11935e-36
2.11936e-36
2.11937e-36
2.11939e-36
2.1194e-36
2.11942e-36
2.11943e-36
2.11945e-36
2.11947e-36
2.11949e-36
2.11951e-36
2.11953e-36
2.11956e-36
2.11958e-36
2.11961e-36
2.11964e-36
2.11967e-36
2.1197e-36
2.11973e-36
2.11977e-36
2.1198e-36
2.11984e-36
2.11988e-36
2.11992e-36
2.11997e-36
2.12001e-36
2.12006e-36
2.12011e-36
2.12016e-36
2.12021e-36
2.12027e-36
2.12032e-36
2.12038e-36
2.12044e-36
2.12051e-36
2.12057e-36
2.12064e-36
2.12071e-36
2.12078e-36
2.12086e-36
2.12093e-36
2.12101e-36
2.12109e-36
2.12117e-36
2.12126e-36
2.12135e-36
2.12144e-36
2.12153e-36
2.12163e-36
2.12172e-36
2.12182e-36
2.12192e-36
2.12203e-36
2.12213e-36
2.12223e-36
2.12233e-36
2.12241e-36
2.12252e-36
2.12287e-36
2.12389e-36
2.12308e-36
2.12191e-36
2.12042e-36
2.11871e-36
2.11696e-36
2.11536e-36
2.11405e-36
2.11312e-36
2.11258e-36
2.11241e-36
2.11257e-36
2.11299e-36
2.11363e-36
2.11443e-36
2.11537e-36
2.1164e-36
2.11748e-36
2.11858e-36
2.11967e-36
2.12071e-36
2.12169e-36
2.12258e-36
2.12337e-36
2.12405e-36
2.12464e-36
2.12513e-36
2.12554e-36
2.12588e-36
2.12617e-36
2.1264e-36
2.12659e-36
2.12675e-36
2.12689e-36
2.12701e-36
2.12712e-36
2.12721e-36
2.12729e-36
2.12737e-36
2.12743e-36
2.12749e-36
2.12753e-36
2.12757e-36
2.1276e-36
2.12761e-36
2.12762e-36
2.12761e-36
2.1276e-36
2.12757e-36
2.12753e-36
2.12747e-36
2.1274e-36
2.12732e-36
2.12722e-36
2.1271e-36
2.12697e-36
2.12682e-36
2.12665e-36
2.12646e-36
2.12625e-36
2.12602e-36
2.12577e-36
2.1255e-36
2.12521e-36
2.12489e-36
2.12455e-36
2.12418e-36
2.12379e-36
2.12337e-36
2.12292e-36
2.12245e-36
2.12195e-36
2.12142e-36
2.12085e-36
2.12026e-36
2.11964e-36
2.11898e-36
2.1183e-36
2.11758e-36
2.11682e-36
2.11604e-36
2.11521e-36
2.11436e-36
2.11347e-36
2.11254e-36
2.11158e-36
2.11058e-36
2.10954e-36
2.10847e-36
2.10736e-36
2.10622e-36
2.10504e-36
2.10382e-36
2.10257e-36
2.10128e-36
2.09996e-36
2.0986e-36
2.09721e-36
2.09583e-36
2.09459e-36
2.09435e-36
2.09959e-36
2.13434e-36
2.32585e-36
3.34245e-36
8.66776e-36
3.63358e-35
1.79167e-34
9.12762e-34
4.66686e-33
2.38398e-32
1.21744e-31
6.22555e-31
3.1935e-30
1.64587e-29
8.53153e-29
4.44968e-28
2.33408e-27
1.22988e-26
6.49803e-26
3.43495e-25
1.81247e-24
9.52503e-24
4.97533e-23
2.57848e-22
1.32383e-21
6.69473e-21
3.35859e-20
1.6654e-19
8.15258e-19
3.93839e-18
1.87739e-17
8.8324e-17
4.10257e-16
1.88252e-15
8.53998e-15
3.83345e-14
1.70437e-13
7.51304e-13
3.28689e-12
1.42852e-11
6.17301e-11
2.6543e-10
1.13638e-09
4.84655e-09
2.05972e-08
8.71876e-08
3.67053e-07
1.52917e-06
6.24615e-06
2.44945e-05
8.77073e-05
0.000255515
0.000475875
0.000514061
0.000430219
0.000317684
0.000224421
0.000157268
0.000109984
7.71377e-05
5.52799e-05
3.84898e-05
2.92332e-05
2.32835e-05
1.9366e-05
1.6696e-05
1.47992e-05
1.33922e-05
1.23052e-05
1.14346e-05
1.07161e-05
1.01087e-05
9.58507e-06
9.12683e-06
8.7209e-06
8.35782e-06
8.03047e-06
7.73338e-06
7.46227e-06
7.21367e-06
6.98479e-06
6.77329e-06
6.57724e-06
6.39502e-06
6.22529e-06
6.06697e-06
5.92357e-06
5.79059e-06
5.66466e-06
5.54521e-06
5.43174e-06
5.32382e-06
5.22101e-06
5.12297e-06
5.02936e-06
4.93986e-06
4.85419e-06
4.77211e-06
4.69337e-06
4.61776e-06
4.54507e-06
4.47512e-06
4.40773e-06
4.34275e-06
4.28001e-06
4.21939e-06
4.16075e-06
4.10396e-06
4.04891e-06
3.99549e-06
3.9436e-06
3.89313e-06
3.844e-06
3.79613e-06
3.74941e-06
3.70378e-06
3.65916e-06
3.61547e-06
3.57264e-06
3.53061e-06
3.48931e-06
3.44867e-06
3.40865e-06
3.36916e-06
3.33017e-06
3.29161e-06
3.25344e-06
3.21559e-06
3.17803e-06
3.14071e-06
3.10359e-06
3.06662e-06
3.02976e-06
2.99299e-06
2.95628e-06
2.91959e-06
2.8829e-06
2.84619e-06
2.80945e-06
2.77266e-06
2.73583e-06
2.69893e-06
2.66199e-06
2.62499e-06
2.58794e-06
2.55084e-06
2.51369e-06
2.47645e-06
2.43905e-06
2.40129e-06
2.36497e-06
2.32868e-06
2.29268e-06
2.25705e-06
2.22183e-06
2.1871e-06
2.1529e-06
2.11931e-06
2.08641e-06
2.05424e-06
2.0229e-06
1.99244e-06
1.96293e-06
1.93443e-06
1.90701e-06
1.88072e-06
1.85562e-06
1.83176e-06
1.80917e-06
1.78789e-06
1.76796e-06
1.74939e-06
1.7322e-06
1.71639e-06
1.70198e-06
1.68893e-06
1.67724e-06
1.66689e-06
1.65783e-06
1.65002e-06
1.64342e-06
1.63796e-06
1.6336e-06
1.63025e-06
1.62785e-06
1.62633e-06
1.62561e-06
1.62561e-06
1.62625e-06
1.62745e-06
1.62915e-06
1.63126e-06
1.63372e-06
1.63646e-06
1.63942e-06
1.64256e-06
1.64581e-06
1.64913e-06
1.65249e-06
1.65585e-06
1.65919e-06
1.66248e-06
1.66571e-06
1.66887e-06
1.67194e-06
1.67493e-06
1.67782e-06
1.68063e-06
1.68335e-06
1.68598e-06
1.68853e-06
1.69101e-06
1.69341e-06
1.69575e-06
1.69803e-06
1.70026e-06
1.70243e-06
1.70455e-06
1.70662e-06
1.70864e-06
1.71062e-06
1.71256e-06
1.71444e-06
1.71628e-06
1.71807e-06
1.71981e-06
1.7215e-06
1.72314e-06
1.72471e-06
1.72623e-06
1.72769e-06
1.72909e-06
1.73043e-06
1.73171e-06
1.73292e-06
1.73407e-06
1.73515e-06
1.73618e-06
1.73714e-06
1.73804e-06
1.73889e-06
1.73967e-06
1.7404e-06
1.74108e-06
1.74171e-06
1.74229e-06
1.74283e-06
1.74332e-06
1.74378e-06
1.74419e-06
1.74457e-06
1.74492e-06
1.74524e-06
1.74553e-06
1.74579e-06
1.74604e-06
1.74626e-06
1.74646e-06
1.74664e-06
1.74681e-06
1.74696e-06
1.7471e-06
1.74723e-06
1.74735e-06
1.74745e-06
1.74755e-06
1.74765e-06
1.74773e-06
1.74781e-06
1.74789e-06
1.74795e-06
1.74802e-06
1.74807e-06
1.7481e-06
)
;

boundaryField
{
    boundary
    {
        type            empty;
    }
    inlet
    {
        type            fixedValue;
        value           uniform 0;
    }
    outlet
    {
        type            zeroGradient;
    }
}


// ************************************************************************* //
