/*--------------------------------*- C++ -*----------------------------------*\
  =========                 |
  \\      /  F ield         | OpenFOAM: The Open Source CFD Toolbox
   \\    /   O peration     | Website:  https://openfoam.org
    \\  /    A nd           | Version:  7
     \\/     M anipulation  |
\*---------------------------------------------------------------------------*/
FoamFile
{
    version     2.0;
    format      ascii;
    class       volScalarField;
    location    "0.00028";
    object      N2;
}
// * * * * * * * * * * * * * * * * * * * * * * * * * * * * * * * * * * * * * //

dimensions      [0 0 0 0 0 0 0];

internalField   nonuniform List<scalar> 
500
(
0.745219
0.745219
0.745219
0.745219
0.745219
0.745219
0.745219
0.745219
0.745219
0.745219
0.745219
0.745219
0.745219
0.745219
0.745219
0.745219
0.745219
0.745219
0.74522
0.74522
0.74522
0.74522
0.74522
0.74522
0.74522
0.74522
0.74522
0.74522
0.74522
0.74522
0.74522
0.74522
0.74522
0.74522
0.74522
0.74522
0.74522
0.74522
0.74522
0.74522
0.74522
0.74522
0.74522
0.74522
0.74522
0.74522
0.74522
0.74522
0.74522
0.74522
0.74522
0.74522
0.74522
0.74522
0.74522
0.74522
0.74522
0.74522
0.74522
0.74522
0.74522
0.74522
0.74522
0.74522
0.74522
0.74522
0.74522
0.74522
0.74522
0.74522
0.74522
0.74522
0.74522
0.74522
0.74522
0.74522
0.74522
0.74522
0.74522
0.74522
0.74522
0.74522
0.74522
0.74522
0.74522
0.74522
0.74522
0.74522
0.74522
0.74522
0.74522
0.74522
0.74522
0.74522
0.74522
0.74522
0.74522
0.74522
0.74522
0.74522
0.74522
0.74522
0.74522
0.74522
0.74522
0.74522
0.74522
0.74522
0.74522
0.74522
0.74522
0.74522
0.74522
0.74522
0.74522
0.74522
0.74522
0.74522
0.74522
0.74522
0.74522
0.74522
0.74522
0.74522
0.74522
0.74522
0.74522
0.74522
0.74522
0.74522
0.74522
0.74522
0.74522
0.74522
0.74522
0.74522
0.74522
0.74522
0.74522
0.74522
0.74522
0.74522
0.74522
0.74522
0.74522
0.74522
0.74522
0.74522
0.74522
0.74522
0.74522
0.74522
0.74522
0.74522
0.74522
0.74522
0.74522
0.74522
0.74522
0.74522
0.74522
0.74522
0.74522
0.74522
0.74522
0.74522
0.74522
0.74522
0.74522
0.74522
0.74522
0.74522
0.74522
0.74522
0.74522
0.74522
0.74522
0.74522
0.74522
0.74522
0.74522
0.74522
0.74522
0.74522
0.74522
0.74522
0.74522
0.74522
0.74522
0.74522
0.74522
0.74522
0.74522
0.74522
0.74522
0.74522
0.74522
0.74522
0.74522
0.74522
0.74522
0.74522
0.74522
0.74522
0.74522
0.74522
0.74522
0.74522
0.74522
0.74522
0.74522
0.74522
0.74522
0.74522
0.74522
0.74522
0.74522
0.74522
0.74522
0.74522
0.74522
0.74522
0.74522
0.74522
0.74522
0.74522
0.74522
0.74522
0.74522
0.74522
0.74522
0.74522
0.74522
0.74522
0.74522
0.74522
0.74522
0.74522
0.74522
0.74522
0.74522
0.74522
0.74522
0.74522
0.74522
0.74522
0.74522
0.74522
0.74522
0.74522
0.74522
0.74522
0.74522
0.74522
0.74522
0.74522
0.74522
0.74522
0.74522
0.74522
0.74522
0.74522
0.74522
0.74522
0.74522
0.74522
0.74522
0.74522
0.745221
0.745222
0.745224
0.745229
0.745239
0.745259
0.745298
0.74537
0.745484
0.745604
0.745597
0.745357
0.744961
0.74443
0.743891
0.743614
0.743715
0.744016
0.744193
0.744775
0.744982
0.745126
0.745218
0.745274
0.745308
0.745327
0.745338
0.745343
0.745344
0.745344
0.745343
0.745341
0.745338
0.745336
0.745333
0.74533
0.745328
0.745325
0.745322
0.745319
0.745316
0.745313
0.74531
0.745306
0.745303
0.745299
0.745296
0.745292
0.745288
0.745284
0.74528
0.745275
0.745271
0.745266
0.745262
0.745257
0.745252
0.745247
0.745242
0.745237
0.745232
0.745227
0.745222
0.745217
0.745211
0.745206
0.745201
0.745196
0.745191
0.745186
0.74518
0.745175
0.745171
0.745166
0.745161
0.745157
0.745152
0.745148
0.745144
0.745141
0.745138
0.745135
0.745133
0.745131
0.74513
0.745129
0.745129
0.74513
0.745132
0.745135
0.745138
0.745143
0.745149
0.745156
0.745164
0.745174
0.745185
0.745197
0.74521
0.745225
0.745241
0.745258
0.745277
0.745296
0.745316
0.745337
0.745358
0.745379
0.745404
0.745429
0.745454
0.74548
0.745505
0.745531
0.745556
0.74558
0.745603
0.745625
0.745646
0.745665
0.745683
0.745698
0.745712
0.745723
0.745732
0.745738
0.745742
0.745742
0.74574
0.745736
0.745728
0.745718
0.745705
0.745689
0.74567
0.74565
0.745627
0.745602
0.745575
0.745546
0.745516
0.745484
0.745452
0.745419
0.745385
0.745351
0.745317
0.745284
0.745251
0.745218
0.745187
0.745156
0.745127
0.7451
0.745074
0.745049
0.745027
0.745007
0.744988
0.744972
0.744957
0.744945
0.744934
0.744926
0.74492
0.744915
0.744913
0.744912
0.744912
0.744915
0.744918
0.744923
0.744929
0.744936
0.744944
0.744953
0.744962
0.744972
0.744983
0.744993
0.745004
0.745015
0.745026
0.745037
0.745048
0.745059
0.745069
0.74508
0.745089
0.745099
0.745108
0.745117
0.745125
0.745133
0.74514
0.745147
0.745153
0.74516
0.745165
0.74517
0.745175
0.74518
0.745184
0.745187
0.745191
0.745194
0.745197
0.745199
0.745202
0.745204
0.745206
0.745207
0.745209
0.74521
0.745211
0.745212
0.745213
0.745214
0.745215
0.745215
0.745216
0.745216
0.745217
0.745217
0.745218
0.745218
0.745218
0.745218
0.745218
0.745219
0.745219
0.745219
)
;

boundaryField
{
    boundary
    {
        type            empty;
    }
    inlet
    {
        type            fixedValue;
        value           uniform 0.74522;
    }
    outlet
    {
        type            zeroGradient;
    }
}


// ************************************************************************* //
