/*--------------------------------*- C++ -*----------------------------------*\
  =========                 |
  \\      /  F ield         | OpenFOAM: The Open Source CFD Toolbox
   \\    /   O peration     | Website:  https://openfoam.org
    \\  /    A nd           | Version:  7
     \\/     M anipulation  |
\*---------------------------------------------------------------------------*/
FoamFile
{
    version     2.0;
    format      ascii;
    class       volScalarField;
    location    "0.00028";
    object      O;
}
// * * * * * * * * * * * * * * * * * * * * * * * * * * * * * * * * * * * * * //

dimensions      [0 0 0 0 0 0 0];

internalField   nonuniform List<scalar> 
500
(
1.58547e-47
3.79491e-47
6.03478e-47
8.30099e-47
1.06001e-46
1.29423e-46
1.53402e-46
1.78078e-46
2.03591e-46
2.30071e-46
2.57614e-46
2.86267e-46
3.16011e-46
3.46743e-46
3.78271e-46
4.10313e-46
4.42501e-46
4.74403e-46
5.05548e-46
5.35457e-46
5.63677e-46
5.89814e-46
6.13562e-46
6.34717e-46
6.5319e-46
6.68998e-46
6.82253e-46
6.93146e-46
7.0192e-46
7.08848e-46
7.14212e-46
7.18286e-46
7.21322e-46
7.23543e-46
7.25137e-46
7.26262e-46
7.27042e-46
7.27573e-46
7.27928e-46
7.28162e-46
7.28314e-46
7.2841e-46
7.28471e-46
7.28508e-46
7.2853e-46
7.28544e-46
7.28552e-46
7.28556e-46
7.28559e-46
7.2856e-46
7.28561e-46
7.28562e-46
7.28563e-46
7.28564e-46
7.28564e-46
7.28565e-46
7.28567e-46
7.28568e-46
7.2857e-46
7.28572e-46
7.28574e-46
7.28576e-46
7.28579e-46
7.28582e-46
7.28586e-46
7.2859e-46
7.28594e-46
7.28598e-46
7.28604e-46
7.28609e-46
7.28615e-46
7.28621e-46
7.28628e-46
7.28635e-46
7.28643e-46
7.28652e-46
7.28661e-46
7.2867e-46
7.2868e-46
7.28691e-46
7.28702e-46
7.28715e-46
7.28727e-46
7.28741e-46
7.28755e-46
7.2877e-46
7.28785e-46
7.28802e-46
7.28819e-46
7.28837e-46
7.28855e-46
7.28875e-46
7.28895e-46
7.28916e-46
7.28939e-46
7.28962e-46
7.28986e-46
7.2901e-46
7.29036e-46
7.29063e-46
7.29091e-46
7.29119e-46
7.29149e-46
7.2918e-46
7.29211e-46
7.29244e-46
7.29277e-46
7.29312e-46
7.29348e-46
7.29384e-46
7.29422e-46
7.2946e-46
7.295e-46
7.29541e-46
7.29583e-46
7.29625e-46
7.29669e-46
7.29713e-46
7.29759e-46
7.29805e-46
7.2985e-46
7.29895e-46
7.29934e-46
7.29958e-46
7.2994e-46
7.29871e-46
7.29906e-46
7.29933e-46
7.2995e-46
7.29955e-46
7.29947e-46
7.29925e-46
7.29889e-46
7.2984e-46
7.29782e-46
7.29718e-46
7.29657e-46
7.29606e-46
7.29573e-46
7.29565e-46
7.29587e-46
7.29643e-46
7.29733e-46
7.29854e-46
7.30003e-46
7.30171e-46
7.30353e-46
7.30539e-46
7.30725e-46
7.30903e-46
7.31069e-46
7.31222e-46
7.31359e-46
7.3148e-46
7.31586e-46
7.31679e-46
7.3176e-46
7.3183e-46
7.31891e-46
7.31945e-46
7.31992e-46
7.32034e-46
7.32071e-46
7.32103e-46
7.32131e-46
7.32154e-46
7.32174e-46
7.32189e-46
7.32199e-46
7.32206e-46
7.32207e-46
7.32203e-46
7.32194e-46
7.32179e-46
7.32159e-46
7.32133e-46
7.321e-46
7.3206e-46
7.32014e-46
7.3196e-46
7.31898e-46
7.31829e-46
7.31751e-46
7.31665e-46
7.3157e-46
7.31466e-46
7.31353e-46
7.31229e-46
7.31096e-46
7.30951e-46
7.30796e-46
7.3063e-46
7.30453e-46
7.30263e-46
7.30062e-46
7.29848e-46
7.29621e-46
7.29381e-46
7.29128e-46
7.28861e-46
7.28581e-46
7.28286e-46
7.27977e-46
7.27653e-46
7.27315e-46
7.26961e-46
7.26592e-46
7.2621e-46
7.25823e-46
7.25493e-46
7.25598e-46
7.2848e-46
7.4849e-46
8.72619e-46
1.62288e-45
6.09937e-45
3.25196e-44
1.86798e-43
1.07806e-42
6.17108e-42
3.49545e-41
1.9581e-40
1.08457e-39
5.9387e-39
3.21413e-38
1.71908e-37
9.0848e-37
4.74289e-36
2.44569e-35
1.24541e-34
6.26177e-34
3.10796e-33
1.52254e-32
7.36032e-32
3.51059e-31
1.65174e-30
7.66483e-30
3.50741e-29
1.58241e-28
7.03761e-28
3.08488e-27
1.33257e-26
5.67179e-26
2.37831e-25
9.824e-25
3.997e-24
1.60167e-23
6.321e-23
2.45675e-22
9.40393e-22
3.54533e-21
1.31776e-20
4.82246e-20
1.73873e-19
6.17933e-19
2.16564e-18
7.48815e-18
2.55596e-17
8.61794e-17
2.87236e-16
9.47115e-16
3.09214e-15
1.00043e-14
3.21042e-14
1.02274e-13
3.23718e-13
1.01888e-12
3.19132e-12
9.95488e-12
3.09472e-11
9.59387e-11
2.96754e-10
9.16448e-10
2.82986e-09
8.78509e-09
2.80206e-08
9.88335e-08
4.51543e-07
2.89068e-06
1.93909e-05
9.63236e-05
0.000380004
0.00111145
0.00231371
0.00368131
0.00486147
0.00569237
0.00619105
0.00639916
0.00644376
0.00638816
0.00627456
0.00612992
0.0059708
0.00580704
0.00564434
0.00548586
0.00533325
0.00518727
0.00504815
0.00491582
0.00479007
0.00467059
0.00455702
0.00444902
0.00434624
0.00424834
0.00415502
0.00406599
0.00398097
0.00389973
0.00382209
0.00375011
0.00368224
0.00361677
0.00355355
0.00349245
0.00343336
0.00337618
0.0033208
0.00326712
0.00321506
0.00316454
0.00311548
0.00306779
0.00302142
0.00297629
0.00293233
0.0028895
0.00284772
0.00280694
0.00276711
0.00272818
0.00269011
0.00265284
0.00261633
0.00258054
0.00254542
0.00251095
0.00247708
0.00244378
0.00241101
0.00237873
0.00234693
0.00231555
0.00228459
0.002254
0.00222375
0.00219383
0.00216421
0.00213486
0.00210576
0.00207688
0.00204821
0.00201974
0.00199143
0.00196328
0.00193528
0.0019074
0.00187965
0.001852
0.00182447
0.00179703
0.0017697
0.00174247
0.00171535
0.00168833
0.00166142
0.00163464
0.00160798
0.00158145
0.00155506
0.00152881
0.00150269
0.00147672
0.00145093
0.00142552
0.00140044
0.00137566
0.00135121
0.00132708
0.00130331
0.0012799
0.00125686
0.00123422
0.00121199
0.00119017
0.00116877
0.0011478
0.00112727
0.00110717
0.0010875
0.00106827
0.00104947
0.00103109
0.00101313
0.000995569
0.000978408
0.000961631
0.000945226
0.000929181
0.000913483
0.000898117
0.000883071
0.000868332
0.000853887
0.000839723
0.000825829
0.000812194
0.000798809
0.000785664
0.000772752
0.000760066
0.0007476
0.000735349
0.000723311
0.000711482
0.00069986
0.000688446
0.00067724
0.000666241
0.000655453
0.000644876
0.000634514
0.00062437
0.000614448
0.000604751
0.000595281
0.000586044
0.000577042
0.000568279
0.000559757
0.00055148
0.000543451
0.000535671
0.000528142
0.000520866
0.000513842
0.000507072
0.000500555
0.00049429
0.000488276
0.000482512
0.000476994
0.000471721
0.000466689
0.000461895
0.000457334
0.000453003
0.000448895
0.000445007
0.000441332
0.000437864
0.000434598
0.000431527
0.000428645
0.000425944
0.000423419
0.000421061
0.000418865
0.000416822
0.000414925
0.000413168
0.000411543
0.000410044
0.000408663
0.000407394
0.000406229
0.000405163
0.000404189
0.000403301
0.000402493
0.00040176
0.000401096
0.000400496
0.000399954
0.000399467
0.000399029
0.000398637
0.000398287
0.000397974
0.000397696
0.00039745
0.000397232
0.00039704
0.00039687
0.000396722
0.000396592
0.000396479
0.00039638
0.000396295
0.000396221
0.000396158
0.000396104
0.000396059
0.000396021
0.00039599
0.000395966
0.000395948
0.000395937
)
;

boundaryField
{
    boundary
    {
        type            empty;
    }
    inlet
    {
        type            fixedValue;
        value           uniform 0;
    }
    outlet
    {
        type            zeroGradient;
    }
}


// ************************************************************************* //
