/*--------------------------------*- C++ -*----------------------------------*\
  =========                 |
  \\      /  F ield         | OpenFOAM: The Open Source CFD Toolbox
   \\    /   O peration     | Website:  https://openfoam.org
    \\  /    A nd           | Version:  7
     \\/     M anipulation  |
\*---------------------------------------------------------------------------*/
FoamFile
{
    version     2.0;
    format      ascii;
    class       volScalarField;
    location    "0.00028";
    object      O2;
}
// * * * * * * * * * * * * * * * * * * * * * * * * * * * * * * * * * * * * * //

dimensions      [0 0 0 0 0 0 0];

internalField   nonuniform List<scalar> 
500
(
0.226269
0.226269
0.226269
0.226269
0.226269
0.226269
0.226269
0.226269
0.226269
0.226269
0.226269
0.226269
0.226269
0.226269
0.226269
0.226269
0.226269
0.226269
0.226269
0.226269
0.226269
0.226269
0.226269
0.226269
0.226269
0.226269
0.226269
0.226269
0.226269
0.226269
0.226269
0.226269
0.226269
0.226269
0.226269
0.226269
0.226269
0.226269
0.226269
0.226269
0.226269
0.226269
0.226269
0.226269
0.226269
0.226269
0.226269
0.226269
0.226269
0.226269
0.226269
0.226269
0.226269
0.226269
0.226269
0.226269
0.226269
0.226269
0.226269
0.226269
0.226269
0.226269
0.226269
0.226269
0.226269
0.226269
0.226269
0.226269
0.226269
0.226269
0.226269
0.226269
0.226269
0.226269
0.226269
0.226269
0.226269
0.226269
0.226269
0.226269
0.226269
0.226269
0.226269
0.226269
0.226269
0.226269
0.226269
0.226269
0.226269
0.226269
0.226269
0.226269
0.226269
0.226269
0.226269
0.226269
0.226269
0.226269
0.226269
0.226269
0.226269
0.226269
0.226269
0.226269
0.226269
0.226269
0.226269
0.226269
0.226269
0.226269
0.226269
0.226269
0.226269
0.226269
0.226269
0.226269
0.226269
0.226269
0.226269
0.226269
0.226269
0.226269
0.226269
0.226269
0.226269
0.226269
0.226269
0.226269
0.226269
0.226269
0.226269
0.226269
0.226269
0.226269
0.226269
0.226269
0.226269
0.226269
0.226269
0.226269
0.226269
0.226269
0.226269
0.226269
0.226269
0.226269
0.226269
0.226269
0.226269
0.226269
0.226269
0.226269
0.226269
0.226269
0.226269
0.226269
0.226269
0.226269
0.226269
0.226269
0.226269
0.226269
0.226269
0.226269
0.226269
0.226269
0.226269
0.226269
0.226269
0.226269
0.226269
0.226269
0.226269
0.226269
0.226269
0.226269
0.226269
0.226269
0.226269
0.226269
0.226269
0.226269
0.226269
0.226269
0.226269
0.226269
0.226269
0.226269
0.226269
0.226269
0.226269
0.226269
0.226269
0.226269
0.226269
0.226269
0.226269
0.226269
0.226269
0.226269
0.226269
0.226269
0.226269
0.226269
0.226269
0.226269
0.226269
0.226269
0.226269
0.226269
0.226269
0.226269
0.226269
0.226269
0.226269
0.226269
0.226269
0.226269
0.226269
0.226269
0.226269
0.226269
0.226269
0.226269
0.226269
0.226269
0.226269
0.226269
0.226269
0.226269
0.226269
0.226269
0.226269
0.226269
0.226269
0.226269
0.226269
0.226269
0.226269
0.226269
0.226269
0.226269
0.226269
0.226269
0.226269
0.226269
0.226269
0.226269
0.226269
0.226269
0.226269
0.226269
0.226269
0.226269
0.226269
0.226269
0.226269
0.226269
0.226269
0.226269
0.226269
0.226269
0.226269
0.226269
0.226269
0.226269
0.226269
0.226269
0.226269
0.22627
0.22627
0.226272
0.226274
0.226278
0.226275
0.226237
0.226032
0.225218
0.222698
0.216548
0.205763
0.191589
0.173611
0.150857
0.125087
0.100695
0.0814204
0.0640447
0.0538375
0.0469363
0.0422573
0.0390209
0.036708
0.0349868
0.0336492
0.0325654
0.0316543
0.0308648
0.0301641
0.029531
0.0289511
0.0284147
0.0279148
0.0274463
0.0270052
0.0265885
0.0261938
0.0258189
0.0254622
0.0251222
0.0247979
0.0244884
0.024202
0.0239306
0.0236684
0.0234148
0.0231692
0.0229311
0.0227
0.0224755
0.0222571
0.0220445
0.0218372
0.0216349
0.0214372
0.0212438
0.0210543
0.0208684
0.0206859
0.0205064
0.0203297
0.0201555
0.0199835
0.0198135
0.0196452
0.0194785
0.019313
0.0191485
0.0189849
0.018822
0.0186594
0.0184971
0.0183348
0.0181723
0.0180095
0.0178461
0.0176821
0.0175171
0.0173511
0.017184
0.0170155
0.0168455
0.0166739
0.0165006
0.0163255
0.0161485
0.0159696
0.0157885
0.0156055
0.0154203
0.0152331
0.0150438
0.0148525
0.0146592
0.0144642
0.0142673
0.0140689
0.013869
0.0136678
0.0134655
0.0132622
0.0130581
0.0128532
0.0126475
0.0124405
0.012231
0.012031
0.0118311
0.0116331
0.0114373
0.0112438
0.0110531
0.0108655
0.0106811
0.0105004
0.0103234
0.0101506
0.00998205
0.00981795
0.00965848
0.00950378
0.00935396
0.00920911
0.00906929
0.00893453
0.00880487
0.0086803
0.0085608
0.00844633
0.00833683
0.00823223
0.00813247
0.00803744
0.00794704
0.00786118
0.00777974
0.0077026
0.00762965
0.00756076
0.00749583
0.00743473
0.00737734
0.00732356
0.00727327
0.00722637
0.00718274
0.0071423
0.00710494
0.00707056
0.00703909
0.00701043
0.0069845
0.00696121
0.00694048
0.00692223
0.00690639
0.00689286
0.00688157
0.00687243
0.00686536
0.00686027
0.00685707
0.00685566
0.00685595
0.00685783
0.0068612
0.00686596
0.006872
0.0068792
0.00688745
0.00689664
0.00690666
0.00691739
0.00692873
0.00694056
0.00695277
0.00696527
0.00697795
0.00699073
0.00700352
0.00701623
0.0070288
0.00704115
0.00705323
0.00706498
0.00707636
0.00708733
0.00709785
0.00710792
0.00711749
0.00712658
0.00713515
0.00714323
0.0071508
0.00715787
0.00716446
0.00717057
0.00717623
0.00718145
0.00718625
0.00719066
0.00719468
0.00719835
0.00720169
0.00720471
0.00720745
0.00720991
0.00721214
0.00721413
0.00721592
0.00721751
0.00721893
0.0072202
0.00722133
0.00722232
0.0072232
0.00722398
0.00722467
0.00722527
0.00722581
0.00722627
0.00722669
0.00722705
0.00722736
0.00722764
0.00722787
0.00722808
0.00722826
0.00722839
0.00722848
)
;

boundaryField
{
    boundary
    {
        type            empty;
    }
    inlet
    {
        type            fixedValue;
        value           uniform 0.226269;
    }
    outlet
    {
        type            zeroGradient;
    }
}


// ************************************************************************* //
