/*--------------------------------*- C++ -*----------------------------------*\
  =========                 |
  \\      /  F ield         | OpenFOAM: The Open Source CFD Toolbox
   \\    /   O peration     | Website:  https://openfoam.org
    \\  /    A nd           | Version:  7
     \\/     M anipulation  |
\*---------------------------------------------------------------------------*/
FoamFile
{
    version     2.0;
    format      ascii;
    class       volScalarField;
    location    "0.00028";
    object      OH;
}
// * * * * * * * * * * * * * * * * * * * * * * * * * * * * * * * * * * * * * //

dimensions      [0 0 0 0 0 0 0];

internalField   nonuniform List<scalar> 
500
(
9.40758e-48
1.83708e-47
2.45493e-47
2.87992e-47
3.17571e-47
3.38673e-47
3.54365e-47
3.66775e-47
3.77396e-47
3.87288e-47
3.97201e-47
4.07663e-47
4.19024e-47
4.31489e-47
4.45137e-47
4.59928e-47
4.75721e-47
4.92281e-47
5.09301e-47
5.26422e-47
5.4326e-47
5.59443e-47
5.74635e-47
5.88562e-47
6.01029e-47
6.1193e-47
6.21242e-47
6.29016e-47
6.35363e-47
6.40433e-47
6.44397e-47
6.47434e-47
6.49714e-47
6.51392e-47
6.52605e-47
6.53466e-47
6.54066e-47
6.54477e-47
6.54754e-47
6.54938e-47
6.55058e-47
6.55135e-47
6.55185e-47
6.55216e-47
6.55236e-47
6.55249e-47
6.55258e-47
6.55264e-47
6.55268e-47
6.55272e-47
6.55275e-47
6.55279e-47
6.55282e-47
6.55285e-47
6.55289e-47
6.55292e-47
6.55296e-47
6.553e-47
6.55305e-47
6.55309e-47
6.55314e-47
6.5532e-47
6.55325e-47
6.55331e-47
6.55337e-47
6.55344e-47
6.55351e-47
6.55358e-47
6.55366e-47
6.55374e-47
6.55383e-47
6.55392e-47
6.55401e-47
6.55411e-47
6.55422e-47
6.55433e-47
6.55444e-47
6.55456e-47
6.55469e-47
6.55482e-47
6.55496e-47
6.5551e-47
6.55525e-47
6.55541e-47
6.55557e-47
6.55574e-47
6.55592e-47
6.5561e-47
6.55629e-47
6.55649e-47
6.5567e-47
6.55691e-47
6.55713e-47
6.55736e-47
6.5576e-47
6.55785e-47
6.5581e-47
6.55837e-47
6.55864e-47
6.55892e-47
6.55921e-47
6.55951e-47
6.55981e-47
6.56013e-47
6.56046e-47
6.56079e-47
6.56113e-47
6.56149e-47
6.56185e-47
6.56222e-47
6.56261e-47
6.563e-47
6.5634e-47
6.56381e-47
6.56423e-47
6.56466e-47
6.56509e-47
6.56554e-47
6.566e-47
6.56646e-47
6.56693e-47
6.56741e-47
6.56789e-47
6.56837e-47
6.56884e-47
6.56928e-47
6.56978e-47
6.57028e-47
6.57077e-47
6.57127e-47
6.57175e-47
6.57223e-47
6.57269e-47
6.57316e-47
6.57362e-47
6.57408e-47
6.57455e-47
6.57504e-47
6.57555e-47
6.57609e-47
6.57665e-47
6.57724e-47
6.57786e-47
6.5785e-47
6.57916e-47
6.57984e-47
6.58052e-47
6.5812e-47
6.58188e-47
6.58254e-47
6.58319e-47
6.58381e-47
6.58442e-47
6.585e-47
6.58555e-47
6.58609e-47
6.58659e-47
6.58708e-47
6.58753e-47
6.58797e-47
6.58837e-47
6.58876e-47
6.58911e-47
6.58943e-47
6.58973e-47
6.58999e-47
6.59022e-47
6.59042e-47
6.59057e-47
6.59069e-47
6.59077e-47
6.5908e-47
6.59079e-47
6.59072e-47
6.59061e-47
6.59044e-47
6.59022e-47
6.58994e-47
6.58959e-47
6.58919e-47
6.58871e-47
6.58817e-47
6.58756e-47
6.58687e-47
6.5861e-47
6.58525e-47
6.58432e-47
6.5833e-47
6.5822e-47
6.581e-47
6.57971e-47
6.57832e-47
6.57683e-47
6.57524e-47
6.57354e-47
6.57173e-47
6.56981e-47
6.56778e-47
6.56563e-47
6.56336e-47
6.56098e-47
6.55847e-47
6.55583e-47
6.55306e-47
6.55017e-47
6.54715e-47
6.54399e-47
6.5407e-47
6.53727e-47
6.53372e-47
6.53011e-47
6.52685e-47
6.52642e-47
6.54393e-47
6.67032e-47
7.44713e-47
1.20656e-46
3.91343e-46
1.96007e-45
1.09533e-44
6.19508e-44
3.47967e-43
1.93426e-42
1.06331e-41
5.77918e-41
3.10504e-40
1.64893e-39
8.65394e-39
4.48794e-38
2.29959e-37
1.16406e-36
5.82084e-36
2.87503e-35
1.40255e-34
6.75777e-34
3.21583e-33
1.51148e-32
7.01733e-32
3.21856e-31
1.4587e-30
6.5347e-30
2.89482e-29
1.26882e-28
5.50652e-28
2.36841e-27
1.01074e-26
4.28573e-26
1.80858e-25
7.6103e-25
3.19982e-24
1.3473e-23
5.69661e-23
2.42098e-22
1.0362e-21
4.47196e-21
1.94708e-20
8.55205e-20
3.78707e-19
1.68921e-18
7.58114e-18
3.41953e-17
1.54856e-16
7.03434e-16
3.20283e-15
1.46082e-14
6.67114e-14
3.04911e-13
1.39435e-12
6.37779e-12
2.91727e-11
1.33423e-10
6.17416e-10
2.88413e-09
1.35588e-08
6.43848e-08
3.16601e-07
1.72205e-06
1.10861e-05
7.46636e-05
0.000336622
0.000684667
0.000861216
0.00107112
0.00159778
0.00256395
0.0038558
0.00523707
0.0066736
0.00776613
0.00863755
0.00932012
0.00985159
0.0102668
0.0105936
0.0108531
0.0110611
0.0112288
0.0113647
0.0114751
0.0115647
0.0116371
0.0116953
0.0117414
0.0117773
0.0118045
0.0118242
0.0118374
0.011845
0.0118478
0.0118463
0.011841
0.0118324
0.0118215
0.0118085
0.0117935
0.0117768
0.0117584
0.0117385
0.0117172
0.0116947
0.0116711
0.0116464
0.0116207
0.0115942
0.0115668
0.0115387
0.0115098
0.0114802
0.01145
0.0114192
0.0113877
0.0113556
0.011323
0.0112898
0.011256
0.0112216
0.0111867
0.0111512
0.011115
0.0110783
0.011041
0.011003
0.0109643
0.0109249
0.0108849
0.0108441
0.0108026
0.0107603
0.0107171
0.0106732
0.0106284
0.0105827
0.010536
0.0104885
0.01044
0.0103906
0.0103402
0.0102888
0.0102365
0.0101832
0.0101289
0.0100737
0.0100176
0.00996065
0.00990286
0.00984429
0.00978501
0.00972508
0.00966458
0.00960357
0.00954214
0.00948036
0.00941831
0.00935605
0.00929368
0.00923135
0.00916959
0.00910832
0.00904765
0.00898765
0.00892844
0.00887012
0.00881279
0.00875655
0.00870148
0.00864767
0.00859518
0.00854405
0.00849432
0.00844601
0.00839913
0.00835366
0.00830959
0.00826686
0.00822543
0.00818523
0.00814616
0.00810815
0.00807109
0.00803486
0.00799934
0.00796442
0.00792996
0.00789584
0.00786193
0.0078281
0.00779424
0.00776022
0.00772594
0.00769129
0.00765619
0.00762056
0.00758433
0.00754744
0.00750986
0.00747154
0.00743249
0.00739269
0.00735216
0.00731091
0.007269
0.00722645
0.00718333
0.00713971
0.00709566
0.00705126
0.00700661
0.00696179
0.0069169
0.00687204
0.0068273
0.0067828
0.00673862
0.00669487
0.00665165
0.00660903
0.00656712
0.00652598
0.00648571
0.00644637
0.00640802
0.00637073
0.00633454
0.0062995
0.00626566
0.00623303
0.00620166
0.00617155
0.00614271
0.00611516
0.0060889
0.00606392
0.0060402
0.00601774
0.00599651
0.0059765
0.00595766
0.00593998
0.00592342
0.00590793
0.00589349
0.00588005
0.00586757
0.00585601
0.00584532
0.00583546
0.00582639
0.00581805
0.00581042
0.00580344
0.00579707
0.00579128
0.00578602
0.00578126
0.00577696
0.00577308
0.00576959
0.00576646
0.00576366
0.00576116
0.00575894
0.00575697
0.00575522
0.00575368
0.00575232
0.00575113
0.00575009
0.00574919
0.0057484
0.00574772
0.00574714
0.00574664
0.00574622
0.00574587
0.00574557
0.00574533
0.00574513
0.00574498
0.00574488
0.00574482
)
;

boundaryField
{
    boundary
    {
        type            empty;
    }
    inlet
    {
        type            fixedValue;
        value           uniform 0;
    }
    outlet
    {
        type            zeroGradient;
    }
}


// ************************************************************************* //
