/*--------------------------------*- C++ -*----------------------------------*\
  =========                 |
  \\      /  F ield         | OpenFOAM: The Open Source CFD Toolbox
   \\    /   O peration     | Website:  https://openfoam.org
    \\  /    A nd           | Version:  7
     \\/     M anipulation  |
\*---------------------------------------------------------------------------*/
FoamFile
{
    version     2.0;
    format      ascii;
    class       surfaceScalarField;
    location    "0.00028";
    object      phi;
}
// * * * * * * * * * * * * * * * * * * * * * * * * * * * * * * * * * * * * * //

dimensions      [1 0 -1 0 0 0 0];

internalField   nonuniform List<scalar> 
499
(
6.93e-06
6.92959e-06
6.92914e-06
6.92865e-06
6.9281e-06
6.92749e-06
6.92679e-06
6.92598e-06
6.92504e-06
6.92396e-06
6.92271e-06
6.92127e-06
6.91965e-06
6.91784e-06
6.91585e-06
6.91372e-06
6.91147e-06
6.90914e-06
6.90678e-06
6.90444e-06
6.90216e-06
6.89999e-06
6.89795e-06
6.89608e-06
6.89439e-06
6.89288e-06
6.89156e-06
6.89042e-06
6.88943e-06
6.88858e-06
6.88786e-06
6.88724e-06
6.8867e-06
6.88622e-06
6.8858e-06
6.88542e-06
6.88506e-06
6.88473e-06
6.88441e-06
6.88411e-06
6.88381e-06
6.88351e-06
6.88322e-06
6.88293e-06
6.88264e-06
6.88236e-06
6.88207e-06
6.88178e-06
6.8815e-06
6.88121e-06
6.88092e-06
6.88064e-06
6.88035e-06
6.88007e-06
6.87978e-06
6.8795e-06
6.87921e-06
6.87892e-06
6.87864e-06
6.87835e-06
6.87807e-06
6.87778e-06
6.8775e-06
6.87721e-06
6.87692e-06
6.87664e-06
6.87635e-06
6.87607e-06
6.87578e-06
6.8755e-06
6.87521e-06
6.87492e-06
6.87464e-06
6.87435e-06
6.87407e-06
6.87378e-06
6.87349e-06
6.87321e-06
6.87292e-06
6.87264e-06
6.87235e-06
6.87206e-06
6.87178e-06
6.87149e-06
6.87121e-06
6.87092e-06
6.87063e-06
6.87035e-06
6.87006e-06
6.86977e-06
6.86949e-06
6.8692e-06
6.86892e-06
6.86863e-06
6.86834e-06
6.86806e-06
6.86777e-06
6.86748e-06
6.8672e-06
6.86691e-06
6.86662e-06
6.86634e-06
6.86605e-06
6.86576e-06
6.86547e-06
6.86519e-06
6.8649e-06
6.86461e-06
6.86433e-06
6.86404e-06
6.86375e-06
6.86346e-06
6.86318e-06
6.86289e-06
6.8626e-06
6.86231e-06
6.86202e-06
6.86174e-06
6.86145e-06
6.86116e-06
6.86087e-06
6.86058e-06
6.8603e-06
6.86001e-06
6.85972e-06
6.85943e-06
6.85915e-06
6.85886e-06
6.85857e-06
6.85828e-06
6.85799e-06
6.85771e-06
6.85742e-06
6.85713e-06
6.85684e-06
6.85656e-06
6.85627e-06
6.85598e-06
6.85569e-06
6.85541e-06
6.85512e-06
6.85483e-06
6.85454e-06
6.85425e-06
6.85397e-06
6.85368e-06
6.85339e-06
6.8531e-06
6.85281e-06
6.85253e-06
6.85224e-06
6.85195e-06
6.85166e-06
6.85138e-06
6.85109e-06
6.8508e-06
6.85052e-06
6.85023e-06
6.84995e-06
6.84966e-06
6.84938e-06
6.84909e-06
6.84881e-06
6.84853e-06
6.84825e-06
6.84796e-06
6.84768e-06
6.8474e-06
6.84712e-06
6.84684e-06
6.84656e-06
6.84628e-06
6.846e-06
6.84572e-06
6.84544e-06
6.84517e-06
6.84489e-06
6.84461e-06
6.84434e-06
6.84407e-06
6.84379e-06
6.84352e-06
6.84325e-06
6.84298e-06
6.84271e-06
6.84244e-06
6.84217e-06
6.8419e-06
6.84164e-06
6.84137e-06
6.84111e-06
6.84084e-06
6.84058e-06
6.84032e-06
6.84006e-06
6.8398e-06
6.83955e-06
6.83929e-06
6.83904e-06
6.83878e-06
6.83853e-06
6.83828e-06
6.83803e-06
6.83778e-06
6.83754e-06
6.83729e-06
6.83705e-06
6.83681e-06
6.83656e-06
6.83632e-06
6.83609e-06
6.83585e-06
6.83562e-06
6.83538e-06
6.83515e-06
6.83492e-06
6.83469e-06
6.83446e-06
6.83424e-06
6.83401e-06
6.83379e-06
6.83357e-06
6.83335e-06
6.83313e-06
6.83291e-06
6.8327e-06
6.83248e-06
6.83227e-06
6.83206e-06
6.83185e-06
6.83164e-06
6.83143e-06
6.83123e-06
6.83102e-06
6.83082e-06
6.83062e-06
6.83041e-06
6.83021e-06
6.83001e-06
6.82981e-06
6.82962e-06
6.82942e-06
6.82922e-06
6.82903e-06
6.82883e-06
6.82864e-06
6.82844e-06
6.82825e-06
6.82806e-06
6.82787e-06
6.82768e-06
6.82749e-06
6.8273e-06
6.82711e-06
6.82692e-06
6.82673e-06
6.82654e-06
6.82636e-06
6.82617e-06
6.82599e-06
6.8258e-06
6.82562e-06
6.82544e-06
6.82526e-06
6.82508e-06
6.82489e-06
6.82472e-06
6.82454e-06
6.82436e-06
6.82419e-06
6.82404e-06
6.82395e-06
6.82405e-06
6.8247e-06
6.82696e-06
6.83378e-06
6.85254e-06
6.89596e-06
6.96577e-06
7.03525e-06
7.08457e-06
7.11645e-06
7.13798e-06
7.15329e-06
7.16425e-06
7.17208e-06
7.17765e-06
7.1817e-06
7.18476e-06
7.18714e-06
7.18906e-06
7.19064e-06
7.19196e-06
7.1931e-06
7.19408e-06
7.19495e-06
7.19571e-06
7.1964e-06
7.19701e-06
7.19757e-06
7.19807e-06
7.19853e-06
7.19895e-06
7.19934e-06
7.19969e-06
7.20002e-06
7.20032e-06
7.2006e-06
7.20085e-06
7.20109e-06
7.2013e-06
7.2015e-06
7.20167e-06
7.20183e-06
7.20197e-06
7.2021e-06
7.20223e-06
7.20234e-06
7.20244e-06
7.20253e-06
7.20262e-06
7.2027e-06
7.20277e-06
7.20284e-06
7.2029e-06
7.20296e-06
7.20302e-06
7.20308e-06
7.20313e-06
7.2032e-06
7.20326e-06
7.20333e-06
7.2034e-06
7.20349e-06
7.20358e-06
7.20369e-06
7.20381e-06
7.20395e-06
7.2041e-06
7.20428e-06
7.20448e-06
7.2047e-06
7.20496e-06
7.20524e-06
7.20556e-06
7.20591e-06
7.2063e-06
7.20672e-06
7.20719e-06
7.2077e-06
7.20826e-06
7.20886e-06
7.2095e-06
7.21019e-06
7.21092e-06
7.21169e-06
7.2125e-06
7.21335e-06
7.21422e-06
7.21511e-06
7.21602e-06
7.21694e-06
7.21785e-06
7.21874e-06
7.2196e-06
7.22042e-06
7.22117e-06
7.22184e-06
7.2224e-06
7.22284e-06
7.22312e-06
7.22323e-06
7.22313e-06
7.22281e-06
7.22222e-06
7.22134e-06
7.22015e-06
7.2186e-06
7.21668e-06
7.21436e-06
7.2116e-06
7.20838e-06
7.20468e-06
7.20048e-06
7.19576e-06
7.1905e-06
7.1847e-06
7.17835e-06
7.17144e-06
7.16398e-06
7.15597e-06
7.14743e-06
7.13838e-06
7.12884e-06
7.11883e-06
7.10839e-06
7.09755e-06
7.08635e-06
7.07484e-06
7.06306e-06
7.05107e-06
7.03891e-06
7.02665e-06
7.01432e-06
7.002e-06
6.98973e-06
6.97757e-06
6.96558e-06
6.95379e-06
6.94228e-06
6.93107e-06
6.92021e-06
6.90975e-06
6.89972e-06
6.89015e-06
6.88107e-06
6.87251e-06
6.86448e-06
6.85699e-06
6.85007e-06
6.84371e-06
6.83791e-06
6.83268e-06
6.828e-06
6.82387e-06
6.82027e-06
6.81719e-06
6.81461e-06
6.8125e-06
6.81084e-06
6.8096e-06
6.80877e-06
6.8083e-06
6.80817e-06
6.80835e-06
6.80882e-06
6.80953e-06
6.81047e-06
6.8116e-06
6.8129e-06
6.81434e-06
6.81589e-06
6.81754e-06
6.81926e-06
6.82102e-06
6.82281e-06
6.82462e-06
6.82643e-06
6.82822e-06
6.82998e-06
6.8317e-06
6.83338e-06
6.835e-06
6.83656e-06
6.83805e-06
6.83947e-06
6.84082e-06
6.84209e-06
6.84328e-06
6.8444e-06
6.84545e-06
6.84641e-06
6.84731e-06
6.84813e-06
6.84889e-06
6.84958e-06
6.85021e-06
6.85077e-06
6.85128e-06
6.85174e-06
6.85214e-06
6.8525e-06
6.85281e-06
6.85309e-06
6.85332e-06
6.85352e-06
6.85368e-06
6.85382e-06
6.85392e-06
6.85401e-06
6.85407e-06
6.8541e-06
6.85412e-06
6.85413e-06
6.85411e-06
6.85408e-06
6.85404e-06
6.85399e-06
6.85393e-06
6.85386e-06
6.85378e-06
6.8537e-06
6.85361e-06
6.85351e-06
6.85341e-06
6.8533e-06
6.85319e-06
6.85308e-06
6.85296e-06
)
;

boundaryField
{
    boundary
    {
        type            empty;
        value           nonuniform 0();
    }
    inlet
    {
        type            calculated;
        value           uniform -6.93041e-06;
    }
    outlet
    {
        type            calculated;
        value           uniform 6.85284e-06;
    }
}


// ************************************************************************* //
