/*--------------------------------*- C++ -*----------------------------------*\
  =========                 |
  \\      /  F ield         | OpenFOAM: The Open Source CFD Toolbox
   \\    /   O peration     | Website:  https://openfoam.org
    \\  /    A nd           | Version:  7
     \\/     M anipulation  |
\*---------------------------------------------------------------------------*/
FoamFile
{
    version     2.0;
    format      ascii;
    class       volScalarField;
    location    "0.00028";
    object      Qdot;
}
// * * * * * * * * * * * * * * * * * * * * * * * * * * * * * * * * * * * * * //

dimensions      [1 -1 -3 0 0 0 0];

internalField   nonuniform List<scalar> 
500
(
-2.45416e-27
-1.86765e-27
-1.74466e-27
-1.72262e-27
-1.72358e-27
-1.73101e-27
-1.74171e-27
-1.7554e-27
-1.77249e-27
-1.79351e-27
-1.81895e-27
-1.84922e-27
-1.88457e-27
-1.92502e-27
-1.97038e-27
-2.02018e-27
-2.07368e-27
-2.12992e-27
-2.18772e-27
-2.24576e-27
-2.30268e-27
-2.3572e-27
-2.40815e-27
-2.45464e-27
-2.49604e-27
-2.53205e-27
-2.56263e-27
-2.58801e-27
-2.60862e-27
-2.62498e-27
-2.6377e-27
-2.64739e-27
-2.65463e-27
-2.65993e-27
-2.66374e-27
-2.66642e-27
-2.66829e-27
-2.66956e-27
-2.67042e-27
-2.67098e-27
-2.67135e-27
-2.67159e-27
-2.67174e-27
-2.67183e-27
-2.67189e-27
-2.67193e-27
-2.67196e-27
-2.67198e-27
-2.67199e-27
-2.672e-27
-2.67201e-27
-2.67202e-27
-2.67204e-27
-2.67205e-27
-2.67206e-27
-2.67207e-27
-2.67208e-27
-2.6721e-27
-2.67211e-27
-2.67213e-27
-2.67215e-27
-2.67216e-27
-2.67218e-27
-2.6722e-27
-2.67222e-27
-2.67225e-27
-2.67227e-27
-2.67229e-27
-2.67232e-27
-2.67235e-27
-2.67238e-27
-2.67241e-27
-2.67244e-27
-2.67247e-27
-2.67251e-27
-2.67254e-27
-2.67258e-27
-2.67262e-27
-2.67267e-27
-2.67271e-27
-2.67276e-27
-2.6728e-27
-2.67285e-27
-2.67291e-27
-2.67296e-27
-2.67302e-27
-2.67308e-27
-2.67314e-27
-2.6732e-27
-2.67327e-27
-2.67334e-27
-2.67341e-27
-2.67348e-27
-2.67356e-27
-2.67364e-27
-2.67372e-27
-2.6738e-27
-2.67389e-27
-2.67398e-27
-2.67408e-27
-2.67417e-27
-2.67427e-27
-2.67437e-27
-2.67448e-27
-2.67459e-27
-2.6747e-27
-2.67481e-27
-2.67493e-27
-2.67505e-27
-2.67517e-27
-2.6753e-27
-2.67543e-27
-2.67556e-27
-2.6757e-27
-2.67584e-27
-2.67598e-27
-2.67613e-27
-2.67627e-27
-2.67643e-27
-2.67658e-27
-2.67674e-27
-2.6769e-27
-2.67706e-27
-2.67722e-27
-2.67739e-27
-2.67755e-27
-2.6777e-27
-2.67786e-27
-2.67803e-27
-2.6782e-27
-2.67836e-27
-2.67852e-27
-2.67868e-27
-2.67884e-27
-2.679e-27
-2.67916e-27
-2.67933e-27
-2.67949e-27
-2.67967e-27
-2.67985e-27
-2.68004e-27
-2.68024e-27
-2.68044e-27
-2.68065e-27
-2.68087e-27
-2.68109e-27
-2.68131e-27
-2.68152e-27
-2.68174e-27
-2.68196e-27
-2.68216e-27
-2.68237e-27
-2.68256e-27
-2.68275e-27
-2.68293e-27
-2.68311e-27
-2.68327e-27
-2.68343e-27
-2.68359e-27
-2.68373e-27
-2.68387e-27
-2.68399e-27
-2.68411e-27
-2.68422e-27
-2.68432e-27
-2.68441e-27
-2.68449e-27
-2.68456e-27
-2.68461e-27
-2.68466e-27
-2.68468e-27
-2.6847e-27
-2.6847e-27
-2.68468e-27
-2.68465e-27
-2.6846e-27
-2.68453e-27
-2.68444e-27
-2.68433e-27
-2.6842e-27
-2.68405e-27
-2.68387e-27
-2.68368e-27
-2.68346e-27
-2.68321e-27
-2.68294e-27
-2.68263e-27
-2.68231e-27
-2.68195e-27
-2.68156e-27
-2.68114e-27
-2.68069e-27
-2.68021e-27
-2.67969e-27
-2.67914e-27
-2.67855e-27
-2.67793e-27
-2.67727e-27
-2.67657e-27
-2.67583e-27
-2.67505e-27
-2.67423e-27
-2.67338e-27
-2.67247e-27
-2.67153e-27
-2.67055e-27
-2.66952e-27
-2.66844e-27
-2.66732e-27
-2.66616e-27
-2.66495e-27
-2.6637e-27
-2.6624e-27
-2.66106e-27
-2.65967e-27
-2.65823e-27
-2.65675e-27
-2.65522e-27
-2.65364e-27
-2.65201e-27
-2.65029e-27
-2.64822e-27
-2.6445e-27
-2.63195e-27
-2.57221e-27
-2.26192e-27
-6.36565e-28
7.81067e-27
5.12229e-26
2.71671e-25
1.37748e-24
6.85603e-24
3.366e-23
1.63149e-22
7.80773e-22
3.68907e-21
1.72085e-20
7.92489e-20
3.60314e-19
1.61749e-18
7.17027e-18
3.13955e-17
1.35827e-16
5.80902e-16
2.45753e-15
1.02931e-14
4.27301e-14
1.76063e-13
7.21277e-13
2.94399e-12
1.20009e-11
4.90425e-11
2.0109e-10
8.30099e-10
3.45827e-09
1.45661e-08
6.20885e-08
2.67873e-07
1.1691e-06
5.15591e-06
2.29447e-05
0.000102898
0.000464415
0.00210756
0.00961129
0.044045
0.202942
0.941477
4.40849
20.9194
107.803
609.925
4204.17
31733.1
267769
2.48414e+06
2.37291e+07
2.1385e+08
1.48931e+09
5.78296e+09
1.12832e+10
1.35828e+10
1.38836e+10
1.3916e+10
1.3675e+10
1.26759e+10
1.0903e+10
8.88312e+09
7.21307e+09
5.95947e+09
5.00003e+09
4.26912e+09
3.70453e+09
3.25997e+09
2.90286e+09
2.61051e+09
2.3671e+09
2.16143e+09
1.98543e+09
1.83317e+09
1.70022e+09
1.58318e+09
1.47941e+09
1.38684e+09
1.3038e+09
1.22895e+09
1.16117e+09
1.09956e+09
1.04334e+09
9.91889e+08
9.44675e+08
9.01317e+08
8.62449e+08
8.27003e+08
7.93786e+08
7.62696e+08
7.33538e+08
7.06137e+08
6.80344e+08
6.56035e+08
6.3308e+08
6.11382e+08
5.90847e+08
5.71387e+08
5.52924e+08
5.35389e+08
5.18717e+08
5.02849e+08
4.87732e+08
4.73315e+08
4.59554e+08
4.46409e+08
4.33839e+08
4.2181e+08
4.10289e+08
3.99247e+08
3.88655e+08
3.78488e+08
3.6872e+08
3.59331e+08
3.50299e+08
3.41603e+08
3.33227e+08
3.25153e+08
3.17364e+08
3.09846e+08
3.02583e+08
2.95564e+08
2.88773e+08
2.82201e+08
2.75834e+08
2.69663e+08
2.63676e+08
2.57863e+08
2.52215e+08
2.46723e+08
2.41378e+08
2.36172e+08
2.31095e+08
2.26142e+08
2.21303e+08
2.16573e+08
2.11943e+08
2.07408e+08
2.02961e+08
1.98597e+08
1.9431e+08
1.90093e+08
1.85944e+08
1.81856e+08
1.77826e+08
1.73851e+08
1.69929e+08
1.66063e+08
1.62264e+08
1.58613e+08
1.54659e+08
1.50841e+08
1.47083e+08
1.43372e+08
1.397e+08
1.3606e+08
1.32451e+08
1.28872e+08
1.25322e+08
1.21802e+08
1.18312e+08
1.14854e+08
1.1143e+08
1.0804e+08
1.04686e+08
1.01369e+08
9.80919e+07
9.48558e+07
9.16632e+07
8.85146e+07
8.54123e+07
8.23582e+07
7.93536e+07
7.64002e+07
7.34992e+07
7.0652e+07
6.78599e+07
6.5124e+07
6.24454e+07
5.98251e+07
5.7264e+07
5.47631e+07
5.23231e+07
4.99448e+07
4.7629e+07
4.53762e+07
4.31872e+07
4.10624e+07
3.90024e+07
3.70075e+07
3.50781e+07
3.32143e+07
3.14163e+07
2.9684e+07
2.80172e+07
2.64155e+07
2.48782e+07
2.34078e+07
2.19983e+07
2.06519e+07
1.93639e+07
1.81395e+07
1.69734e+07
1.58645e+07
1.48119e+07
1.38131e+07
1.28666e+07
1.19709e+07
1.1124e+07
1.03242e+07
9.56943e+06
8.85801e+06
8.18761e+06
7.55737e+06
6.96484e+06
6.4083e+06
5.88605e+06
5.39644e+06
4.93783e+06
4.50865e+06
4.10757e+06
3.73285e+06
3.38327e+06
3.05723e+06
2.75373e+06
2.47153e+06
2.20931e+06
1.96617e+06
1.74065e+06
1.53189e+06
1.33893e+06
1.16081e+06
996489
845374
706417
578899
462102
354926
257289
168227
87132.6
13419.1
-53459.4
-114036
-168277
-217080
-262587
-302642
-338460
-370553
-399267
-424957
-446590
-468137
-486119
-502182
-516210
-528858
-539953
-549751
-558389
-565982
-572682
-578678
-584048
-588604
-592675
-596289
-599915
-603413
-606453
-609560
-612372
-614502
)
;

boundaryField
{
    boundary
    {
        type            empty;
    }
    inlet
    {
        type            calculated;
        value           uniform 0;
    }
    outlet
    {
        type            calculated;
        value           uniform 0;
    }
}


// ************************************************************************* //
