/*--------------------------------*- C++ -*----------------------------------*\
  =========                 |
  \\      /  F ield         | OpenFOAM: The Open Source CFD Toolbox
   \\    /   O peration     | Website:  https://openfoam.org
    \\  /    A nd           | Version:  7
     \\/     M anipulation  |
\*---------------------------------------------------------------------------*/
FoamFile
{
    version     2.0;
    format      ascii;
    class       volScalarField;
    location    "0.00028";
    object      rho;
}
// * * * * * * * * * * * * * * * * * * * * * * * * * * * * * * * * * * * * * //

dimensions      [1 -3 0 0 0 0 0];

internalField   nonuniform List<scalar> 
500
(
0.864696
0.864677
0.864653
0.864623
0.864585
0.864536
0.864476
0.864401
0.864308
0.864196
0.864062
0.863904
0.863724
0.863522
0.863301
0.863063
0.862814
0.862559
0.862303
0.862053
0.861813
0.861589
0.861383
0.861199
0.861037
0.860898
0.860781
0.860685
0.860607
0.860545
0.860497
0.860461
0.860433
0.860413
0.860399
0.860388
0.860381
0.860376
0.860373
0.860371
0.860369
0.860368
0.860368
0.860368
0.860367
0.860367
0.860367
0.860367
0.860367
0.860367
0.860367
0.860367
0.860367
0.860367
0.860367
0.860367
0.860367
0.860367
0.860366
0.860366
0.860366
0.860366
0.860366
0.860366
0.860366
0.860366
0.860366
0.860366
0.860366
0.860366
0.860366
0.860365
0.860365
0.860365
0.860365
0.860365
0.860365
0.860365
0.860365
0.860364
0.860364
0.860364
0.860364
0.860364
0.860364
0.860363
0.860363
0.860363
0.860363
0.860362
0.860362
0.860362
0.860362
0.860361
0.860361
0.860361
0.860361
0.86036
0.86036
0.86036
0.860359
0.860359
0.860359
0.860358
0.860358
0.860357
0.860357
0.860357
0.860356
0.860356
0.860355
0.860355
0.860354
0.860354
0.860354
0.860353
0.860353
0.860352
0.860351
0.860351
0.86035
0.86035
0.860349
0.860349
0.860348
0.860348
0.860347
0.860346
0.860346
0.860345
0.860345
0.860344
0.860344
0.860343
0.860343
0.860342
0.860341
0.860341
0.86034
0.86034
0.860339
0.860338
0.860338
0.860337
0.860336
0.860335
0.860335
0.860334
0.860333
0.860332
0.860332
0.860331
0.86033
0.86033
0.860329
0.860328
0.860328
0.860327
0.860327
0.860326
0.860326
0.860325
0.860325
0.860325
0.860324
0.860324
0.860324
0.860323
0.860323
0.860323
0.860323
0.860323
0.860323
0.860323
0.860323
0.860324
0.860324
0.860324
0.860325
0.860325
0.860326
0.860326
0.860327
0.860328
0.860329
0.86033
0.860331
0.860332
0.860333
0.860335
0.860336
0.860338
0.86034
0.860342
0.860344
0.860346
0.860348
0.860351
0.860353
0.860356
0.860359
0.860362
0.860365
0.860368
0.860371
0.860375
0.860379
0.860383
0.860387
0.860391
0.860395
0.8604
0.860404
0.860409
0.860414
0.86042
0.860425
0.860431
0.860436
0.860442
0.860448
0.860454
0.860461
0.860467
0.860474
0.860481
0.860488
0.860495
0.860502
0.86051
0.860517
0.860525
0.860533
0.860541
0.860549
0.860557
0.860566
0.860574
0.860582
0.860591
0.8606
0.860609
0.860617
0.860626
0.860635
0.860644
0.860654
0.860663
0.860672
0.860681
0.860691
0.8607
0.86071
0.860719
0.860729
0.860739
0.860748
0.860758
0.860768
0.860778
0.860788
0.860798
0.860809
0.860819
0.86083
0.860841
0.860852
0.860863
0.860874
0.860881
0.860872
0.860803
0.860543
0.85969
0.85705
0.84918
0.826845
0.770356
0.661419
0.525152
0.412406
0.337253
0.287971
0.25384
0.229529
0.212525
0.199954
0.190286
0.183349
0.178234
0.174133
0.170773
0.167957
0.165553
0.163468
0.161638
0.160013
0.158559
0.157247
0.156055
0.154966
0.153967
0.153045
0.152192
0.151399
0.150659
0.149968
0.14932
0.14871
0.148136
0.147595
0.147084
0.146615
0.146176
0.145756
0.145352
0.144965
0.144594
0.144236
0.143892
0.14356
0.14324
0.142931
0.142632
0.142344
0.142065
0.141795
0.141533
0.141279
0.141033
0.140795
0.140563
0.140338
0.14012
0.139908
0.139702
0.139502
0.139307
0.139118
0.138934
0.138755
0.138582
0.138413
0.138248
0.138089
0.137934
0.137783
0.137636
0.137494
0.137356
0.137222
0.137092
0.136966
0.136843
0.136724
0.136608
0.136495
0.136386
0.136279
0.136175
0.136074
0.135975
0.135877
0.135781
0.135687
0.135593
0.1355
0.135406
0.135313
0.135218
0.135122
0.135024
0.134923
0.134819
0.134711
0.134598
0.134484
0.134365
0.13424
0.134109
0.133972
0.133828
0.133677
0.133518
0.133352
0.133178
0.132995
0.132805
0.132606
0.1324
0.132186
0.131965
0.131737
0.131502
0.131262
0.131016
0.130766
0.130512
0.130255
0.129997
0.129737
0.129477
0.129218
0.12896
0.128705
0.128454
0.128208
0.127966
0.127732
0.127504
0.127284
0.127072
0.126869
0.126676
0.126493
0.12632
0.126158
0.126006
0.125865
0.125736
0.125617
0.125509
0.125412
0.125325
0.125248
0.125182
0.125124
0.125076
0.125036
0.125004
0.12498
0.124962
0.124951
0.124946
0.124947
0.124952
0.124962
0.124975
0.124992
0.125011
0.125033
0.125057
0.125082
0.125108
0.125136
0.125164
0.125192
0.12522
0.125247
0.125275
0.125302
0.125328
0.125353
0.125377
0.1254
0.125422
0.125443
0.125463
0.125482
0.125499
0.125516
0.125531
0.125545
0.125558
0.12557
0.125581
0.125591
0.125601
0.125609
0.125617
0.125624
0.12563
0.125636
0.125641
0.125645
0.125649
0.125653
0.125656
0.125658
0.125661
0.125663
0.125665
0.125666
0.125667
0.125668
0.125669
0.12567
0.12567
0.125671
0.125671
0.125671
0.125672
0.125672
0.125672
0.125671
0.125671
0.125671
0.125671
0.125671
0.125671
)
;

boundaryField
{
    boundary
    {
        type            empty;
    }
    inlet
    {
        type            calculated;
        value           uniform 0.864708;
    }
    outlet
    {
        type            calculated;
        value           uniform 0.125671;
    }
}


// ************************************************************************* //
