/*--------------------------------*- C++ -*----------------------------------*\
  =========                 |
  \\      /  F ield         | OpenFOAM: The Open Source CFD Toolbox
   \\    /   O peration     | Website:  https://openfoam.org
    \\  /    A nd           | Version:  7
     \\/     M anipulation  |
\*---------------------------------------------------------------------------*/
FoamFile
{
    version     2.0;
    format      ascii;
    class       volScalarField;
    location    "0.00028";
    object      T;
}
// * * * * * * * * * * * * * * * * * * * * * * * * * * * * * * * * * * * * * //

dimensions      [0 0 0 1 0 0 0];

internalField   nonuniform List<scalar> 
500
(
300.004
300.011
300.019
300.029
300.043
300.059
300.08
300.106
300.139
300.178
300.224
300.279
300.342
300.412
300.489
300.572
300.658
300.747
300.836
300.924
301.007
301.086
301.158
301.222
301.279
301.328
301.368
301.402
301.43
301.451
301.468
301.481
301.49
301.497
301.502
301.506
301.509
301.51
301.511
301.512
301.513
301.513
301.513
301.513
301.513
301.514
301.514
301.514
301.514
301.514
301.514
301.514
301.514
301.514
301.514
301.514
301.514
301.514
301.514
301.514
301.514
301.514
301.514
301.514
301.514
301.514
301.514
301.514
301.514
301.514
301.514
301.514
301.514
301.514
301.514
301.514
301.514
301.514
301.514
301.514
301.515
301.515
301.515
301.515
301.515
301.515
301.515
301.515
301.515
301.515
301.515
301.515
301.515
301.516
301.516
301.516
301.516
301.516
301.516
301.516
301.516
301.516
301.517
301.517
301.517
301.517
301.517
301.517
301.517
301.518
301.518
301.518
301.518
301.518
301.518
301.519
301.519
301.519
301.519
301.519
301.52
301.52
301.52
301.52
301.52
301.521
301.521
301.521
301.521
301.521
301.522
301.522
301.522
301.522
301.522
301.523
301.523
301.523
301.523
301.523
301.524
301.524
301.524
301.524
301.525
301.525
301.525
301.526
301.526
301.526
301.526
301.527
301.527
301.527
301.527
301.528
301.528
301.528
301.528
301.528
301.529
301.529
301.529
301.529
301.529
301.529
301.529
301.529
301.529
301.53
301.53
301.53
301.53
301.53
301.529
301.529
301.529
301.529
301.529
301.529
301.529
301.529
301.528
301.528
301.528
301.527
301.527
301.527
301.526
301.526
301.525
301.525
301.524
301.523
301.523
301.522
301.521
301.52
301.519
301.518
301.518
301.516
301.515
301.514
301.513
301.512
301.511
301.509
301.508
301.506
301.505
301.503
301.502
301.5
301.498
301.496
301.494
301.493
301.491
301.488
301.486
301.484
301.482
301.48
301.477
301.475
301.473
301.47
301.468
301.465
301.462
301.46
301.457
301.454
301.451
301.448
301.446
301.443
301.44
301.437
301.434
301.431
301.427
301.424
301.421
301.418
301.415
301.412
301.408
301.405
301.402
301.399
301.395
301.392
301.389
301.385
301.382
301.378
301.375
301.371
301.368
301.364
301.361
301.357
301.354
301.35
301.347
301.344
301.342
301.344
301.356
301.4
301.531
301.914
303.019
306.19
315.204
339.822
398.718
507.322
653.684
809.112
958.559
1098.3
1224.01
1329.37
1418.94
1494.77
1555.09
1603.11
1644
1679.26
1710.14
1737.53
1762.07
1784.28
1804.51
1823.05
1840.15
1855.99
1870.73
1884.48
1897.36
1909.47
1920.87
1931.63
1941.82
1951.48
1960.66
1969.39
1977.71
1985.63
1992.97
1999.88
2006.55
2012.99
2019.22
2025.24
2031.06
2036.71
2042.17
2047.47
2052.62
2057.61
2062.46
2067.18
2071.76
2076.22
2080.55
2084.77
2088.87
2092.87
2096.76
2100.55
2104.23
2107.83
2111.32
2114.73
2118.04
2121.27
2124.41
2127.47
2130.44
2133.33
2136.14
2138.87
2141.52
2144.09
2146.59
2149.01
2151.35
2153.63
2155.83
2157.97
2160.03
2162.03
2163.97
2165.85
2167.67
2169.43
2171.15
2172.82
2174.45
2176.04
2177.61
2179.15
2180.67
2182.19
2183.71
2185.23
2186.77
2188.34
2189.95
2191.6
2193.32
2195.11
2196.95
2198.88
2200.9
2203.03
2205.28
2207.64
2210.15
2212.79
2215.57
2218.51
2221.6
2224.85
2228.26
2231.82
2235.55
2239.43
2243.46
2247.64
2251.95
2256.39
2260.94
2265.61
2270.36
2275.19
2280.09
2285.04
2290.01
2295
2299.99
2304.96
2309.89
2314.77
2319.57
2324.3
2328.92
2333.42
2337.8
2342.03
2346.12
2350.05
2353.8
2357.39
2360.79
2364.01
2367.04
2369.89
2372.55
2375.02
2377.31
2379.43
2381.37
2383.14
2384.75
2386.21
2387.52
2388.69
2389.74
2390.66
2391.47
2392.17
2392.78
2393.3
2393.74
2394.11
2394.42
2394.67
2394.87
2395.02
2395.14
2395.23
2395.28
2395.32
2395.33
2395.33
2395.32
2395.3
2395.27
2395.24
2395.2
2395.16
2395.12
2395.08
2395.04
2395
2394.96
2394.93
2394.9
2394.87
2394.85
2394.82
2394.8
2394.79
2394.77
2394.76
2394.75
2394.75
2394.74
2394.74
2394.74
2394.74
2394.74
2394.74
2394.74
2394.75
2394.75
2394.76
2394.76
2394.77
2394.77
2394.78
2394.79
2394.8
2394.8
2394.81
2394.82
2394.83
2394.84
2394.84
2394.85
2394.86
2394.87
2394.87
2394.88
2394.89
)
;

boundaryField
{
    boundary
    {
        type            empty;
    }
    inlet
    {
        type            fixedValue;
        value           uniform 300;
    }
    outlet
    {
        type            zeroGradient;
    }
}


// ************************************************************************* //
