/*--------------------------------*- C++ -*----------------------------------*\
  =========                 |
  \\      /  F ield         | OpenFOAM: The Open Source CFD Toolbox
   \\    /   O peration     | Website:  https://openfoam.org
    \\  /    A nd           | Version:  7
     \\/     M anipulation  |
\*---------------------------------------------------------------------------*/
FoamFile
{
    version     2.0;
    format      ascii;
    class       volScalarField;
    location    "0.00069";
    object      HO2;
}
// * * * * * * * * * * * * * * * * * * * * * * * * * * * * * * * * * * * * * //

dimensions      [0 0 0 0 0 0 0];

internalField   nonuniform List<scalar> 
125
(
3.64341e-19
1.53839e-18
6.48803e-18
2.73623e-17
1.15392e-16
4.86502e-16
2.05003e-15
8.63172e-15
3.63078e-14
1.52539e-13
6.39986e-13
2.68107e-12
1.1214e-11
4.6829e-11
1.95248e-10
8.12861e-10
3.37965e-09
1.40354e-08
5.82135e-08
2.40934e-07
9.91797e-07
4.02937e-06
1.59093e-05
5.87556e-05
0.000185929
0.000414277
0.000521087
0.0004651
0.000354517
0.000252715
0.000177337
0.000124112
8.68101e-05
6.148e-05
4.28919e-05
3.20576e-05
2.51176e-05
2.05925e-05
1.75497e-05
1.54209e-05
1.38661e-05
1.26819e-05
1.17453e-05
1.09802e-05
1.03386e-05
9.78915e-06
9.3107e-06
8.88853e-06
8.51204e-06
8.17338e-06
7.86656e-06
7.58691e-06
7.33072e-06
7.09496e-06
6.87717e-06
6.67529e-06
6.4876e-06
6.31264e-06
6.14917e-06
5.99619e-06
5.85287e-06
5.72256e-06
5.6013e-06
5.4861e-06
5.37653e-06
5.27219e-06
5.17272e-06
5.07779e-06
4.98711e-06
4.90041e-06
4.81743e-06
4.73795e-06
4.66175e-06
4.58865e-06
4.51846e-06
4.45101e-06
4.38615e-06
4.32374e-06
4.26365e-06
4.20574e-06
4.1499e-06
4.09603e-06
4.04403e-06
3.9938e-06
3.94526e-06
3.89832e-06
3.85291e-06
3.80895e-06
3.76638e-06
3.72514e-06
3.68517e-06
3.6464e-06
3.6088e-06
3.57231e-06
3.53688e-06
3.50247e-06
3.46903e-06
3.43654e-06
3.40495e-06
3.37422e-06
3.34433e-06
3.31523e-06
3.28691e-06
3.25933e-06
3.23246e-06
3.20628e-06
3.18077e-06
3.1559e-06
3.13164e-06
3.10798e-06
3.0849e-06
3.06238e-06
3.04039e-06
3.01892e-06
2.99796e-06
2.97748e-06
2.95748e-06
2.93793e-06
2.91882e-06
2.90015e-06
2.88189e-06
2.86404e-06
2.84658e-06
2.82951e-06
2.81281e-06
)
;

boundaryField
{
    boundary
    {
        type            empty;
    }
    inlet
    {
        type            fixedValue;
        value           nonuniform 0();
    }
    outlet
    {
        type            zeroGradient;
    }
    procBoundary1to0
    {
        type            processor;
        value           uniform 2.79647e-06;
    }
    procBoundary1to3
    {
        type            processor;
        value           uniform 8.612e-20;
    }
}


// ************************************************************************* //
