/*--------------------------------*- C++ -*----------------------------------*\
  =========                 |
  \\      /  F ield         | OpenFOAM: The Open Source CFD Toolbox
   \\    /   O peration     | Website:  https://openfoam.org
    \\  /    A nd           | Version:  7
     \\/     M anipulation  |
\*---------------------------------------------------------------------------*/
FoamFile
{
    version     2.0;
    format      ascii;
    class       volScalarField;
    location    "0.00069";
    object      Qdot;
}
// * * * * * * * * * * * * * * * * * * * * * * * * * * * * * * * * * * * * * //

dimensions      [1 -1 -3 0 0 0 0];

internalField   nonuniform List<scalar> 
125
(
1.15595e-09
4.09173e-09
1.49892e-08
5.69887e-08
2.24658e-07
9.14994e-07
3.83057e-06
1.63936e-05
7.1364e-05
0.00031464
0.00140084
0.00628484
0.0283831
0.129014
0.590783
2.73131
12.7958
63.4949
344.963
2209.77
16197.1
130967
1.18469e+06
1.12714e+07
1.04719e+08
8.21604e+08
3.97248e+09
9.68272e+09
1.31677e+10
1.38607e+10
1.39131e+10
1.38282e+10
1.31001e+10
1.14993e+10
9.50309e+09
7.74471e+09
6.37152e+09
5.31556e+09
4.51239e+09
3.89529e+09
3.4126e+09
3.02749e+09
2.71421e+09
2.45481e+09
2.2367e+09
2.05081e+09
1.89056e+09
1.75105e+09
1.62853e+09
1.52015e+09
1.42364e+09
1.33719e+09
1.25936e+09
1.18897e+09
1.12503e+09
1.06674e+09
1.0134e+09
9.64453e+08
9.19408e+08
8.77866e+08
8.39538e+08
8.05032e+08
7.73432e+08
7.43705e+08
7.15799e+08
6.89535e+08
6.64783e+08
6.41412e+08
6.19322e+08
5.98415e+08
5.78604e+08
5.5981e+08
5.4196e+08
5.24992e+08
5.08844e+08
4.93462e+08
4.78795e+08
4.64798e+08
4.51429e+08
4.38649e+08
4.26421e+08
4.14715e+08
4.03497e+08
3.92741e+08
3.82421e+08
3.72511e+08
3.6299e+08
3.53836e+08
3.45031e+08
3.36555e+08
3.28392e+08
3.20525e+08
3.12941e+08
3.05625e+08
2.98564e+08
2.91746e+08
2.85159e+08
2.78793e+08
2.72638e+08
2.66683e+08
2.6092e+08
2.55341e+08
2.49937e+08
2.44701e+08
2.39625e+08
2.34704e+08
2.2993e+08
2.25297e+08
2.20801e+08
2.16434e+08
2.12192e+08
2.08071e+08
2.04066e+08
2.00171e+08
1.96384e+08
1.92699e+08
1.89114e+08
1.85624e+08
1.82226e+08
1.78917e+08
1.75694e+08
1.72554e+08
1.69495e+08
1.66517e+08
1.63619e+08
)
;

boundaryField
{
    boundary
    {
        type            empty;
    }
    inlet
    {
        type            calculated;
        value           nonuniform 0();
    }
    outlet
    {
        type            calculated;
        value           nonuniform 0();
    }
    procBoundary1to0
    {
        type            processor;
        value           uniform 0;
    }
    procBoundary1to3
    {
        type            processor;
        value           uniform 0;
    }
}


// ************************************************************************* //
