/*--------------------------------*- C++ -*----------------------------------*\
  =========                 |
  \\      /  F ield         | OpenFOAM: The Open Source CFD Toolbox
   \\    /   O peration     | Website:  https://openfoam.org
    \\  /    A nd           | Version:  7
     \\/     M anipulation  |
\*---------------------------------------------------------------------------*/
FoamFile
{
    version     2.0;
    format      ascii;
    class       volScalarField;
    location    "0.00061";
    object      T;
}
// * * * * * * * * * * * * * * * * * * * * * * * * * * * * * * * * * * * * * //

dimensions      [0 0 0 1 0 0 0];

internalField   nonuniform List<scalar> 
124
(
2212.93
2214.66
2216.36
2218.04
2219.7
2221.34
2222.96
2224.55
2226.13
2227.68
2229.22
2230.74
2232.24
2233.72
2235.18
2236.62
2238.05
2239.45
2240.85
2242.22
2243.58
2244.93
2246.25
2247.57
2248.86
2250.15
2251.42
2252.67
2253.91
2255.14
2256.36
2257.56
2258.75
2259.93
2261.09
2262.24
2263.38
2264.51
2265.63
2266.74
2267.83
2268.91
2269.99
2271.05
2272.1
2273.14
2274.17
2275.19
2276.2
2277.19
2278.18
2279.15
2280.12
2281.07
2282.01
2282.94
2283.86
2284.77
2285.66
2286.54
2287.41
2288.26
2289.1
2289.93
2290.74
2291.51
2292.36
2293.14
2294.11
2294.85
2295.58
2296.29
2296.98
2297.66
2298.32
2298.96
2299.58
2300.18
2300.77
2301.34
2301.89
2302.42
2302.93
2303.43
2303.91
2304.38
2304.84
2305.28
2305.71
2306.13
2306.55
2306.96
2307.37
2307.78
2308.19
2308.61
2309.05
2309.49
2309.95
2310.44
2310.95
2311.49
2312.07
2312.68
2313.34
2314.04
2314.8
2315.61
2316.48
2317.42
2318.42
2319.49
2320.63
2321.85
2323.14
2324.51
2325.95
2327.47
2329.05
2330.68
2332.33
2333.94
2335.38
2336.37
)
;

boundaryField
{
    boundary
    {
        type            empty;
    }
    inlet
    {
        type            fixedValue;
        value           nonuniform 0();
    }
    outlet
    {
        type            zeroGradient;
    }
    procBoundary0to1
    {
        type            processor;
        value           uniform 2211.18;
    }
}


// ************************************************************************* //
