/*--------------------------------*- C++ -*----------------------------------*\
  =========                 |
  \\      /  F ield         | OpenFOAM: The Open Source CFD Toolbox
   \\    /   O peration     | Website:  https://openfoam.org
    \\  /    A nd           | Version:  7
     \\/     M anipulation  |
\*---------------------------------------------------------------------------*/
FoamFile
{
    version     2.0;
    format      ascii;
    class       volScalarField;
    location    "0.00077";
    object      HO2;
}
// * * * * * * * * * * * * * * * * * * * * * * * * * * * * * * * * * * * * * //

dimensions      [0 0 0 0 0 0 0];

internalField   nonuniform List<scalar> 
126
(
6.14484e-36
6.14502e-36
6.1452e-36
6.14539e-36
6.14559e-36
6.1458e-36
6.14601e-36
6.14622e-36
6.14643e-36
6.14664e-36
6.14685e-36
6.14707e-36
6.14728e-36
6.14751e-36
6.14775e-36
6.14802e-36
6.14831e-36
6.14865e-36
6.14903e-36
6.14947e-36
6.14997e-36
6.15054e-36
6.15117e-36
6.15187e-36
6.15263e-36
6.15345e-36
6.1543e-36
6.15519e-36
6.15608e-36
6.15697e-36
6.15784e-36
6.15867e-36
6.15944e-36
6.16015e-36
6.16079e-36
6.16134e-36
6.16182e-36
6.16222e-36
6.16256e-36
6.16285e-36
6.1631e-36
6.16333e-36
6.16355e-36
6.16378e-36
6.16404e-36
6.16434e-36
6.16469e-36
6.16509e-36
6.16556e-36
6.16608e-36
6.16667e-36
6.16732e-36
6.16802e-36
6.16875e-36
6.16953e-36
6.17033e-36
6.17114e-36
6.17195e-36
6.17277e-36
6.17356e-36
6.17434e-36
6.1751e-36
6.17582e-36
6.1765e-36
6.17715e-36
6.17775e-36
6.17832e-36
6.17884e-36
6.17932e-36
6.17975e-36
6.18015e-36
6.1805e-36
6.18082e-36
6.1811e-36
6.18134e-36
6.18154e-36
6.1817e-36
6.18183e-36
6.18193e-36
6.18198e-36
6.182e-36
6.18198e-36
6.18192e-36
6.18183e-36
6.1817e-36
6.18154e-36
6.18138e-36
6.18134e-36
6.18179e-36
6.18399e-36
6.19216e-36
6.22019e-36
6.3138e-36
6.62275e-36
7.63521e-36
1.09361e-35
2.1651e-35
5.62972e-35
1.67935e-34
5.26561e-34
1.67568e-33
5.35061e-33
1.70895e-32
5.45793e-32
1.74426e-31
5.58509e-31
1.79478e-30
5.80056e-30
1.89016e-29
6.22828e-29
2.08193e-28
7.0828e-28
2.45967e-27
8.73936e-27
3.18093e-26
1.18605e-25
4.52471e-25
1.76222e-24
6.98693e-24
2.81155e-23
1.14488e-22
4.70514e-22
1.94716e-21
8.09902e-21
3.38079e-20
1.41464e-19
)
;

boundaryField
{
    boundary
    {
        type            empty;
    }
    inlet
    {
        type            fixedValue;
        value           nonuniform 0();
    }
    outlet
    {
        type            zeroGradient;
    }
    procBoundary3to1
    {
        type            processor;
        value           uniform 5.96437e-19;
    }
    procBoundary3to2
    {
        type            processor;
        value           uniform 6.15283e-36;
    }
}


// ************************************************************************* //
