/*--------------------------------*- C++ -*----------------------------------*\
  =========                 |
  \\      /  F ield         | OpenFOAM: The Open Source CFD Toolbox
   \\    /   O peration     | Website:  https://openfoam.org
    \\  /    A nd           | Version:  7
     \\/     M anipulation  |
\*---------------------------------------------------------------------------*/
FoamFile
{
    version     2.0;
    format      ascii;
    class       volScalarField;
    location    "0.00077";
    object      OH;
}
// * * * * * * * * * * * * * * * * * * * * * * * * * * * * * * * * * * * * * //

dimensions      [0 0 0 0 0 0 0];

internalField   nonuniform List<scalar> 
126
(
6.81031e-47
6.81073e-47
6.81118e-47
6.81166e-47
6.81215e-47
6.81265e-47
6.81313e-47
6.81359e-47
6.81402e-47
6.81441e-47
6.81476e-47
6.81507e-47
6.81533e-47
6.81556e-47
6.81577e-47
6.81596e-47
6.81615e-47
6.81635e-47
6.81657e-47
6.81681e-47
6.81709e-47
6.8174e-47
6.81775e-47
6.81814e-47
6.81856e-47
6.81901e-47
6.81948e-47
6.81997e-47
6.82048e-47
6.821e-47
6.82152e-47
6.82205e-47
6.82258e-47
6.82311e-47
6.82364e-47
6.82417e-47
6.8247e-47
6.82523e-47
6.82576e-47
6.82629e-47
6.82682e-47
6.82735e-47
6.82789e-47
6.82843e-47
6.82898e-47
6.82954e-47
6.8301e-47
6.83066e-47
6.83124e-47
6.83181e-47
6.8324e-47
6.83299e-47
6.83358e-47
6.83418e-47
6.83477e-47
6.83537e-47
6.83597e-47
6.83656e-47
6.83715e-47
6.83774e-47
6.83831e-47
6.83888e-47
6.83943e-47
6.83997e-47
6.8405e-47
6.84101e-47
6.8415e-47
6.84199e-47
6.84253e-47
6.84332e-47
6.84509e-47
6.85051e-47
6.86941e-47
6.93732e-47
7.18227e-47
8.06275e-47
1.12106e-46
2.23992e-46
6.19333e-46
2.00803e-45
6.85747e-45
2.36938e-44
8.18099e-44
2.81274e-43
9.62011e-43
3.27235e-42
1.10704e-41
3.72497e-41
1.24673e-40
4.15103e-40
1.37508e-39
4.5325e-39
1.48678e-38
4.85421e-38
1.57768e-37
5.10524e-37
1.64508e-36
5.2797e-36
1.68796e-35
5.37689e-35
1.70687e-34
5.40077e-34
1.70367e-33
5.35899e-33
1.68125e-32
5.26171e-32
1.64307e-31
5.12045e-31
1.59286e-30
4.94719e-30
1.53444e-29
4.75396e-29
1.47163e-28
4.55321e-28
1.40859e-27
4.35933e-27
1.35056e-26
4.19235e-26
1.30556e-25
4.08577e-25
1.28799e-24
4.10276e-24
1.32597e-23
4.36967e-23
1.47659e-22
5.14524e-22
)
;

boundaryField
{
    boundary
    {
        type            empty;
    }
    inlet
    {
        type            fixedValue;
        value           nonuniform 0();
    }
    outlet
    {
        type            zeroGradient;
    }
    procBoundary3to1
    {
        type            processor;
        value           uniform 1.86709e-21;
    }
    procBoundary3to2
    {
        type            processor;
        value           uniform 6.81057e-47;
    }
}


// ************************************************************************* //
