/*--------------------------------*- C++ -*----------------------------------*\
  =========                 |
  \\      /  F ield         | OpenFOAM: The Open Source CFD Toolbox
   \\    /   O peration     | Website:  https://openfoam.org
    \\  /    A nd           | Version:  7
     \\/     M anipulation  |
\*---------------------------------------------------------------------------*/
FoamFile
{
    version     2.0;
    format      ascii;
    class       volScalarField;
    location    "0.0004";
    object      OH;
}
// * * * * * * * * * * * * * * * * * * * * * * * * * * * * * * * * * * * * * //

dimensions      [0 0 0 0 0 0 0];

internalField   nonuniform List<scalar> 
126
(
6.71863e-47
6.71938e-47
6.71985e-47
6.72028e-47
6.7207e-47
6.72116e-47
6.72163e-47
6.72211e-47
6.72261e-47
6.72311e-47
6.72362e-47
6.72412e-47
6.72462e-47
6.72513e-47
6.72563e-47
6.72613e-47
6.72664e-47
6.72715e-47
6.72766e-47
6.72819e-47
6.72872e-47
6.72927e-47
6.72984e-47
6.73041e-47
6.73101e-47
6.73162e-47
6.73225e-47
6.73289e-47
6.73354e-47
6.73419e-47
6.73485e-47
6.73551e-47
6.73616e-47
6.73681e-47
6.73744e-47
6.73805e-47
6.73865e-47
6.73923e-47
6.73979e-47
6.74033e-47
6.74084e-47
6.74133e-47
6.74179e-47
6.74223e-47
6.74264e-47
6.74301e-47
6.74336e-47
6.74368e-47
6.74396e-47
6.74421e-47
6.74442e-47
6.7446e-47
6.74473e-47
6.74483e-47
6.74487e-47
6.74488e-47
6.74483e-47
6.74473e-47
6.74458e-47
6.74437e-47
6.7441e-47
6.74377e-47
6.74338e-47
6.74292e-47
6.74239e-47
6.74179e-47
6.74111e-47
6.74036e-47
6.73952e-47
6.7386e-47
6.7376e-47
6.7365e-47
6.73531e-47
6.73403e-47
6.73265e-47
6.73117e-47
6.72958e-47
6.7279e-47
6.72613e-47
6.72437e-47
6.72312e-47
6.72496e-47
6.74288e-47
6.84192e-47
7.34424e-47
9.83108e-47
2.19902e-46
8.08406e-46
3.62924e-45
1.70195e-44
7.99637e-44
3.72942e-43
1.72311e-42
7.88301e-42
3.57027e-41
1.60064e-40
7.10276e-40
3.11938e-39
1.35575e-38
5.83075e-38
2.48127e-37
1.04471e-36
4.35179e-36
1.79333e-35
7.31069e-35
2.94812e-34
1.17601e-33
4.64046e-33
1.81133e-32
6.99425e-32
2.67194e-31
1.00997e-30
3.77795e-30
1.39887e-29
5.12884e-29
1.86284e-28
6.70676e-28
2.39546e-27
8.49735e-27
2.99795e-26
1.05396e-25
3.70096e-25
1.30184e-24
4.603e-24
1.64211e-23
5.93202e-23
)
;

boundaryField
{
    boundary
    {
        type            empty;
    }
    inlet
    {
        type            fixedValue;
        value           nonuniform 0();
    }
    outlet
    {
        type            zeroGradient;
    }
    procBoundary3to1
    {
        type            processor;
        value           uniform 2.19505e-22;
    }
    procBoundary3to2
    {
        type            processor;
        value           uniform 6.7183e-47;
    }
}


// ************************************************************************* //
