/*--------------------------------*- C++ -*----------------------------------*\
  =========                 |
  \\      /  F ield         | OpenFOAM: The Open Source CFD Toolbox
   \\    /   O peration     | Website:  https://openfoam.org
    \\  /    A nd           | Version:  7
     \\/     M anipulation  |
\*---------------------------------------------------------------------------*/
FoamFile
{
    version     2.0;
    format      ascii;
    class       volScalarField;
    location    "0.00059";
    object      H2O;
}
// * * * * * * * * * * * * * * * * * * * * * * * * * * * * * * * * * * * * * //

dimensions      [0 0 0 0 0 0 0];

internalField   nonuniform List<scalar> 
126
(
1.81881e-45
1.81889e-45
1.81898e-45
1.81909e-45
1.81921e-45
1.81936e-45
1.81955e-45
1.81978e-45
1.82005e-45
1.82038e-45
1.82077e-45
1.82122e-45
1.82172e-45
1.82226e-45
1.82284e-45
1.82343e-45
1.82403e-45
1.82461e-45
1.82516e-45
1.82566e-45
1.8261e-45
1.82648e-45
1.8268e-45
1.82705e-45
1.82724e-45
1.82737e-45
1.82745e-45
1.8275e-45
1.82752e-45
1.82752e-45
1.82752e-45
1.82751e-45
1.82751e-45
1.82753e-45
1.82756e-45
1.82762e-45
1.82771e-45
1.82783e-45
1.82798e-45
1.82815e-45
1.82835e-45
1.82858e-45
1.82882e-45
1.82907e-45
1.82934e-45
1.82961e-45
1.82989e-45
1.83016e-45
1.83042e-45
1.83067e-45
1.83092e-45
1.83115e-45
1.83136e-45
1.83156e-45
1.83175e-45
1.83192e-45
1.83207e-45
1.83221e-45
1.83234e-45
1.83245e-45
1.83254e-45
1.83263e-45
1.8327e-45
1.83276e-45
1.8328e-45
1.83284e-45
1.83286e-45
1.83286e-45
1.83286e-45
1.83283e-45
1.8328e-45
1.83274e-45
1.83268e-45
1.8326e-45
1.83253e-45
1.83254e-45
1.83294e-45
1.83502e-45
1.84413e-45
1.88215e-45
2.03818e-45
2.6723e-45
5.23036e-45
1.54824e-44
5.63228e-44
2.18127e-43
8.561e-43
3.36158e-42
1.31727e-41
5.15296e-41
2.01479e-40
7.88697e-40
3.09684e-39
1.22218e-38
4.85764e-38
1.94793e-37
7.89188e-37
3.2329e-36
1.33921e-35
5.60635e-35
2.36891e-34
1.0086e-33
4.3188e-33
1.85618e-32
7.99241e-32
3.44205e-31
1.48055e-30
6.35324e-30
2.71734e-29
1.15765e-28
4.91003e-28
2.07266e-27
8.70629e-27
3.63889e-26
1.51338e-25
6.26347e-25
2.58013e-24
1.05809e-23
4.32081e-23
1.7575e-22
7.12269e-22
2.87702e-21
1.15859e-20
4.653e-20
1.86417e-19
7.45265e-19
)
;

boundaryField
{
    boundary
    {
        type            empty;
    }
    inlet
    {
        type            fixedValue;
        value           nonuniform 0();
    }
    outlet
    {
        type            zeroGradient;
    }
    procBoundary3to1
    {
        type            processor;
        value           uniform 2.98998e-18;
    }
    procBoundary3to2
    {
        type            processor;
        value           uniform 1.82218e-45;
    }
}


// ************************************************************************* //
