/*--------------------------------*- C++ -*----------------------------------*\
  =========                 |
  \\      /  F ield         | OpenFOAM: The Open Source CFD Toolbox
   \\    /   O peration     | Website:  https://openfoam.org
    \\  /    A nd           | Version:  7
     \\/     M anipulation  |
\*---------------------------------------------------------------------------*/
FoamFile
{
    version     2.0;
    format      ascii;
    class       volScalarField;
    location    "0.00059";
    object      H2O2;
}
// * * * * * * * * * * * * * * * * * * * * * * * * * * * * * * * * * * * * * //

dimensions      [0 0 0 0 0 0 0];

internalField   nonuniform List<scalar> 
126
(
3.16619e-49
3.16634e-49
3.1665e-49
3.16669e-49
3.1669e-49
3.16716e-49
3.16748e-49
3.16787e-49
3.16837e-49
3.16897e-49
3.1697e-49
3.17057e-49
3.17158e-49
3.17273e-49
3.17398e-49
3.17532e-49
3.17671e-49
3.17809e-49
3.17942e-49
3.18064e-49
3.18172e-49
3.18262e-49
3.18332e-49
3.18381e-49
3.18412e-49
3.18424e-49
3.18422e-49
3.1841e-49
3.18392e-49
3.18371e-49
3.18352e-49
3.18339e-49
3.18333e-49
3.18339e-49
3.18356e-49
3.18385e-49
3.18427e-49
3.18481e-49
3.18546e-49
3.18619e-49
3.18701e-49
3.18788e-49
3.18878e-49
3.18971e-49
3.19064e-49
3.19155e-49
3.19243e-49
3.19328e-49
3.19408e-49
3.19483e-49
3.19552e-49
3.19615e-49
3.19673e-49
3.19725e-49
3.19772e-49
3.19814e-49
3.19851e-49
3.19884e-49
3.19912e-49
3.19937e-49
3.19959e-49
3.19977e-49
3.19993e-49
3.20006e-49
3.20015e-49
3.20023e-49
3.20027e-49
3.20029e-49
3.20028e-49
3.20024e-49
3.20017e-49
3.20008e-49
3.19995e-49
3.19979e-49
3.1996e-49
3.19938e-49
3.19912e-49
3.19884e-49
3.19859e-49
3.19878e-49
3.20171e-49
3.22108e-49
3.33711e-49
4.01494e-49
7.92823e-49
3.0305e-48
1.57087e-47
8.68837e-47
4.82794e-46
2.66476e-45
1.4579e-44
7.90311e-44
4.24461e-43
2.25859e-42
1.19069e-41
6.21909e-41
3.21839e-40
1.65026e-39
8.38483e-39
4.22178e-38
2.10666e-37
1.04192e-36
5.10819e-36
2.48284e-35
1.19658e-34
5.71898e-34
2.71116e-33
1.27507e-32
5.95045e-32
2.75615e-31
1.26737e-30
5.78727e-30
2.62506e-29
1.18316e-28
5.30069e-28
2.36138e-27
1.04642e-26
4.61451e-26
2.02581e-25
8.8572e-25
3.85828e-24
1.67516e-23
7.25183e-23
3.13125e-22
1.34899e-21
5.80031e-21
)
;

boundaryField
{
    boundary
    {
        type            empty;
    }
    inlet
    {
        type            fixedValue;
        value           nonuniform 0();
    }
    outlet
    {
        type            zeroGradient;
    }
    procBoundary3to1
    {
        type            processor;
        value           uniform 2.50383e-20;
    }
    procBoundary3to2
    {
        type            processor;
        value           uniform 3.17718e-49;
    }
}


// ************************************************************************* //
