/*--------------------------------*- C++ -*----------------------------------*\
  =========                 |
  \\      /  F ield         | OpenFOAM: The Open Source CFD Toolbox
   \\    /   O peration     | Website:  https://openfoam.org
    \\  /    A nd           | Version:  7
     \\/     M anipulation  |
\*---------------------------------------------------------------------------*/
FoamFile
{
    version     2.0;
    format      ascii;
    class       volScalarField;
    location    "0.00059";
    object      OH;
}
// * * * * * * * * * * * * * * * * * * * * * * * * * * * * * * * * * * * * * //

dimensions      [0 0 0 0 0 0 0];

internalField   nonuniform List<scalar> 
126
(
6.86483e-47
6.86475e-47
6.86464e-47
6.86454e-47
6.8645e-47
6.86455e-47
6.86471e-47
6.86497e-47
6.86534e-47
6.86579e-47
6.8663e-47
6.86686e-47
6.86744e-47
6.86803e-47
6.86862e-47
6.86919e-47
6.86975e-47
6.8703e-47
6.87083e-47
6.87134e-47
6.87185e-47
6.87235e-47
6.87284e-47
6.87333e-47
6.87383e-47
6.87432e-47
6.87482e-47
6.87532e-47
6.87582e-47
6.87633e-47
6.87685e-47
6.87737e-47
6.8779e-47
6.87844e-47
6.87899e-47
6.87954e-47
6.88011e-47
6.88068e-47
6.88126e-47
6.88185e-47
6.88245e-47
6.88305e-47
6.88365e-47
6.88426e-47
6.88486e-47
6.88547e-47
6.88606e-47
6.88665e-47
6.88723e-47
6.88779e-47
6.88834e-47
6.88887e-47
6.88939e-47
6.88988e-47
6.89035e-47
6.8908e-47
6.89121e-47
6.89161e-47
6.89197e-47
6.8923e-47
6.8926e-47
6.89286e-47
6.89309e-47
6.89328e-47
6.89343e-47
6.89354e-47
6.89361e-47
6.89363e-47
6.89361e-47
6.89353e-47
6.89341e-47
6.89325e-47
6.89311e-47
6.89321e-47
6.89455e-47
6.90124e-47
6.93025e-47
7.05115e-47
7.54678e-47
9.55845e-47
1.76557e-46
4.99939e-46
1.78148e-45
6.82102e-45
2.6486e-44
1.02629e-43
3.95181e-43
1.51051e-42
5.72973e-42
2.15674e-41
8.05581e-41
2.98589e-40
1.09824e-39
4.00861e-39
1.45203e-38
5.21983e-38
1.86235e-37
6.59497e-37
2.31813e-36
8.08848e-36
2.80181e-35
9.63593e-35
3.29063e-34
1.11597e-33
3.759e-33
1.25781e-32
4.18175e-32
1.38165e-31
4.53777e-31
1.48187e-30
4.81321e-30
1.5555e-29
5.00362e-29
1.60279e-28
5.11533e-28
1.6276e-27
5.16695e-27
1.63816e-26
5.19355e-26
1.64926e-25
5.25786e-25
1.68779e-24
5.47657e-24
1.80505e-23
6.07767e-23
2.10325e-22
)
;

boundaryField
{
    boundary
    {
        type            empty;
    }
    inlet
    {
        type            fixedValue;
        value           nonuniform 0();
    }
    outlet
    {
        type            zeroGradient;
    }
    procBoundary3to1
    {
        type            processor;
        value           uniform 7.55792e-22;
    }
    procBoundary3to2
    {
        type            processor;
        value           uniform 6.86395e-47;
    }
}


// ************************************************************************* //
