/*--------------------------------*- C++ -*----------------------------------*\
  =========                 |
  \\      /  F ield         | OpenFOAM: The Open Source CFD Toolbox
   \\    /   O peration     | Website:  https://openfoam.org
    \\  /    A nd           | Version:  7
     \\/     M anipulation  |
\*---------------------------------------------------------------------------*/
FoamFile
{
    version     2.0;
    format      ascii;
    class       volScalarField;
    location    "0.00059";
    object      Qdot;
}
// * * * * * * * * * * * * * * * * * * * * * * * * * * * * * * * * * * * * * //

dimensions      [1 -1 -3 0 0 0 0];

internalField   nonuniform List<scalar> 
126
(
-2.7074e-27
-2.70733e-27
-2.70725e-27
-2.70718e-27
-2.70714e-27
-2.70713e-27
-2.70716e-27
-2.70723e-27
-2.70732e-27
-2.70745e-27
-2.70759e-27
-2.70775e-27
-2.70791e-27
-2.70808e-27
-2.70825e-27
-2.70841e-27
-2.70858e-27
-2.70874e-27
-2.7089e-27
-2.70905e-27
-2.70921e-27
-2.70937e-27
-2.70953e-27
-2.70969e-27
-2.70985e-27
-2.71001e-27
-2.71017e-27
-2.71034e-27
-2.71051e-27
-2.71067e-27
-2.71084e-27
-2.71102e-27
-2.71119e-27
-2.71137e-27
-2.71155e-27
-2.71173e-27
-2.71191e-27
-2.7121e-27
-2.71229e-27
-2.71248e-27
-2.71267e-27
-2.71286e-27
-2.71306e-27
-2.71325e-27
-2.71344e-27
-2.71363e-27
-2.71382e-27
-2.71401e-27
-2.7142e-27
-2.71438e-27
-2.71455e-27
-2.71472e-27
-2.71489e-27
-2.71504e-27
-2.71519e-27
-2.71534e-27
-2.71547e-27
-2.7156e-27
-2.71572e-27
-2.71583e-27
-2.71592e-27
-2.71601e-27
-2.71609e-27
-2.71615e-27
-2.7162e-27
-2.71624e-27
-2.71627e-27
-2.71628e-27
-2.71628e-27
-2.71626e-27
-2.71622e-27
-2.71617e-27
-2.7161e-27
-2.71601e-27
-2.7159e-27
-2.71577e-27
-2.71562e-27
-2.71545e-27
-2.71525e-27
-2.71503e-27
-2.71479e-27
-2.71452e-27
-2.71422e-27
-2.71389e-27
-2.71352e-27
-2.71304e-27
-2.71228e-27
-2.71052e-27
-2.70503e-27
-2.68572e-27
-2.6152e-27
-2.3561e-27
-1.40782e-27
2.04012e-27
1.44855e-26
5.90717e-26
2.17608e-25
7.77116e-25
2.73716e-24
9.55322e-24
3.30848e-23
1.13745e-22
3.88291e-22
1.31633e-21
4.43225e-21
1.48253e-20
4.92706e-20
1.62729e-19
5.3424e-19
1.74388e-18
5.66152e-18
1.82861e-17
5.87805e-17
1.88121e-16
5.99679e-16
1.90497e-15
6.03382e-15
1.90689e-14
6.01808e-14
1.89873e-13
5.99746e-13
1.90023e-12
6.05486e-12
1.94688e-11
6.34471e-11
2.10688e-10
)
;

boundaryField
{
    boundary
    {
        type            empty;
    }
    inlet
    {
        type            calculated;
        value           nonuniform 0();
    }
    outlet
    {
        type            calculated;
        value           nonuniform 0();
    }
    procBoundary3to1
    {
        type            processor;
        value           uniform 0;
    }
    procBoundary3to2
    {
        type            processor;
        value           uniform 0;
    }
}


// ************************************************************************* //
