/*--------------------------------*- C++ -*----------------------------------*\
  =========                 |
  \\      /  F ield         | OpenFOAM: The Open Source CFD Toolbox
   \\    /   O peration     | Website:  https://openfoam.org
    \\  /    A nd           | Version:  7
     \\/     M anipulation  |
\*---------------------------------------------------------------------------*/
FoamFile
{
    version     2.0;
    format      ascii;
    class       volScalarField;
    location    "0.00077";
    object      H2O2;
}
// * * * * * * * * * * * * * * * * * * * * * * * * * * * * * * * * * * * * * //

dimensions      [0 0 0 0 0 0 0];

internalField   nonuniform List<scalar> 
125
(
7.451e-20
3.17504e-19
1.34892e-18
5.72298e-18
2.42538e-17
1.02677e-16
4.34214e-16
1.83435e-15
7.74176e-15
3.26458e-14
1.37569e-13
5.79442e-13
2.44009e-12
1.02758e-11
4.32867e-11
1.82436e-10
7.69394e-10
3.24713e-09
1.3713e-08
5.79298e-08
2.44509e-07
1.0269e-06
4.23003e-06
1.62856e-05
5.10262e-05
0.000100347
0.000124758
0.000102058
5.43817e-05
2.26236e-05
9.32541e-06
5.16714e-06
4.42003e-06
4.78191e-06
5.49766e-06
6.05441e-06
6.44856e-06
6.67652e-06
6.76764e-06
6.75712e-06
6.67558e-06
6.54675e-06
6.38795e-06
6.21141e-06
6.02565e-06
5.83648e-06
5.64783e-06
5.46232e-06
5.28165e-06
5.10689e-06
4.93864e-06
4.77724e-06
4.62278e-06
4.47524e-06
4.33447e-06
4.20027e-06
4.0724e-06
3.95062e-06
3.83465e-06
3.72426e-06
3.61927e-06
3.5225e-06
3.43147e-06
3.34411e-06
3.26024e-06
3.17967e-06
3.10225e-06
3.02782e-06
2.95624e-06
2.88737e-06
2.82108e-06
2.75724e-06
2.69575e-06
2.63648e-06
2.57933e-06
2.52421e-06
2.47101e-06
2.41964e-06
2.37003e-06
2.32209e-06
2.27574e-06
2.23092e-06
2.18755e-06
2.14557e-06
2.10491e-06
2.06553e-06
2.02737e-06
1.99037e-06
1.95448e-06
1.91966e-06
1.88587e-06
1.85306e-06
1.82119e-06
1.79022e-06
1.76013e-06
1.73087e-06
1.70241e-06
1.67473e-06
1.64779e-06
1.62157e-06
1.59603e-06
1.57116e-06
1.54694e-06
1.52333e-06
1.50031e-06
1.47788e-06
1.45599e-06
1.43465e-06
1.41383e-06
1.3935e-06
1.37367e-06
1.3543e-06
1.33539e-06
1.31692e-06
1.29887e-06
1.28123e-06
1.264e-06
1.24716e-06
1.23069e-06
1.21458e-06
1.19883e-06
1.18343e-06
1.16837e-06
1.15365e-06
1.13926e-06
)
;

boundaryField
{
    boundary
    {
        type            empty;
    }
    inlet
    {
        type            fixedValue;
        value           nonuniform 0();
    }
    outlet
    {
        type            zeroGradient;
    }
    procBoundary1to0
    {
        type            processor;
        value           uniform 1.12516e-06;
    }
    procBoundary1to3
    {
        type            processor;
        value           uniform 1.74098e-20;
    }
}


// ************************************************************************* //
