/*--------------------------------*- C++ -*----------------------------------*\
  =========                 |
  \\      /  F ield         | OpenFOAM: The Open Source CFD Toolbox
   \\    /   O peration     | Website:  https://openfoam.org
    \\  /    A nd           | Version:  7
     \\/     M anipulation  |
\*---------------------------------------------------------------------------*/
FoamFile
{
    version     2.0;
    format      ascii;
    class       volScalarField;
    location    "0.00086";
    object      H2O;
}
// * * * * * * * * * * * * * * * * * * * * * * * * * * * * * * * * * * * * * //

dimensions      [0 0 0 0 0 0 0];

internalField   nonuniform List<scalar> 
126
(
2.74481e-45
2.74488e-45
2.74496e-45
2.74504e-45
2.74512e-45
2.74521e-45
2.74531e-45
2.74541e-45
2.74552e-45
2.74563e-45
2.74575e-45
2.74586e-45
2.74599e-45
2.74611e-45
2.74624e-45
2.74637e-45
2.7465e-45
2.74664e-45
2.74679e-45
2.74694e-45
2.7471e-45
2.74729e-45
2.74749e-45
2.74771e-45
2.74795e-45
2.74823e-45
2.74853e-45
2.74887e-45
2.74923e-45
2.74963e-45
2.75005e-45
2.7505e-45
2.75097e-45
2.75145e-45
2.75194e-45
2.75243e-45
2.75291e-45
2.75339e-45
2.75385e-45
2.75429e-45
2.7547e-45
2.75508e-45
2.75544e-45
2.75577e-45
2.75606e-45
2.75633e-45
2.75658e-45
2.7568e-45
2.757e-45
2.7572e-45
2.75738e-45
2.75756e-45
2.75774e-45
2.75792e-45
2.75811e-45
2.75831e-45
2.75853e-45
2.75875e-45
2.75899e-45
2.75924e-45
2.7595e-45
2.75977e-45
2.76006e-45
2.76035e-45
2.76065e-45
2.76095e-45
2.76125e-45
2.76156e-45
2.76187e-45
2.76221e-45
2.76269e-45
2.76365e-45
2.7663e-45
2.77491e-45
2.80416e-45
2.90462e-45
3.24949e-45
4.42949e-45
8.45088e-45
2.21025e-44
6.82802e-44
2.23986e-43
7.47631e-43
2.50524e-42
8.3979e-42
2.81508e-41
9.44306e-41
3.17349e-40
1.06998e-39
3.62512e-39
1.23628e-38
4.25117e-38
1.47643e-37
5.18618e-37
1.84449e-36
6.64603e-36
2.42631e-35
8.97113e-35
3.35657e-34
1.26935e-33
4.84521e-33
1.86412e-32
7.21879e-32
2.81019e-31
1.09851e-30
4.30787e-30
1.69345e-29
6.669e-29
2.62976e-28
1.03793e-27
4.09916e-27
1.61953e-26
6.39998e-26
2.52929e-25
9.99542e-25
3.94949e-24
1.5602e-23
6.16147e-23
2.4323e-22
9.5972e-22
3.78475e-21
1.49164e-20
5.87492e-20
2.31222e-19
9.09362e-19
3.57372e-18
)
;

boundaryField
{
    boundary
    {
        type            empty;
    }
    inlet
    {
        type            fixedValue;
        value           nonuniform 0();
    }
    outlet
    {
        type            zeroGradient;
    }
    procBoundary3to1
    {
        type            processor;
        value           uniform 1.4111e-17;
    }
    procBoundary3to2
    {
        type            processor;
        value           uniform 2.7482e-45;
    }
}


// ************************************************************************* //
