/*--------------------------------*- C++ -*----------------------------------*\
  =========                 |
  \\      /  F ield         | OpenFOAM: The Open Source CFD Toolbox
   \\    /   O peration     | Website:  https://openfoam.org
    \\  /    A nd           | Version:  7
     \\/     M anipulation  |
\*---------------------------------------------------------------------------*/
FoamFile
{
    version     2.0;
    format      ascii;
    class       volVectorField;
    location    "0.00087";
    object      U;
}
// * * * * * * * * * * * * * * * * * * * * * * * * * * * * * * * * * * * * * //

dimensions      [0 1 -1 0 0 0 0];

internalField   nonuniform List<vector> 
125
(
(2.34412 0 0)
(2.34411 0 0)
(2.34409 0 0)
(2.34407 0 0)
(2.34405 0 0)
(2.34403 0 0)
(2.34401 0 0)
(2.34399 0 0)
(2.34397 0 0)
(2.34395 0 0)
(2.34393 0 0)
(2.34391 0 0)
(2.34389 0 0)
(2.34387 0 0)
(2.34385 0 0)
(2.34384 0 0)
(2.34385 0 0)
(2.34397 0 0)
(2.34445 0 0)
(2.34606 0 0)
(2.3511 0 0)
(2.36555 0 0)
(2.40345 0 0)
(2.49524 0 0)
(2.70697 0 0)
(3.15947 0 0)
(4.01741 0 0)
(5.18169 0 0)
(6.41925 0 0)
(7.56931 0 0)
(8.58396 0 0)
(9.45216 0 0)
(10.1715 0 0)
(10.7645 0 0)
(11.2574 0 0)
(11.6575 0 0)
(11.9761 0 0)
(12.2386 0 0)
(12.4644 0 0)
(12.6628 0 0)
(12.8388 0 0)
(12.9962 0 0)
(13.1382 0 0)
(13.2673 0 0)
(13.3854 0 0)
(13.4941 0 0)
(13.5946 0 0)
(13.6879 0 0)
(13.7748 0 0)
(13.8561 0 0)
(13.9323 0 0)
(14.004 0 0)
(14.0716 0 0)
(14.1355 0 0)
(14.1959 0 0)
(14.2533 0 0)
(14.3078 0 0)
(14.3597 0 0)
(14.4092 0 0)
(14.4563 0 0)
(14.5013 0 0)
(14.5431 0 0)
(14.5823 0 0)
(14.6203 0 0)
(14.6571 0 0)
(14.6926 0 0)
(14.727 0 0)
(14.7603 0 0)
(14.7926 0 0)
(14.8239 0 0)
(14.8542 0 0)
(14.8838 0 0)
(14.9124 0 0)
(14.9403 0 0)
(14.9674 0 0)
(14.9938 0 0)
(15.0195 0 0)
(15.0445 0 0)
(15.0689 0 0)
(15.0927 0 0)
(15.1159 0 0)
(15.1386 0 0)
(15.1607 0 0)
(15.1823 0 0)
(15.2034 0 0)
(15.2241 0 0)
(15.2443 0 0)
(15.264 0 0)
(15.2833 0 0)
(15.3022 0 0)
(15.3208 0 0)
(15.3389 0 0)
(15.3567 0 0)
(15.3741 0 0)
(15.3912 0 0)
(15.4079 0 0)
(15.4243 0 0)
(15.4404 0 0)
(15.4563 0 0)
(15.4718 0 0)
(15.487 0 0)
(15.502 0 0)
(15.5167 0 0)
(15.5311 0 0)
(15.5453 0 0)
(15.5593 0 0)
(15.573 0 0)
(15.5865 0 0)
(15.5997 0 0)
(15.6128 0 0)
(15.6256 0 0)
(15.6382 0 0)
(15.6507 0 0)
(15.6629 0 0)
(15.675 0 0)
(15.6868 0 0)
(15.6985 0 0)
(15.71 0 0)
(15.7214 0 0)
(15.7325 0 0)
(15.7435 0 0)
(15.7544 0 0)
(15.765 0 0)
(15.7755 0 0)
(15.7858 0 0)
)
;

boundaryField
{
    boundary
    {
        type            empty;
    }
    inlet
    {
        type            fixedValue;
        value           nonuniform 0();
    }
    outlet
    {
        type            zeroGradient;
    }
    procBoundary1to0
    {
        type            processor;
        value           uniform (15.796 0 0);
    }
    procBoundary1to3
    {
        type            processor;
        value           uniform (2.34414 0 0);
    }
}


// ************************************************************************* //
