/*--------------------------------*- C++ -*----------------------------------*\
  =========                 |
  \\      /  F ield         | OpenFOAM: The Open Source CFD Toolbox
   \\    /   O peration     | Website:  https://openfoam.org
    \\  /    A nd           | Version:  7
     \\/     M anipulation  |
\*---------------------------------------------------------------------------*/
FoamFile
{
    version     2.0;
    format      ascii;
    class       volScalarField;
    location    "0.00041";
    object      H2;
}
// * * * * * * * * * * * * * * * * * * * * * * * * * * * * * * * * * * * * * //

dimensions      [0 0 0 0 0 0 0];

internalField   nonuniform List<scalar> 
500
(
0.0285116
0.0285116
0.0285116
0.0285116
0.0285116
0.0285116
0.0285116
0.0285116
0.0285116
0.0285116
0.0285116
0.0285116
0.0285116
0.0285116
0.0285116
0.0285116
0.0285116
0.0285116
0.0285116
0.0285116
0.0285116
0.0285116
0.0285116
0.0285116
0.0285116
0.0285116
0.0285116
0.0285116
0.0285116
0.0285116
0.0285116
0.0285116
0.0285116
0.0285116
0.0285116
0.0285116
0.0285116
0.0285116
0.0285116
0.0285116
0.0285116
0.0285116
0.0285116
0.0285116
0.0285116
0.0285116
0.0285116
0.0285116
0.0285116
0.0285116
0.0285116
0.0285116
0.0285116
0.0285116
0.0285116
0.0285116
0.0285116
0.0285116
0.0285116
0.0285116
0.0285116
0.0285116
0.0285116
0.0285116
0.0285116
0.0285116
0.0285116
0.0285116
0.0285116
0.0285116
0.0285116
0.0285116
0.0285116
0.0285116
0.0285116
0.0285116
0.0285116
0.0285116
0.0285116
0.0285116
0.0285116
0.0285116
0.0285116
0.0285116
0.0285116
0.0285116
0.0285116
0.0285116
0.0285116
0.0285116
0.0285116
0.0285116
0.0285116
0.0285116
0.0285116
0.0285116
0.0285116
0.0285116
0.0285116
0.0285116
0.0285116
0.0285116
0.0285116
0.0285116
0.0285116
0.0285116
0.0285116
0.0285116
0.0285116
0.0285116
0.0285116
0.0285116
0.0285116
0.0285116
0.0285116
0.0285116
0.0285116
0.0285116
0.0285116
0.0285116
0.0285116
0.0285116
0.0285116
0.0285116
0.0285116
0.0285116
0.0285116
0.0285116
0.0285116
0.0285116
0.0285116
0.0285116
0.0285116
0.0285116
0.0285116
0.0285116
0.0285116
0.0285116
0.0285116
0.0285116
0.0285116
0.0285116
0.0285116
0.0285116
0.0285116
0.0285116
0.0285116
0.0285116
0.0285116
0.0285116
0.0285116
0.0285116
0.0285116
0.0285116
0.0285116
0.0285116
0.0285116
0.0285116
0.0285116
0.0285116
0.0285116
0.0285116
0.0285116
0.0285116
0.0285116
0.0285116
0.0285116
0.0285116
0.0285116
0.0285116
0.0285116
0.0285116
0.0285116
0.0285116
0.0285116
0.0285116
0.0285116
0.0285116
0.0285116
0.0285116
0.0285116
0.0285116
0.0285116
0.0285116
0.0285116
0.0285116
0.0285116
0.0285116
0.0285116
0.0285116
0.0285116
0.0285116
0.0285116
0.0285116
0.0285116
0.0285116
0.0285116
0.0285116
0.0285116
0.0285116
0.0285116
0.0285116
0.0285116
0.0285116
0.0285116
0.0285116
0.0285116
0.0285116
0.0285116
0.0285116
0.0285116
0.0285116
0.0285116
0.0285116
0.0285116
0.0285116
0.0285116
0.0285116
0.0285116
0.0285116
0.0285116
0.0285116
0.0285116
0.0285116
0.0285116
0.0285116
0.0285116
0.0285116
0.0285116
0.0285116
0.0285116
0.0285116
0.0285116
0.0285116
0.0285116
0.0285116
0.0285116
0.0285116
0.0285116
0.0285116
0.0285116
0.0285116
0.0285116
0.0285116
0.0285116
0.0285116
0.0285116
0.0285116
0.0285116
0.0285116
0.0285116
0.0285116
0.0285116
0.0285116
0.0285116
0.0285116
0.0285116
0.0285116
0.0285116
0.0285116
0.0285116
0.0285116
0.0285116
0.0285115
0.0285115
0.0285113
0.0285111
0.0285105
0.0285094
0.0285069
0.0285019
0.0284913
0.0284692
0.0284231
0.0283274
0.0281305
0.0277353
0.0269876
0.0257118
0.0238181
0.0214252
0.018685
0.0156823
0.0126275
0.00988891
0.00775448
0.00620116
0.00522859
0.00461882
0.00424264
0.00401036
0.00386444
0.00376953
0.00370443
0.00365659
0.00361872
0.00358658
0.00355774
0.00353082
0.00350506
0.00348002
0.00345549
0.00343136
0.00340755
0.00338407
0.00336088
0.00333801
0.00331546
0.00329322
0.00327131
0.00324974
0.00322851
0.00320825
0.00318878
0.00316956
0.00315059
0.00313188
0.00311341
0.00309519
0.00307721
0.00305948
0.003042
0.00302475
0.00300775
0.00299098
0.00297444
0.00295814
0.00294206
0.0029262
0.00291056
0.00289513
0.00287992
0.00286491
0.00285011
0.00283551
0.0028211
0.00280689
0.00279287
0.00277903
0.00276538
0.0027519
0.00273861
0.00272549
0.00271253
0.00269975
0.00268713
0.00267468
0.00266239
0.00265026
0.00263828
0.00262647
0.0026148
0.00260329
0.00259193
0.00258072
0.00256966
0.00255875
0.00254798
0.00253737
0.0025269
0.00251659
0.00250642
0.00249641
0.00248655
0.00247685
0.00246731
0.00245793
0.00244872
0.0024397
0.00243086
0.00242222
0.00241379
0.0024056
0.00239767
0.00239003
0.00238274
0.00237535
0.00236767
0.0023602
0.0023529
0.0023458
0.00233889
0.00233216
0.00232563
0.00231929
0.00231314
0.0023072
0.00230147
0.00229595
0.00229063
0.00228554
0.00228067
0.00227603
0.00227162
0.00226744
0.0022635
0.0022598
0.00225635
0.00225315
0.00225019
0.00224749
0.00224504
0.00224285
0.00224091
0.00223921
0.00223777
0.00223657
0.00223561
0.00223489
0.00223439
0.00223411
0.00223404
0.00223417
0.00223449
0.00223498
0.00223563
0.00223641
0.00223732
0.00223834
0.00223943
0.00224058
0.00224177
0.00224298
0.00224416
0.0022453
0.00224638
0.00224735
0.00224819
0.00224886
0.00224935
0.0022496
0.0022496
0.00224931
0.0022487
0.00224773
0.00224638
0.0022446
0.00224239
0.00223969
0.0022365
0.00223278
0.0022285
0.00222365
0.00221821
0.00221215
0.00220547
0.00219815
0.00219018
0.00218155
0.00217225
0.0021623
0.00215168
0.0021404
0.00212847
0.0021159
0.00210269
0.00208888
0.00207446
0.00205947
0.00204392
0.00202785
0.00201128
0.00199423
0.00197675
0.00195887
0.00194061
0.00192202
0.00190314
0.00188401
0.00186466
0.00184514
0.00182548
0.00180573
0.00178594
0.00176614
0.00174637
0.00172667
0.0017071
0.00168767
0.00166844
0.00164944
0.0016307
0.00161226
0.00159416
0.00157642
0.00155908
0.00154216
0.00152571
0.00150974
0.0014943
0.00147943
0.00146517
0.00145159
0.00143877
0.00142681
0.00141586
0.00140615
0.00139798
0.0013918
0.00138823
)
;

boundaryField
{
    boundary
    {
        type            empty;
    }
    inlet
    {
        type            fixedValue;
        value           uniform 0.0285116;
    }
    outlet
    {
        type            zeroGradient;
    }
}


// ************************************************************************* //
