/*--------------------------------*- C++ -*----------------------------------*\
  =========                 |
  \\      /  F ield         | OpenFOAM: The Open Source CFD Toolbox
   \\    /   O peration     | Website:  https://openfoam.org
    \\  /    A nd           | Version:  7
     \\/     M anipulation  |
\*---------------------------------------------------------------------------*/
FoamFile
{
    version     2.0;
    format      ascii;
    class       volScalarField;
    location    "0.00041";
    object      H2O;
}
// * * * * * * * * * * * * * * * * * * * * * * * * * * * * * * * * * * * * * //

dimensions      [0 0 0 0 0 0 0];

internalField   nonuniform List<scalar> 
500
(
7.90445e-48
2.28588e-47
4.11615e-47
6.1753e-47
8.39264e-47
1.07218e-46
1.31331e-46
1.56088e-46
1.81393e-46
2.07217e-46
2.33579e-46
2.60536e-46
2.88181e-46
3.16627e-46
3.4601e-46
3.7647e-46
4.08147e-46
4.41165e-46
4.75619e-46
5.11561e-46
5.48984e-46
5.87814e-46
6.27898e-46
6.69003e-46
7.10816e-46
7.52955e-46
7.94981e-46
8.3642e-46
8.76784e-46
9.15597e-46
9.52421e-46
9.86874e-46
1.01865e-45
1.04755e-45
1.07343e-45
1.09628e-45
1.11615e-45
1.13317e-45
1.14755e-45
1.1595e-45
1.1693e-45
1.17722e-45
1.18353e-45
1.18848e-45
1.19231e-45
1.19523e-45
1.19744e-45
1.19908e-45
1.20028e-45
1.20115e-45
1.20177e-45
1.20221e-45
1.20251e-45
1.20273e-45
1.20287e-45
1.20297e-45
1.20303e-45
1.20308e-45
1.2031e-45
1.20312e-45
1.20314e-45
1.20315e-45
1.20315e-45
1.20316e-45
1.20316e-45
1.20317e-45
1.20317e-45
1.20318e-45
1.20318e-45
1.20319e-45
1.2032e-45
1.2032e-45
1.20321e-45
1.20322e-45
1.20323e-45
1.20323e-45
1.20324e-45
1.20325e-45
1.20327e-45
1.20328e-45
1.20329e-45
1.2033e-45
1.20332e-45
1.20333e-45
1.20335e-45
1.20337e-45
1.20339e-45
1.2034e-45
1.20342e-45
1.20345e-45
1.20347e-45
1.20349e-45
1.20352e-45
1.20354e-45
1.20357e-45
1.2036e-45
1.20363e-45
1.20366e-45
1.20369e-45
1.20372e-45
1.20376e-45
1.2038e-45
1.20383e-45
1.20387e-45
1.20391e-45
1.20396e-45
1.204e-45
1.20405e-45
1.20409e-45
1.20414e-45
1.20419e-45
1.20425e-45
1.2043e-45
1.20435e-45
1.20441e-45
1.20447e-45
1.20453e-45
1.20459e-45
1.20466e-45
1.20472e-45
1.20479e-45
1.20484e-45
1.20483e-45
1.20454e-45
1.20304e-45
1.20023e-45
1.20102e-45
1.20199e-45
1.20304e-45
1.20405e-45
1.20491e-45
1.20557e-45
1.20603e-45
1.20632e-45
1.20647e-45
1.20652e-45
1.2065e-45
1.20644e-45
1.20633e-45
1.20619e-45
1.20604e-45
1.20587e-45
1.2057e-45
1.20554e-45
1.20539e-45
1.20527e-45
1.20519e-45
1.20515e-45
1.20516e-45
1.20522e-45
1.20533e-45
1.20549e-45
1.20569e-45
1.20592e-45
1.20617e-45
1.20644e-45
1.20672e-45
1.207e-45
1.20727e-45
1.20753e-45
1.20777e-45
1.20799e-45
1.2082e-45
1.20838e-45
1.20855e-45
1.20869e-45
1.20883e-45
1.20894e-45
1.20904e-45
1.20914e-45
1.20922e-45
1.20929e-45
1.20935e-45
1.2094e-45
1.20945e-45
1.20948e-45
1.20951e-45
1.20954e-45
1.20955e-45
1.20956e-45
1.20955e-45
1.20954e-45
1.20952e-45
1.20949e-45
1.20945e-45
1.2094e-45
1.20934e-45
1.20926e-45
1.20918e-45
1.20908e-45
1.20896e-45
1.20884e-45
1.2087e-45
1.20855e-45
1.20838e-45
1.20819e-45
1.20799e-45
1.20777e-45
1.20753e-45
1.20728e-45
1.20701e-45
1.20672e-45
1.2064e-45
1.20607e-45
1.20573e-45
1.20537e-45
1.20508e-45
1.20519e-45
1.20738e-45
1.22001e-45
1.28425e-45
1.60106e-45
3.14405e-45
1.05958e-44
4.63263e-44
2.16574e-43
1.02344e-42
4.83178e-42
2.27598e-41
1.07093e-40
5.04351e-40
2.3828e-39
1.1321e-38
5.42183e-38
2.62261e-37
1.28297e-36
6.35007e-36
3.17816e-35
1.6061e-34
8.1776e-34
4.18431e-33
2.14584e-32
1.10008e-31
5.62467e-31
2.86244e-30
1.4475e-29
7.26346e-29
3.61276e-28
1.7796e-27
8.67545e-27
4.18321e-26
1.99431e-25
9.39762e-25
4.37645e-24
2.01427e-23
9.16445e-23
4.12349e-22
1.83583e-21
8.09216e-21
3.53331e-20
1.52878e-19
6.63953e-19
2.8357e-18
1.19582e-17
4.99865e-17
2.07379e-16
8.54521e-16
3.49957e-15
1.42534e-14
5.77702e-14
2.3315e-13
9.3747e-13
3.75752e-12
1.50203e-11
5.99065e-11
2.38484e-10
9.47929e-10
3.76315e-09
1.49241e-08
5.91385e-08
2.34178e-07
9.26659e-07
3.66358e-06
1.44601e-05
5.6842e-05
0.000220965
0.000832756
0.00289724
0.00850283
0.0194572
0.0349037
0.0537999
0.0765723
0.102367
0.127664
0.148653
0.16584
0.176874
0.184303
0.189309
0.192757
0.195223
0.197071
0.198529
0.199735
0.200773
0.201697
0.202537
0.203315
0.204043
0.204731
0.205384
0.206007
0.206602
0.207172
0.207719
0.208244
0.20875
0.209236
0.209705
0.210156
0.210592
0.210998
0.211386
0.211762
0.212129
0.212487
0.212835
0.213175
0.213507
0.213831
0.214148
0.214457
0.21476
0.215056
0.215346
0.215629
0.215907
0.21618
0.216447
0.216709
0.216966
0.217219
0.217466
0.217709
0.217948
0.218183
0.218414
0.218641
0.218864
0.219083
0.219299
0.219511
0.21972
0.219926
0.220129
0.220329
0.220525
0.220719
0.22091
0.221099
0.221285
0.221468
0.221649
0.221828
0.222004
0.222178
0.22235
0.22252
0.222688
0.222854
0.223019
0.223182
0.223343
0.223502
0.22366
0.223817
0.223973
0.224127
0.224281
0.224434
0.224587
0.22474
0.224893
0.225048
0.225205
0.225361
0.225512
0.225662
0.225812
0.225961
0.226111
0.226261
0.226411
0.226562
0.226713
0.226864
0.227017
0.22717
0.227324
0.227479
0.227636
0.227794
0.227953
0.228113
0.228276
0.22844
0.228606
0.228773
0.228943
0.229115
0.229288
0.229464
0.229641
0.229821
0.230002
0.230185
0.230369
0.230555
0.230743
0.230932
0.231121
0.231312
0.231504
0.231695
0.231888
0.23208
0.232272
0.232463
0.232654
0.232844
0.233033
0.23322
0.233406
0.23359
0.233772
0.233952
0.23413
0.234305
0.234478
0.234647
0.234814
0.234978
0.235139
0.235297
0.235452
0.235604
0.235752
0.235898
0.23604
0.23618
0.236316
0.23645
0.23658
0.236708
0.236834
0.236956
0.237076
0.237193
0.237308
0.237421
0.237531
0.237639
0.237744
0.237847
0.237948
0.238047
0.238143
0.238238
0.23833
0.238419
0.238507
0.238591
0.238674
0.238754
0.238832
0.238907
0.238979
0.239049
0.239117
0.239181
0.239243
0.239303
0.239359
0.239413
0.239464
0.239513
0.239559
0.239602
0.239642
0.23968
0.239716
0.239749
0.239779
0.239808
0.239834
0.239858
0.23988
0.2399
0.239918
0.239935
0.239949
0.239962
0.239974
0.239984
0.239992
0.239998
0.240003
0.240006
0.240007
)
;

boundaryField
{
    boundary
    {
        type            empty;
    }
    inlet
    {
        type            fixedValue;
        value           uniform 0;
    }
    outlet
    {
        type            zeroGradient;
    }
}


// ************************************************************************* //
