/*--------------------------------*- C++ -*----------------------------------*\
  =========                 |
  \\      /  F ield         | OpenFOAM: The Open Source CFD Toolbox
   \\    /   O peration     | Website:  https://openfoam.org
    \\  /    A nd           | Version:  7
     \\/     M anipulation  |
\*---------------------------------------------------------------------------*/
FoamFile
{
    version     2.0;
    format      ascii;
    class       volScalarField;
    location    "0.00041";
    object      HO2;
}
// * * * * * * * * * * * * * * * * * * * * * * * * * * * * * * * * * * * * * //

dimensions      [0 0 0 0 0 0 0];

internalField   nonuniform List<scalar> 
500
(
5.6026e-38
1.27588e-37
1.99517e-37
2.71633e-37
3.43929e-37
4.16442e-37
4.8924e-37
5.6241e-37
6.36068e-37
7.10362e-37
7.85478e-37
8.61639e-37
9.39102e-37
1.01816e-36
1.09911e-36
1.18227e-36
1.26792e-36
1.35631e-36
1.44758e-36
1.54179e-36
1.63883e-36
1.73843e-36
1.84017e-36
1.94339e-36
2.04732e-36
2.15099e-36
2.25336e-36
2.35331e-36
2.44974e-36
2.54159e-36
2.62792e-36
2.70796e-36
2.78113e-36
2.84706e-36
2.90561e-36
2.95685e-36
3.00103e-36
3.03857e-36
3.06999e-36
3.09592e-36
3.11701e-36
3.13391e-36
3.14726e-36
3.15766e-36
3.16565e-36
3.17171e-36
3.17624e-36
3.17958e-36
3.18202e-36
3.18377e-36
3.18501e-36
3.18588e-36
3.18649e-36
3.1869e-36
3.18719e-36
3.18737e-36
3.1875e-36
3.18759e-36
3.18764e-36
3.18768e-36
3.18771e-36
3.18773e-36
3.18774e-36
3.18775e-36
3.18777e-36
3.18778e-36
3.18779e-36
3.1878e-36
3.18781e-36
3.18783e-36
3.18784e-36
3.18785e-36
3.18787e-36
3.18789e-36
3.18791e-36
3.18793e-36
3.18795e-36
3.18797e-36
3.188e-36
3.18802e-36
3.18805e-36
3.18808e-36
3.18811e-36
3.18814e-36
3.18818e-36
3.18822e-36
3.18825e-36
3.18829e-36
3.18834e-36
3.18838e-36
3.18843e-36
3.18848e-36
3.18853e-36
3.18859e-36
3.18864e-36
3.1887e-36
3.18877e-36
3.18883e-36
3.1889e-36
3.18897e-36
3.18904e-36
3.18912e-36
3.1892e-36
3.18928e-36
3.18936e-36
3.18945e-36
3.18954e-36
3.18964e-36
3.18974e-36
3.18984e-36
3.18994e-36
3.19005e-36
3.19016e-36
3.19028e-36
3.19039e-36
3.19052e-36
3.19064e-36
3.19077e-36
3.1909e-36
3.19103e-36
3.19116e-36
3.19126e-36
3.19119e-36
3.19042e-36
3.18667e-36
3.17919e-36
3.18031e-36
3.18181e-36
3.18362e-36
3.1856e-36
3.18753e-36
3.18921e-36
3.19049e-36
3.1913e-36
3.19163e-36
3.19154e-36
3.19112e-36
3.19046e-36
3.18966e-36
3.18881e-36
3.18798e-36
3.18724e-36
3.18664e-36
3.18621e-36
3.18599e-36
3.18596e-36
3.18614e-36
3.18651e-36
3.18704e-36
3.18772e-36
3.18851e-36
3.18937e-36
3.19029e-36
3.19124e-36
3.19218e-36
3.19311e-36
3.19399e-36
3.19482e-36
3.19559e-36
3.19629e-36
3.19692e-36
3.19749e-36
3.19799e-36
3.19843e-36
3.19881e-36
3.19915e-36
3.19944e-36
3.1997e-36
3.19992e-36
3.20012e-36
3.20029e-36
3.20044e-36
3.20057e-36
3.20068e-36
3.20078e-36
3.20086e-36
3.20092e-36
3.20097e-36
3.201e-36
3.20102e-36
3.20102e-36
3.201e-36
3.20096e-36
3.2009e-36
3.20082e-36
3.20072e-36
3.2006e-36
3.20046e-36
3.20029e-36
3.20009e-36
3.19987e-36
3.19962e-36
3.19934e-36
3.19903e-36
3.19869e-36
3.19832e-36
3.19792e-36
3.19748e-36
3.197e-36
3.19649e-36
3.19595e-36
3.19536e-36
3.19474e-36
3.19407e-36
3.19336e-36
3.19261e-36
3.19182e-36
3.19098e-36
3.19009e-36
3.18916e-36
3.18818e-36
3.18716e-36
3.18608e-36
3.18495e-36
3.18378e-36
3.18255e-36
3.18127e-36
3.17995e-36
3.17862e-36
3.17743e-36
3.17705e-36
3.18043e-36
3.2004e-36
3.29236e-36
3.69319e-36
5.40623e-36
1.26441e-35
4.29446e-35
1.68757e-34
6.8731e-34
2.81106e-33
1.1465e-32
4.66079e-32
1.89119e-31
7.67589e-31
3.12418e-30
1.27861e-29
5.27574e-29
2.19967e-28
9.28195e-28
3.96633e-27
1.71562e-26
7.5015e-26
3.30906e-25
1.46924e-24
6.55111e-24
2.92722e-23
1.30836e-22
5.84092e-22
2.60131e-21
1.15469e-20
5.16008e-20
2.28061e-19
9.99809e-19
4.36051e-18
1.89344e-17
8.18902e-17
3.52883e-16
1.51565e-15
6.4906e-15
2.77225e-14
1.18135e-13
5.02391e-13
2.13275e-12
9.04e-12
3.8266e-11
1.61785e-10
6.83259e-10
2.88248e-09
1.21467e-08
5.1108e-08
2.14467e-07
8.94518e-07
3.6789e-06
1.47012e-05
5.50043e-05
0.000177011
0.000404888
0.000521416
0.00046938
0.000359167
0.00025618
0.000179661
0.00012563
8.77292e-05
6.19258e-05
4.33885e-05
3.23737e-05
2.53232e-05
2.07327e-05
1.76508e-05
1.54982e-05
1.39281e-05
1.27333e-05
1.17888e-05
1.10173e-05
1.03702e-05
9.81567e-06
9.33254e-06
8.90598e-06
8.5254e-06
8.18298e-06
7.87275e-06
7.59007e-06
7.33124e-06
7.09328e-06
6.87369e-06
6.6704e-06
6.48167e-06
6.30602e-06
6.14224e-06
5.98931e-06
5.85069e-06
5.72205e-06
5.60013e-06
5.48443e-06
5.37446e-06
5.26982e-06
5.1701e-06
5.07498e-06
4.98413e-06
4.89727e-06
4.81415e-06
4.73452e-06
4.65818e-06
4.58493e-06
4.51458e-06
4.44696e-06
4.38193e-06
4.31934e-06
4.25905e-06
4.20095e-06
4.14491e-06
4.09084e-06
4.03863e-06
3.9882e-06
3.93944e-06
3.8923e-06
3.84668e-06
3.80251e-06
3.75974e-06
3.71829e-06
3.67811e-06
3.63915e-06
3.60134e-06
3.56464e-06
3.529e-06
3.49439e-06
3.46074e-06
3.42804e-06
3.39623e-06
3.36528e-06
3.33517e-06
3.30584e-06
3.27728e-06
3.24945e-06
3.22233e-06
3.19588e-06
3.17008e-06
3.1449e-06
3.12033e-06
3.09633e-06
3.07288e-06
3.04995e-06
3.02753e-06
3.0056e-06
2.98412e-06
2.96307e-06
2.94243e-06
2.92218e-06
2.90227e-06
2.88268e-06
2.86336e-06
2.84424e-06
2.82525e-06
2.80626e-06
2.78755e-06
2.76953e-06
2.75176e-06
2.73421e-06
2.71684e-06
2.69963e-06
2.68255e-06
2.66559e-06
2.64872e-06
2.63191e-06
2.61515e-06
2.59842e-06
2.58168e-06
2.56493e-06
2.54814e-06
2.53128e-06
2.51434e-06
2.49729e-06
2.48012e-06
2.46281e-06
2.44533e-06
2.42766e-06
2.4098e-06
2.39172e-06
2.37341e-06
2.35486e-06
2.33605e-06
2.31698e-06
2.29765e-06
2.27804e-06
2.25815e-06
2.238e-06
2.21759e-06
2.19691e-06
2.17599e-06
2.15484e-06
2.13347e-06
2.11192e-06
2.09019e-06
2.06833e-06
2.04636e-06
2.02432e-06
2.00223e-06
1.98015e-06
1.95812e-06
1.93616e-06
1.91435e-06
1.89271e-06
1.8713e-06
1.85018e-06
1.82938e-06
1.80897e-06
1.78899e-06
1.76949e-06
1.75053e-06
1.73215e-06
1.7144e-06
1.69733e-06
1.68098e-06
1.66539e-06
1.6506e-06
1.63664e-06
1.62355e-06
1.61135e-06
1.60006e-06
1.5897e-06
1.58029e-06
1.57183e-06
1.56432e-06
1.55777e-06
1.55216e-06
1.54748e-06
1.54373e-06
1.54086e-06
1.53885e-06
1.53768e-06
1.53731e-06
1.53769e-06
1.53878e-06
1.54054e-06
1.54291e-06
1.54585e-06
1.54931e-06
1.55322e-06
1.55754e-06
1.56221e-06
1.56718e-06
1.57241e-06
1.57783e-06
1.58341e-06
1.5891e-06
1.59487e-06
1.60066e-06
1.60646e-06
1.61222e-06
1.61793e-06
1.62355e-06
1.62907e-06
1.63447e-06
1.63974e-06
1.64486e-06
1.64983e-06
1.65465e-06
1.6593e-06
1.6638e-06
1.66813e-06
1.6723e-06
1.67631e-06
1.68017e-06
1.68387e-06
1.68743e-06
1.69085e-06
1.69412e-06
1.69726e-06
1.70026e-06
1.70314e-06
1.70588e-06
1.70848e-06
1.71095e-06
1.71326e-06
1.71541e-06
1.71733e-06
1.71895e-06
1.72002e-06
)
;

boundaryField
{
    boundary
    {
        type            empty;
    }
    inlet
    {
        type            fixedValue;
        value           uniform 0;
    }
    outlet
    {
        type            zeroGradient;
    }
}


// ************************************************************************* //
