/*--------------------------------*- C++ -*----------------------------------*\
  =========                 |
  \\      /  F ield         | OpenFOAM: The Open Source CFD Toolbox
   \\    /   O peration     | Website:  https://openfoam.org
    \\  /    A nd           | Version:  7
     \\/     M anipulation  |
\*---------------------------------------------------------------------------*/
FoamFile
{
    version     2.0;
    format      ascii;
    class       volScalarField;
    location    "0.00041";
    object      N2;
}
// * * * * * * * * * * * * * * * * * * * * * * * * * * * * * * * * * * * * * //

dimensions      [0 0 0 0 0 0 0];

internalField   nonuniform List<scalar> 
500
(
0.745219
0.745219
0.745219
0.745219
0.745219
0.745219
0.745219
0.745219
0.745219
0.745219
0.745219
0.745219
0.745219
0.745219
0.745219
0.745219
0.745219
0.745219
0.745219
0.745219
0.745219
0.745219
0.745219
0.745219
0.745219
0.745219
0.745219
0.74522
0.74522
0.74522
0.74522
0.74522
0.74522
0.74522
0.74522
0.74522
0.74522
0.74522
0.74522
0.74522
0.74522
0.74522
0.74522
0.74522
0.74522
0.74522
0.74522
0.74522
0.74522
0.74522
0.74522
0.74522
0.74522
0.74522
0.74522
0.74522
0.74522
0.74522
0.74522
0.74522
0.74522
0.74522
0.74522
0.74522
0.74522
0.74522
0.74522
0.74522
0.74522
0.74522
0.74522
0.74522
0.74522
0.74522
0.74522
0.74522
0.74522
0.74522
0.74522
0.74522
0.74522
0.74522
0.74522
0.74522
0.74522
0.74522
0.74522
0.74522
0.74522
0.74522
0.74522
0.74522
0.74522
0.74522
0.74522
0.74522
0.74522
0.74522
0.74522
0.74522
0.74522
0.74522
0.74522
0.74522
0.74522
0.74522
0.74522
0.74522
0.74522
0.74522
0.74522
0.74522
0.74522
0.74522
0.74522
0.74522
0.74522
0.74522
0.74522
0.74522
0.74522
0.74522
0.74522
0.74522
0.74522
0.74522
0.74522
0.74522
0.74522
0.74522
0.74522
0.74522
0.74522
0.74522
0.74522
0.74522
0.74522
0.74522
0.74522
0.74522
0.74522
0.74522
0.74522
0.74522
0.74522
0.74522
0.74522
0.74522
0.74522
0.74522
0.74522
0.74522
0.74522
0.74522
0.74522
0.74522
0.74522
0.74522
0.74522
0.74522
0.74522
0.74522
0.74522
0.74522
0.74522
0.74522
0.74522
0.74522
0.74522
0.74522
0.74522
0.74522
0.74522
0.74522
0.74522
0.74522
0.74522
0.74522
0.74522
0.74522
0.74522
0.74522
0.74522
0.74522
0.74522
0.74522
0.74522
0.74522
0.74522
0.74522
0.74522
0.74522
0.74522
0.74522
0.74522
0.74522
0.74522
0.74522
0.74522
0.74522
0.74522
0.74522
0.74522
0.74522
0.74522
0.74522
0.74522
0.74522
0.74522
0.74522
0.74522
0.74522
0.74522
0.74522
0.74522
0.74522
0.74522
0.74522
0.74522
0.74522
0.74522
0.74522
0.74522
0.74522
0.74522
0.74522
0.74522
0.74522
0.74522
0.74522
0.74522
0.74522
0.74522
0.74522
0.74522
0.74522
0.74522
0.74522
0.74522
0.74522
0.74522
0.74522
0.74522
0.74522
0.74522
0.74522
0.74522
0.74522
0.74522
0.74522
0.74522
0.74522
0.74522
0.74522
0.74522
0.74522
0.74522
0.74522
0.74522
0.74522
0.74522
0.74522
0.74522
0.74522
0.74522
0.74522
0.74522
0.74522
0.745221
0.745223
0.745227
0.745234
0.74525
0.74528
0.745338
0.745436
0.745565
0.745626
0.745472
0.745126
0.744641
0.744073
0.743667
0.743636
0.743906
0.744194
0.744678
0.744921
0.745088
0.745194
0.745258
0.745295
0.745315
0.745325
0.745328
0.745329
0.745328
0.745326
0.745324
0.745323
0.745321
0.745319
0.745318
0.745317
0.745315
0.745314
0.745312
0.745311
0.745309
0.745307
0.745306
0.745304
0.745302
0.7453
0.745298
0.745296
0.745294
0.745292
0.74529
0.745289
0.745287
0.745285
0.745284
0.745282
0.745281
0.745279
0.745278
0.745277
0.745275
0.745274
0.745273
0.745272
0.745271
0.745269
0.745268
0.745267
0.745266
0.745265
0.745264
0.745263
0.745262
0.745262
0.745261
0.74526
0.745259
0.745258
0.745257
0.745256
0.745255
0.745254
0.745253
0.745252
0.745251
0.74525
0.745249
0.745248
0.745247
0.745245
0.745244
0.745242
0.745241
0.745239
0.745237
0.745235
0.745233
0.745231
0.745228
0.745226
0.745223
0.74522
0.745217
0.745213
0.74521
0.745205
0.7452
0.745194
0.745189
0.745185
0.745181
0.745177
0.745173
0.745169
0.745165
0.745161
0.745158
0.745154
0.745151
0.745148
0.745146
0.745143
0.745141
0.745139
0.745138
0.745137
0.745136
0.745136
0.745136
0.745136
0.745137
0.745139
0.745141
0.745143
0.745147
0.74515
0.745155
0.74516
0.745166
0.745173
0.745181
0.745189
0.745198
0.745209
0.74522
0.745232
0.745245
0.745259
0.745274
0.745289
0.745305
0.745322
0.745339
0.745357
0.745375
0.745394
0.745412
0.74543
0.745449
0.745467
0.745484
0.745501
0.745518
0.745533
0.745547
0.745561
0.745573
0.745583
0.745592
0.7456
0.745605
0.745609
0.745611
0.745611
0.745609
0.745605
0.745599
0.745591
0.745582
0.74557
0.745556
0.745541
0.745524
0.745505
0.745486
0.745464
0.745442
0.745419
0.745395
0.74537
0.745345
0.74532
0.745295
0.745269
0.745244
0.74522
0.745196
0.745173
0.74515
0.745129
0.745109
0.74509
0.745072
0.745056
0.745041
0.745028
0.745016
0.745005
0.744996
0.744989
0.744983
0.744979
0.744976
0.744974
0.744974
0.744974
0.744976
0.744979
0.744983
0.744987
0.744993
0.744999
0.745005
0.745012
0.745019
0.745026
0.745033
0.74504
0.745046
0.745051
0.745055
0.745057
)
;

boundaryField
{
    boundary
    {
        type            empty;
    }
    inlet
    {
        type            fixedValue;
        value           uniform 0.74522;
    }
    outlet
    {
        type            zeroGradient;
    }
}


// ************************************************************************* //
