/*--------------------------------*- C++ -*----------------------------------*\
  =========                 |
  \\      /  F ield         | OpenFOAM: The Open Source CFD Toolbox
   \\    /   O peration     | Website:  https://openfoam.org
    \\  /    A nd           | Version:  7
     \\/     M anipulation  |
\*---------------------------------------------------------------------------*/
FoamFile
{
    version     2.0;
    format      ascii;
    class       volScalarField;
    location    "0.00041";
    object      O;
}
// * * * * * * * * * * * * * * * * * * * * * * * * * * * * * * * * * * * * * //

dimensions      [0 0 0 0 0 0 0];

internalField   nonuniform List<scalar> 
500
(
1.58107e-47
3.77593e-47
5.98783e-47
8.20674e-47
1.0432e-46
1.26654e-46
1.49101e-46
1.71701e-46
1.94507e-46
2.17582e-46
2.41006e-46
2.6487e-46
2.89279e-46
3.14348e-46
3.40197e-46
3.66949e-46
3.94715e-46
4.23592e-46
4.53652e-46
4.84928e-46
5.17406e-46
5.51022e-46
5.85649e-46
6.21099e-46
6.57125e-46
6.93424e-46
7.29652e-46
7.65432e-46
8.00376e-46
8.34101e-46
8.66249e-46
8.96502e-46
9.24596e-46
9.50335e-46
9.73596e-46
9.94326e-46
1.01254e-45
1.02833e-45
1.04182e-45
1.05319e-45
1.06264e-45
1.07038e-45
1.07664e-45
1.08163e-45
1.08555e-45
1.0886e-45
1.09094e-45
1.09271e-45
1.09403e-45
1.095e-45
1.09571e-45
1.09622e-45
1.09658e-45
1.09684e-45
1.09702e-45
1.09714e-45
1.09722e-45
1.09728e-45
1.09732e-45
1.09734e-45
1.09736e-45
1.09737e-45
1.09738e-45
1.09739e-45
1.09739e-45
1.0974e-45
1.0974e-45
1.09741e-45
1.09741e-45
1.09742e-45
1.09743e-45
1.09743e-45
1.09744e-45
1.09745e-45
1.09746e-45
1.09746e-45
1.09747e-45
1.09748e-45
1.09749e-45
1.0975e-45
1.09752e-45
1.09753e-45
1.09754e-45
1.09756e-45
1.09757e-45
1.09759e-45
1.0976e-45
1.09762e-45
1.09764e-45
1.09766e-45
1.09768e-45
1.0977e-45
1.09773e-45
1.09775e-45
1.09777e-45
1.0978e-45
1.09783e-45
1.09786e-45
1.09789e-45
1.09792e-45
1.09795e-45
1.09798e-45
1.09802e-45
1.09805e-45
1.09809e-45
1.09813e-45
1.09817e-45
1.09821e-45
1.09826e-45
1.0983e-45
1.09835e-45
1.0984e-45
1.09844e-45
1.0985e-45
1.09855e-45
1.0986e-45
1.09866e-45
1.09871e-45
1.09877e-45
1.09883e-45
1.0989e-45
1.09896e-45
1.09905e-45
1.09914e-45
1.09887e-45
1.09835e-45
1.09955e-45
1.09991e-45
1.09989e-45
1.09977e-45
1.09966e-45
1.09959e-45
1.09957e-45
1.09959e-45
1.09962e-45
1.09967e-45
1.09971e-45
1.09975e-45
1.09978e-45
1.09981e-45
1.09983e-45
1.09984e-45
1.09986e-45
1.09987e-45
1.09988e-45
1.0999e-45
1.09992e-45
1.09996e-45
1.10002e-45
1.10009e-45
1.10018e-45
1.10029e-45
1.10041e-45
1.10056e-45
1.10071e-45
1.10088e-45
1.10105e-45
1.10123e-45
1.1014e-45
1.10158e-45
1.10175e-45
1.10191e-45
1.10206e-45
1.10221e-45
1.10234e-45
1.10246e-45
1.10257e-45
1.10267e-45
1.10276e-45
1.10284e-45
1.10292e-45
1.10298e-45
1.10304e-45
1.10309e-45
1.10313e-45
1.10317e-45
1.10319e-45
1.10321e-45
1.10323e-45
1.10323e-45
1.10323e-45
1.10322e-45
1.1032e-45
1.10317e-45
1.10314e-45
1.10309e-45
1.10303e-45
1.10296e-45
1.10289e-45
1.1028e-45
1.10269e-45
1.10258e-45
1.10245e-45
1.10231e-45
1.10216e-45
1.10199e-45
1.1018e-45
1.10161e-45
1.10139e-45
1.10116e-45
1.10092e-45
1.10066e-45
1.10045e-45
1.1005e-45
1.10199e-45
1.1108e-45
1.15646e-45
1.38535e-45
2.51701e-45
8.05529e-45
3.49044e-44
1.63852e-43
7.77329e-43
3.66835e-42
1.71621e-41
7.95361e-41
3.65047e-40
1.6591e-39
7.4661e-39
3.32641e-38
1.46717e-37
6.40577e-37
2.76831e-36
1.18407e-35
5.01213e-35
2.09954e-34
8.70268e-34
3.56929e-33
1.44839e-32
5.81498e-32
2.30966e-31
9.07558e-31
3.52792e-30
1.35668e-29
5.16123e-29
1.94248e-28
7.23277e-28
2.66454e-27
9.7129e-27
3.50373e-26
1.25092e-25
4.42107e-25
1.54708e-24
5.36161e-24
1.84071e-23
6.2618e-23
2.11119e-22
7.05534e-22
2.33685e-21
7.66799e-21
2.49104e-20
8.0876e-20
2.60517e-19
8.33207e-19
2.65003e-18
8.38609e-18
2.6417e-17
8.28765e-17
2.59065e-16
8.07257e-16
2.50858e-15
7.77739e-15
2.40652e-14
7.43437e-14
2.29366e-13
7.06904e-13
2.17691e-12
6.69966e-12
2.06096e-11
6.33798e-11
1.94877e-10
5.99249e-10
1.84433e-09
5.69952e-09
1.7915e-08
6.00627e-08
2.44117e-07
1.3937e-06
9.73156e-06
5.46249e-05
0.000233731
0.000776437
0.00182683
0.00318065
0.00446071
0.00542086
0.00603699
0.00633664
0.00644061
0.00642142
0.00632925
0.00619663
0.0060437
0.00588258
0.00572033
0.00556096
0.00540662
0.00525838
0.00511669
0.00498162
0.00485303
0.00473069
0.00461429
0.00450354
0.00439809
0.00429765
0.0042019
0.00411057
0.00402338
0.00394008
0.00386045
0.00378431
0.00371369
0.00364708
0.0035828
0.00352072
0.0034607
0.00340264
0.00334645
0.00329202
0.00323927
0.00318812
0.0031385
0.00309034
0.00304356
0.00299811
0.00295393
0.00291097
0.00286917
0.00282849
0.00278887
0.00275028
0.00271268
0.00267603
0.00264028
0.00260542
0.00257139
0.00253818
0.00250576
0.00247408
0.00244314
0.0024129
0.00238333
0.00235443
0.00232615
0.00229849
0.00227142
0.00224493
0.00221899
0.00219358
0.0021687
0.00214432
0.00212044
0.00209702
0.00207406
0.00205155
0.00202948
0.00200782
0.00198657
0.00196571
0.00194523
0.00192513
0.00190538
0.00188599
0.00186693
0.00184819
0.00182977
0.00181166
0.00179383
0.00177628
0.00175899
0.00174194
0.0017251
0.00170845
0.00169193
0.00167552
0.00165933
0.00164351
0.00162788
0.00161242
0.00159712
0.00158197
0.00156695
0.00155205
0.00153727
0.00152259
0.00150801
0.00149351
0.00147908
0.00146471
0.0014504
0.00143613
0.0014219
0.00140769
0.00139349
0.0013793
0.00136511
0.0013509
0.00133668
0.00132243
0.00130815
0.00129383
0.00127948
0.00126507
0.00125062
0.00123612
0.00122157
0.00120697
0.00119233
0.00117764
0.00116291
0.00114816
0.00113338
0.00111858
0.00110377
0.00108897
0.00107418
0.00105942
0.0010447
0.00103003
0.00101543
0.00100091
0.000986491
0.000972184
0.000958005
0.000943968
0.000930088
0.00091638
0.000902858
0.000889533
0.000876419
0.000863528
0.000850868
0.00083845
0.000826282
0.00081437
0.000802721
0.000791338
0.000780226
0.000769385
0.000758817
0.000748521
0.000738495
0.000728736
0.00071924
0.000710003
0.000701018
0.000692278
0.000683777
0.000675507
0.000667458
0.000659623
0.000651991
0.000644554
0.000637303
0.000630227
0.000623317
0.000616566
0.000609963
0.000603501
0.000597171
0.000590966
0.000584879
0.000578904
0.000573035
0.000567267
0.000561597
0.000556019
0.000550531
0.000545132
0.000539818
0.000534589
0.000529445
0.000524386
0.000519411
0.000514523
0.000509721
0.000505009
0.000500388
0.000495861
0.000491429
0.000487095
0.000482863
0.000478734
0.000474713
0.000470803
0.000467006
0.000463326
0.000459769
0.000456339
0.000453043
0.00044989
0.000446891
0.000444062
0.000441424
0.000439007
0.000436856
0.000435029
0.000433617
0.000432766
)
;

boundaryField
{
    boundary
    {
        type            empty;
    }
    inlet
    {
        type            fixedValue;
        value           uniform 0;
    }
    outlet
    {
        type            zeroGradient;
    }
}


// ************************************************************************* //
