/*--------------------------------*- C++ -*----------------------------------*\
  =========                 |
  \\      /  F ield         | OpenFOAM: The Open Source CFD Toolbox
   \\    /   O peration     | Website:  https://openfoam.org
    \\  /    A nd           | Version:  7
     \\/     M anipulation  |
\*---------------------------------------------------------------------------*/
FoamFile
{
    version     2.0;
    format      ascii;
    class       volScalarField;
    location    "0.00041";
    object      OH;
}
// * * * * * * * * * * * * * * * * * * * * * * * * * * * * * * * * * * * * * //

dimensions      [0 0 0 0 0 0 0];

internalField   nonuniform List<scalar> 
500
(
9.39882e-48
1.83317e-47
2.4456e-47
2.86221e-47
3.146e-47
3.34062e-47
3.47578e-47
3.57161e-47
3.64178e-47
3.6957e-47
3.7399e-47
3.77902e-47
3.81648e-47
3.8549e-47
3.89633e-47
3.94248e-47
3.99479e-47
4.05447e-47
4.12251e-47
4.19971e-47
4.28657e-47
4.38335e-47
4.48996e-47
4.60596e-47
4.73055e-47
4.86255e-47
5.00046e-47
5.14246e-47
5.28649e-47
5.43037e-47
5.57188e-47
5.70887e-47
5.8394e-47
5.96179e-47
6.07471e-47
6.17723e-47
6.26883e-47
6.34939e-47
6.41914e-47
6.4786e-47
6.52853e-47
6.56984e-47
6.60351e-47
6.63058e-47
6.65203e-47
6.6688e-47
6.68173e-47
6.69158e-47
6.69898e-47
6.70447e-47
6.7085e-47
6.71143e-47
6.71352e-47
6.71501e-47
6.71606e-47
6.71679e-47
6.71729e-47
6.71765e-47
6.71789e-47
6.71807e-47
6.71819e-47
6.71829e-47
6.71836e-47
6.71843e-47
6.71848e-47
6.71854e-47
6.71859e-47
6.71864e-47
6.7187e-47
6.71875e-47
6.71881e-47
6.71888e-47
6.71894e-47
6.71901e-47
6.71908e-47
6.71916e-47
6.71924e-47
6.71932e-47
6.71941e-47
6.71951e-47
6.7196e-47
6.71971e-47
6.71981e-47
6.71993e-47
6.72004e-47
6.72017e-47
6.7203e-47
6.72043e-47
6.72057e-47
6.72072e-47
6.72087e-47
6.72103e-47
6.72119e-47
6.72137e-47
6.72155e-47
6.72173e-47
6.72193e-47
6.72213e-47
6.72234e-47
6.72255e-47
6.72278e-47
6.72301e-47
6.72325e-47
6.7235e-47
6.72376e-47
6.72402e-47
6.7243e-47
6.72458e-47
6.72487e-47
6.72517e-47
6.72548e-47
6.7258e-47
6.72613e-47
6.72647e-47
6.72682e-47
6.72718e-47
6.72754e-47
6.72792e-47
6.7283e-47
6.7287e-47
6.7291e-47
6.72952e-47
6.72994e-47
6.73035e-47
6.73053e-47
6.73056e-47
6.73152e-47
6.7322e-47
6.73272e-47
6.73318e-47
6.73363e-47
6.73409e-47
6.73457e-47
6.73505e-47
6.73555e-47
6.73605e-47
6.73655e-47
6.73706e-47
6.73756e-47
6.73807e-47
6.73857e-47
6.73908e-47
6.73958e-47
6.7401e-47
6.74062e-47
6.74115e-47
6.74169e-47
6.74224e-47
6.74281e-47
6.7434e-47
6.744e-47
6.74461e-47
6.74524e-47
6.74588e-47
6.74653e-47
6.74718e-47
6.74784e-47
6.74849e-47
6.74914e-47
6.74978e-47
6.7504e-47
6.75101e-47
6.75161e-47
6.75218e-47
6.75273e-47
6.75326e-47
6.75376e-47
6.75424e-47
6.7547e-47
6.75512e-47
6.75552e-47
6.75589e-47
6.75622e-47
6.75653e-47
6.7568e-47
6.75704e-47
6.75724e-47
6.7574e-47
6.75752e-47
6.75759e-47
6.75762e-47
6.75761e-47
6.75754e-47
6.75742e-47
6.75725e-47
6.75702e-47
6.75673e-47
6.75638e-47
6.75596e-47
6.75548e-47
6.75492e-47
6.75429e-47
6.75359e-47
6.7528e-47
6.75194e-47
6.75099e-47
6.74995e-47
6.74882e-47
6.7476e-47
6.74628e-47
6.74486e-47
6.74335e-47
6.74173e-47
6.74006e-47
6.73853e-47
6.73815e-47
6.74396e-47
6.78109e-47
6.97305e-47
7.92181e-47
1.25338e-46
3.47097e-46
1.40303e-45
6.383e-45
2.96446e-44
1.37251e-43
6.30184e-43
2.86606e-42
1.29071e-41
5.75492e-41
2.54025e-40
1.10995e-39
4.80049e-39
2.0549e-38
8.70537e-38
3.64962e-37
1.51407e-36
6.21521e-36
2.52442e-35
1.01449e-34
4.03368e-34
1.5868e-33
6.17609e-33
2.37842e-32
9.063e-32
3.41746e-31
1.27539e-30
4.71162e-30
1.72345e-29
6.24428e-29
2.24195e-28
7.98185e-28
2.82021e-27
9.89998e-27
3.45764e-26
1.20366e-25
4.18582e-25
1.45819e-24
5.1057e-24
1.80416e-23
6.46735e-23
2.38693e-22
9.01003e-22
3.49289e-21
1.39386e-20
5.71956e-20
2.40625e-19
1.03381e-18
4.51692e-18
1.99913e-17
8.93285e-17
4.01924e-16
1.81732e-15
8.24549e-15
3.75016e-14
1.70853e-13
7.79328e-13
3.55799e-12
1.62549e-11
7.4303e-11
3.42257e-10
1.59563e-09
7.49963e-09
3.55086e-08
1.71873e-07
8.92323e-07
5.39149e-06
3.69839e-05
0.000208264
0.000571795
0.000809214
0.00096999
0.00135381
0.00216001
0.00336329
0.00475087
0.00618718
0.0073648
0.0083203
0.00907351
0.00966087
0.0101193
0.0104794
0.0107648
0.010993
0.0111768
0.0113257
0.0114466
0.0115448
0.0116243
0.0116883
0.0117393
0.0117793
0.0118098
0.0118323
0.0118478
0.0118573
0.0118617
0.0118615
0.0118573
0.0118496
0.0118389
0.0118259
0.0118112
0.0117946
0.0117764
0.0117566
0.0117354
0.0117129
0.0116893
0.0116647
0.0116391
0.0116127
0.0115856
0.0115577
0.0115293
0.0115003
0.0114709
0.011441
0.0114107
0.0113801
0.0113492
0.011318
0.0112865
0.0112549
0.0112231
0.0111912
0.0111591
0.011127
0.0110947
0.0110625
0.0110301
0.0109978
0.0109654
0.010933
0.0109007
0.0108684
0.0108361
0.0108039
0.0107717
0.0107396
0.0107076
0.0106757
0.0106438
0.0106121
0.0105805
0.0105489
0.0105175
0.0104862
0.0104549
0.0104238
0.0103929
0.010362
0.0103312
0.0103006
0.0102701
0.0102396
0.0102093
0.010179
0.0101488
0.0101187
0.0100885
0.0100583
0.0100281
0.00999758
0.0099668
0.00993608
0.00990573
0.00987528
0.00984471
0.00981398
0.00978308
0.00975198
0.00972065
0.00968908
0.00965723
0.00962507
0.00959259
0.00955974
0.00952651
0.00949285
0.00945875
0.00942417
0.00938908
0.00935346
0.00931729
0.00928053
0.00924316
0.00920516
0.00916651
0.0091272
0.00908721
0.00904654
0.00900517
0.00896311
0.00892036
0.00887692
0.00883282
0.00878808
0.00874271
0.00869675
0.00865024
0.00860322
0.00855575
0.00850787
0.00845965
0.00841116
0.00836247
0.00831366
0.0082648
0.00821598
0.00816728
0.00811879
0.00807061
0.00802281
0.00797549
0.00792874
0.00788263
0.00783724
0.00779266
0.00774895
0.00770618
0.00766441
0.00762369
0.00758405
0.00754554
0.00750819
0.007472
0.00743699
0.00740315
0.00737048
0.00733895
0.00730853
0.00727919
0.00725088
0.00722355
0.00719714
0.00717158
0.0071468
0.00712273
0.00709929
0.00707639
0.00705396
0.00703191
0.00701017
0.00698864
0.00696725
0.00694593
0.00692461
0.00690322
0.0068817
0.00685999
0.00683805
0.00681584
0.00679333
0.00677049
0.0067473
0.00672376
0.00669986
0.0066756
0.00665101
0.0066261
0.00660089
0.00657542
0.00654972
0.00652383
0.00649781
0.0064717
0.00644555
0.00641941
0.00639335
0.00636741
0.00634166
0.00631616
0.00629095
0.00626611
0.00624169
0.00621774
0.00619434
0.00617155
0.00614944
0.00612811
0.00610765
0.00608819
0.00606992
0.00605306
0.00603792
0.00602497
0.00601486
0.00600869
)
;

boundaryField
{
    boundary
    {
        type            empty;
    }
    inlet
    {
        type            fixedValue;
        value           uniform 0;
    }
    outlet
    {
        type            zeroGradient;
    }
}


// ************************************************************************* //
