/*--------------------------------*- C++ -*----------------------------------*\
  =========                 |
  \\      /  F ield         | OpenFOAM: The Open Source CFD Toolbox
   \\    /   O peration     | Website:  https://openfoam.org
    \\  /    A nd           | Version:  7
     \\/     M anipulation  |
\*---------------------------------------------------------------------------*/
FoamFile
{
    version     2.0;
    format      ascii;
    class       surfaceScalarField;
    location    "0.00041";
    object      phi;
}
// * * * * * * * * * * * * * * * * * * * * * * * * * * * * * * * * * * * * * //

dimensions      [1 0 -1 0 0 0 0];

internalField   nonuniform List<scalar> 
499
(
6.9333e-06
6.93287e-06
6.93245e-06
6.93203e-06
6.93161e-06
6.93118e-06
6.93074e-06
6.93028e-06
6.92981e-06
6.9293e-06
6.92876e-06
6.92818e-06
6.92754e-06
6.92684e-06
6.92607e-06
6.92521e-06
6.92424e-06
6.92317e-06
6.92198e-06
6.92067e-06
6.91923e-06
6.91767e-06
6.91599e-06
6.91421e-06
6.91233e-06
6.91038e-06
6.90839e-06
6.90637e-06
6.90435e-06
6.90236e-06
6.90042e-06
6.89856e-06
6.89678e-06
6.89512e-06
6.89357e-06
6.89215e-06
6.89085e-06
6.88967e-06
6.88861e-06
6.88767e-06
6.88682e-06
6.88607e-06
6.8854e-06
6.88479e-06
6.88425e-06
6.88375e-06
6.88329e-06
6.88287e-06
6.88247e-06
6.88209e-06
6.88173e-06
6.88138e-06
6.88104e-06
6.88071e-06
6.88038e-06
6.88006e-06
6.87974e-06
6.87942e-06
6.8791e-06
6.87878e-06
6.87847e-06
6.87815e-06
6.87784e-06
6.87753e-06
6.87721e-06
6.8769e-06
6.87659e-06
6.87628e-06
6.87597e-06
6.87566e-06
6.87535e-06
6.87504e-06
6.87473e-06
6.87443e-06
6.87412e-06
6.87381e-06
6.87351e-06
6.8732e-06
6.8729e-06
6.8726e-06
6.8723e-06
6.87199e-06
6.87169e-06
6.87139e-06
6.87109e-06
6.8708e-06
6.8705e-06
6.8702e-06
6.86991e-06
6.86961e-06
6.86932e-06
6.86902e-06
6.86873e-06
6.86844e-06
6.86815e-06
6.86786e-06
6.86757e-06
6.86728e-06
6.86699e-06
6.86671e-06
6.86642e-06
6.86613e-06
6.86585e-06
6.86557e-06
6.86528e-06
6.865e-06
6.86472e-06
6.86444e-06
6.86416e-06
6.86388e-06
6.8636e-06
6.86332e-06
6.86305e-06
6.86277e-06
6.86249e-06
6.86222e-06
6.86194e-06
6.86167e-06
6.8614e-06
6.86113e-06
6.86085e-06
6.86058e-06
6.86031e-06
6.86004e-06
6.85978e-06
6.85951e-06
6.85924e-06
6.85897e-06
6.85871e-06
6.85844e-06
6.85818e-06
6.85791e-06
6.85765e-06
6.85739e-06
6.85712e-06
6.85686e-06
6.8566e-06
6.85634e-06
6.85608e-06
6.85582e-06
6.85556e-06
6.8553e-06
6.85504e-06
6.85478e-06
6.85453e-06
6.85427e-06
6.85401e-06
6.85376e-06
6.8535e-06
6.85325e-06
6.85299e-06
6.85274e-06
6.85248e-06
6.85223e-06
6.85198e-06
6.85172e-06
6.85147e-06
6.85122e-06
6.85097e-06
6.85072e-06
6.85047e-06
6.85022e-06
6.84997e-06
6.84972e-06
6.84947e-06
6.84922e-06
6.84898e-06
6.84873e-06
6.84848e-06
6.84824e-06
6.84799e-06
6.84775e-06
6.8475e-06
6.84726e-06
6.84702e-06
6.84678e-06
6.84653e-06
6.84629e-06
6.84605e-06
6.84581e-06
6.84557e-06
6.84534e-06
6.8451e-06
6.84486e-06
6.84462e-06
6.84439e-06
6.84415e-06
6.84392e-06
6.84369e-06
6.84345e-06
6.84322e-06
6.84299e-06
6.84276e-06
6.84253e-06
6.8423e-06
6.84207e-06
6.84185e-06
6.84162e-06
6.8414e-06
6.84117e-06
6.84095e-06
6.84073e-06
6.84051e-06
6.84029e-06
6.84007e-06
6.83985e-06
6.83964e-06
6.83942e-06
6.83921e-06
6.839e-06
6.83879e-06
6.83858e-06
6.83837e-06
6.83816e-06
6.83795e-06
6.83775e-06
6.83754e-06
6.83734e-06
6.83714e-06
6.83694e-06
6.83674e-06
6.83655e-06
6.83635e-06
6.83616e-06
6.83597e-06
6.83578e-06
6.83559e-06
6.8354e-06
6.83521e-06
6.83503e-06
6.83484e-06
6.83466e-06
6.83448e-06
6.8343e-06
6.83412e-06
6.83394e-06
6.83377e-06
6.83359e-06
6.83342e-06
6.83325e-06
6.83308e-06
6.83291e-06
6.83274e-06
6.83257e-06
6.8324e-06
6.83223e-06
6.83207e-06
6.83191e-06
6.83174e-06
6.83158e-06
6.83142e-06
6.83126e-06
6.8311e-06
6.83094e-06
6.83078e-06
6.83062e-06
6.83046e-06
6.83031e-06
6.83015e-06
6.82999e-06
6.82984e-06
6.82968e-06
6.82952e-06
6.82937e-06
6.82921e-06
6.82906e-06
6.82891e-06
6.82875e-06
6.8286e-06
6.82846e-06
6.82836e-06
6.82837e-06
6.82873e-06
6.83012e-06
6.83457e-06
6.84753e-06
6.8807e-06
6.94406e-06
7.01952e-06
7.07851e-06
7.11683e-06
7.1419e-06
7.15914e-06
7.17101e-06
7.17823e-06
7.18331e-06
7.18812e-06
7.19229e-06
7.19551e-06
7.1981e-06
7.20025e-06
7.20207e-06
7.20363e-06
7.20497e-06
7.20615e-06
7.20717e-06
7.20806e-06
7.20884e-06
7.20951e-06
7.21009e-06
7.21059e-06
7.21101e-06
7.21137e-06
7.21169e-06
7.21196e-06
7.21219e-06
7.2124e-06
7.2126e-06
7.21277e-06
7.21294e-06
7.2131e-06
7.21325e-06
7.21339e-06
7.21353e-06
7.21366e-06
7.21379e-06
7.21392e-06
7.21405e-06
7.21417e-06
7.21429e-06
7.21441e-06
7.21452e-06
7.21463e-06
7.21473e-06
7.21483e-06
7.21492e-06
7.21501e-06
7.21509e-06
7.21517e-06
7.21525e-06
7.21532e-06
7.21539e-06
7.21545e-06
7.21551e-06
7.21557e-06
7.21562e-06
7.21567e-06
7.21572e-06
7.21576e-06
7.2158e-06
7.21584e-06
7.21587e-06
7.2159e-06
7.21593e-06
7.21595e-06
7.21597e-06
7.21599e-06
7.21601e-06
7.21602e-06
7.21603e-06
7.21603e-06
7.21603e-06
7.21603e-06
7.21603e-06
7.21602e-06
7.21601e-06
7.21599e-06
7.21597e-06
7.21594e-06
7.21592e-06
7.21588e-06
7.21585e-06
7.21581e-06
7.21577e-06
7.21572e-06
7.21567e-06
7.21562e-06
7.21556e-06
7.2155e-06
7.21544e-06
7.21538e-06
7.21532e-06
7.21525e-06
7.21518e-06
7.21511e-06
7.21503e-06
7.21495e-06
7.21487e-06
7.2148e-06
7.21474e-06
7.21469e-06
7.21465e-06
7.21463e-06
7.21462e-06
7.21464e-06
7.21467e-06
7.21473e-06
7.21482e-06
7.21493e-06
7.21508e-06
7.21525e-06
7.21546e-06
7.2157e-06
7.21597e-06
7.21628e-06
7.21663e-06
7.217e-06
7.21741e-06
7.21786e-06
7.21833e-06
7.21882e-06
7.21934e-06
7.21988e-06
7.22043e-06
7.22098e-06
7.22154e-06
7.2221e-06
7.22264e-06
7.22316e-06
7.22365e-06
7.22409e-06
7.22448e-06
7.2248e-06
7.22504e-06
7.22519e-06
7.22522e-06
7.22513e-06
7.22489e-06
7.2245e-06
7.22392e-06
7.22314e-06
7.22215e-06
7.22093e-06
7.21945e-06
7.21771e-06
7.21568e-06
7.21335e-06
7.21071e-06
7.20774e-06
7.20444e-06
7.20078e-06
7.19677e-06
7.19241e-06
7.18768e-06
7.1826e-06
7.17716e-06
7.17138e-06
7.16525e-06
7.15881e-06
7.15205e-06
7.145e-06
7.13768e-06
7.13011e-06
7.12233e-06
7.11436e-06
7.10622e-06
7.09796e-06
7.08961e-06
7.0812e-06
7.07276e-06
7.06434e-06
7.05597e-06
7.04769e-06
7.03952e-06
7.03151e-06
7.02369e-06
7.01608e-06
7.00873e-06
7.00165e-06
6.99486e-06
6.9884e-06
6.98228e-06
6.97652e-06
6.97113e-06
6.96612e-06
6.96151e-06
6.95729e-06
6.95347e-06
6.95004e-06
6.94701e-06
6.94436e-06
6.9421e-06
6.9402e-06
6.93866e-06
6.93747e-06
6.93659e-06
6.93603e-06
6.93575e-06
6.93575e-06
6.93599e-06
6.93646e-06
6.93714e-06
6.938e-06
6.93903e-06
6.9402e-06
6.9415e-06
6.9429e-06
6.94439e-06
6.94595e-06
6.94756e-06
6.94921e-06
6.95088e-06
6.95256e-06
6.95424e-06
6.95592e-06
6.95758e-06
6.95922e-06
6.96084e-06
6.96244e-06
)
;

boundaryField
{
    boundary
    {
        type            empty;
        value           nonuniform 0();
    }
    inlet
    {
        type            calculated;
        value           uniform -6.93375e-06;
    }
    outlet
    {
        type            calculated;
        value           uniform 6.96403e-06;
    }
}


// ************************************************************************* //
