/*--------------------------------*- C++ -*----------------------------------*\
  =========                 |
  \\      /  F ield         | OpenFOAM: The Open Source CFD Toolbox
   \\    /   O peration     | Website:  https://openfoam.org
    \\  /    A nd           | Version:  7
     \\/     M anipulation  |
\*---------------------------------------------------------------------------*/
FoamFile
{
    version     2.0;
    format      ascii;
    class       volScalarField;
    location    "0.00041";
    object      T;
}
// * * * * * * * * * * * * * * * * * * * * * * * * * * * * * * * * * * * * * //

dimensions      [0 0 0 1 0 0 0];

internalField   nonuniform List<scalar> 
500
(
300.004
300.008
300.013
300.017
300.022
300.027
300.033
300.039
300.047
300.056
300.067
300.08
300.095
300.114
300.136
300.162
300.193
300.229
300.27
300.316
300.367
300.424
300.486
300.552
300.621
300.692
300.766
300.839
300.912
300.983
301.052
301.116
301.177
301.233
301.283
301.328
301.368
301.402
301.432
301.457
301.477
301.494
301.508
301.519
301.528
301.535
301.54
301.544
301.547
301.549
301.551
301.552
301.553
301.554
301.554
301.554
301.555
301.555
301.555
301.555
301.555
301.555
301.555
301.555
301.555
301.555
301.555
301.555
301.555
301.555
301.555
301.555
301.555
301.555
301.555
301.555
301.555
301.555
301.555
301.555
301.556
301.556
301.556
301.556
301.556
301.556
301.556
301.556
301.556
301.556
301.556
301.556
301.556
301.556
301.556
301.556
301.556
301.556
301.557
301.557
301.557
301.557
301.557
301.557
301.557
301.557
301.557
301.557
301.558
301.558
301.558
301.558
301.558
301.558
301.558
301.558
301.559
301.559
301.559
301.559
301.559
301.559
301.56
301.56
301.56
301.56
301.56
301.56
301.561
301.561
301.561
301.561
301.561
301.562
301.562
301.562
301.562
301.562
301.563
301.563
301.563
301.563
301.563
301.564
301.564
301.564
301.564
301.564
301.565
301.565
301.565
301.565
301.566
301.566
301.566
301.566
301.567
301.567
301.567
301.567
301.568
301.568
301.568
301.568
301.568
301.569
301.569
301.569
301.569
301.569
301.57
301.57
301.57
301.57
301.57
301.57
301.57
301.57
301.57
301.57
301.57
301.57
301.57
301.57
301.57
301.57
301.57
301.57
301.57
301.569
301.569
301.569
301.569
301.568
301.568
301.568
301.567
301.567
301.566
301.566
301.565
301.565
301.564
301.563
301.562
301.562
301.561
301.56
301.559
301.558
301.557
301.556
301.555
301.554
301.552
301.551
301.55
301.548
301.547
301.545
301.544
301.542
301.541
301.539
301.537
301.535
301.533
301.531
301.529
301.527
301.525
301.523
301.52
301.518
301.516
301.513
301.511
301.508
301.506
301.503
301.501
301.498
301.495
301.492
301.489
301.487
301.484
301.481
301.478
301.475
301.472
301.469
301.466
301.462
301.459
301.456
301.453
301.45
301.446
301.443
301.44
301.436
301.433
301.43
301.426
301.423
301.42
301.418
301.419
301.427
301.456
301.544
301.803
302.546
304.677
310.754
327.724
371.103
460.605
596.182
751.162
903.771
1047.71
1179.66
1293.62
1389.61
1469.75
1533.56
1585.15
1628.65
1665.93
1698.39
1727.06
1752.66
1775.75
1796.72
1815.92
1833.59
1849.92
1865.1
1879.25
1892.49
1904.91
1916.61
1927.64
1938.07
1947.96
1957.34
1966.26
1974.75
1982.85
1990.56
1997.72
2004.45
2010.96
2017.25
2023.32
2029.2
2034.89
2040.41
2045.75
2050.94
2055.98
2060.87
2065.63
2070.26
2074.77
2079.15
2083.43
2087.59
2091.66
2095.62
2099.49
2103.27
2106.96
2110.57
2114.09
2117.54
2120.91
2124.21
2127.45
2130.61
2133.71
2136.75
2139.73
2142.65
2145.51
2148.32
2151.08
2153.79
2156.44
2159.05
2161.61
2164.13
2166.61
2169.04
2171.43
2173.78
2176.09
2178.37
2180.6
2182.81
2184.97
2187.1
2189.2
2191.27
2193.3
2195.3
2197.27
2199.21
2201.12
2203
2204.86
2206.68
2208.48
2210.25
2212
2213.71
2215.39
2217.03
2218.65
2220.23
2221.79
2223.31
2224.8
2226.25
2227.68
2229.07
2230.43
2231.75
2233.04
2234.29
2235.51
2236.7
2237.85
2238.97
2240.05
2241.1
2242.12
2243.11
2244.07
2245
2245.9
2246.78
2247.63
2248.46
2249.28
2250.08
2250.87
2251.66
2252.44
2253.22
2254.01
2254.81
2255.62
2256.46
2257.33
2258.22
2259.16
2260.15
2261.18
2262.28
2263.44
2264.67
2265.98
2267.37
2268.85
2270.43
2272.1
2273.88
2275.76
2277.74
2279.84
2282.05
2284.37
2286.8
2289.34
2291.98
2294.73
2297.57
2300.51
2303.53
2306.63
2309.8
2313.03
2316.32
2319.65
2323.01
2326.39
2329.78
2333.16
2336.54
2339.89
2343.2
2346.46
2349.67
2352.81
2355.87
2358.85
2361.72
2364.5
2367.17
2369.72
2372.16
2374.47
2376.66
2378.71
2380.64
2382.44
2384.11
2385.65
2387.07
2388.37
2389.54
2390.61
2391.56
2392.41
2393.16
2393.82
2394.39
2394.88
2395.3
2395.64
2395.93
2396.15
2396.33
2396.46
2396.54
2396.6
2396.62
2396.61
2396.58
2396.54
2396.48
2396.41
2396.32
2396.24
2396.15
2396.07
2396.01
)
;

boundaryField
{
    boundary
    {
        type            empty;
    }
    inlet
    {
        type            fixedValue;
        value           uniform 300;
    }
    outlet
    {
        type            zeroGradient;
    }
}


// ************************************************************************* //
