/*--------------------------------*- C++ -*----------------------------------*\
  =========                 |
  \\      /  F ield         | OpenFOAM: The Open Source CFD Toolbox
   \\    /   O peration     | Website:  https://openfoam.org
    \\  /    A nd           | Version:  7
     \\/     M anipulation  |
\*---------------------------------------------------------------------------*/
FoamFile
{
    version     2.0;
    format      ascii;
    class       volVectorField;
    location    "0.00041";
    object      U;
}
// * * * * * * * * * * * * * * * * * * * * * * * * * * * * * * * * * * * * * //

dimensions      [0 1 -1 0 0 0 0];

internalField   nonuniform List<vector> 
500
(
(2.34891 0 0)
(2.34879 0 0)
(2.34867 0 0)
(2.34856 0 0)
(2.34845 0 0)
(2.34835 0 0)
(2.34825 0 0)
(2.34815 0 0)
(2.34805 0 0)
(2.34795 0 0)
(2.34786 0 0)
(2.34777 0 0)
(2.34769 0 0)
(2.34761 0 0)
(2.34753 0 0)
(2.34746 0 0)
(2.34739 0 0)
(2.34733 0 0)
(2.34727 0 0)
(2.3472 0 0)
(2.34714 0 0)
(2.34708 0 0)
(2.34701 0 0)
(2.34693 0 0)
(2.34685 0 0)
(2.34676 0 0)
(2.34666 0 0)
(2.34655 0 0)
(2.34643 0 0)
(2.3463 0 0)
(2.34616 0 0)
(2.34602 0 0)
(2.34587 0 0)
(2.34572 0 0)
(2.34556 0 0)
(2.34541 0 0)
(2.34525 0 0)
(2.3451 0 0)
(2.34495 0 0)
(2.3448 0 0)
(2.34466 0 0)
(2.34452 0 0)
(2.34439 0 0)
(2.34426 0 0)
(2.34413 0 0)
(2.34401 0 0)
(2.34389 0 0)
(2.34377 0 0)
(2.34365 0 0)
(2.34354 0 0)
(2.34343 0 0)
(2.34332 0 0)
(2.34321 0 0)
(2.3431 0 0)
(2.34299 0 0)
(2.34288 0 0)
(2.34277 0 0)
(2.34266 0 0)
(2.34255 0 0)
(2.34245 0 0)
(2.34234 0 0)
(2.34223 0 0)
(2.34213 0 0)
(2.34202 0 0)
(2.34191 0 0)
(2.34181 0 0)
(2.3417 0 0)
(2.34159 0 0)
(2.34149 0 0)
(2.34138 0 0)
(2.34128 0 0)
(2.34117 0 0)
(2.34107 0 0)
(2.34096 0 0)
(2.34086 0 0)
(2.34076 0 0)
(2.34065 0 0)
(2.34055 0 0)
(2.34045 0 0)
(2.34034 0 0)
(2.34024 0 0)
(2.34014 0 0)
(2.34004 0 0)
(2.33993 0 0)
(2.33983 0 0)
(2.33973 0 0)
(2.33963 0 0)
(2.33953 0 0)
(2.33943 0 0)
(2.33933 0 0)
(2.33923 0 0)
(2.33913 0 0)
(2.33903 0 0)
(2.33893 0 0)
(2.33883 0 0)
(2.33874 0 0)
(2.33864 0 0)
(2.33854 0 0)
(2.33844 0 0)
(2.33835 0 0)
(2.33825 0 0)
(2.33815 0 0)
(2.33806 0 0)
(2.33796 0 0)
(2.33786 0 0)
(2.33777 0 0)
(2.33767 0 0)
(2.33758 0 0)
(2.33748 0 0)
(2.33739 0 0)
(2.3373 0 0)
(2.3372 0 0)
(2.33711 0 0)
(2.33702 0 0)
(2.33692 0 0)
(2.33683 0 0)
(2.33674 0 0)
(2.33665 0 0)
(2.33655 0 0)
(2.33646 0 0)
(2.33637 0 0)
(2.33628 0 0)
(2.33619 0 0)
(2.3361 0 0)
(2.336 0 0)
(2.33591 0 0)
(2.33583 0 0)
(2.33574 0 0)
(2.33565 0 0)
(2.33556 0 0)
(2.33547 0 0)
(2.33538 0 0)
(2.3353 0 0)
(2.33521 0 0)
(2.33512 0 0)
(2.33503 0 0)
(2.33494 0 0)
(2.33486 0 0)
(2.33477 0 0)
(2.33468 0 0)
(2.3346 0 0)
(2.33451 0 0)
(2.33442 0 0)
(2.33434 0 0)
(2.33425 0 0)
(2.33417 0 0)
(2.33408 0 0)
(2.334 0 0)
(2.33391 0 0)
(2.33383 0 0)
(2.33374 0 0)
(2.33366 0 0)
(2.33357 0 0)
(2.33349 0 0)
(2.3334 0 0)
(2.33332 0 0)
(2.33323 0 0)
(2.33315 0 0)
(2.33307 0 0)
(2.33298 0 0)
(2.3329 0 0)
(2.33282 0 0)
(2.33273 0 0)
(2.33265 0 0)
(2.33257 0 0)
(2.33248 0 0)
(2.3324 0 0)
(2.33232 0 0)
(2.33224 0 0)
(2.33215 0 0)
(2.33207 0 0)
(2.33199 0 0)
(2.33191 0 0)
(2.33183 0 0)
(2.33174 0 0)
(2.33166 0 0)
(2.33158 0 0)
(2.3315 0 0)
(2.33142 0 0)
(2.33134 0 0)
(2.33125 0 0)
(2.33117 0 0)
(2.33109 0 0)
(2.33101 0 0)
(2.33093 0 0)
(2.33085 0 0)
(2.33077 0 0)
(2.33069 0 0)
(2.33061 0 0)
(2.33053 0 0)
(2.33044 0 0)
(2.33036 0 0)
(2.33028 0 0)
(2.3302 0 0)
(2.33012 0 0)
(2.33004 0 0)
(2.32996 0 0)
(2.32988 0 0)
(2.3298 0 0)
(2.32972 0 0)
(2.32964 0 0)
(2.32956 0 0)
(2.32948 0 0)
(2.3294 0 0)
(2.32932 0 0)
(2.32924 0 0)
(2.32916 0 0)
(2.32908 0 0)
(2.329 0 0)
(2.32892 0 0)
(2.32884 0 0)
(2.32876 0 0)
(2.32868 0 0)
(2.3286 0 0)
(2.32852 0 0)
(2.32844 0 0)
(2.32836 0 0)
(2.32828 0 0)
(2.3282 0 0)
(2.32812 0 0)
(2.32804 0 0)
(2.32796 0 0)
(2.32788 0 0)
(2.3278 0 0)
(2.32772 0 0)
(2.32764 0 0)
(2.32756 0 0)
(2.32748 0 0)
(2.3274 0 0)
(2.32732 0 0)
(2.32724 0 0)
(2.32716 0 0)
(2.32708 0 0)
(2.32701 0 0)
(2.32693 0 0)
(2.32685 0 0)
(2.32677 0 0)
(2.32669 0 0)
(2.32661 0 0)
(2.32653 0 0)
(2.32645 0 0)
(2.32637 0 0)
(2.32629 0 0)
(2.32621 0 0)
(2.32613 0 0)
(2.32606 0 0)
(2.32598 0 0)
(2.3259 0 0)
(2.32582 0 0)
(2.32574 0 0)
(2.32566 0 0)
(2.32558 0 0)
(2.32551 0 0)
(2.32543 0 0)
(2.32535 0 0)
(2.32527 0 0)
(2.32519 0 0)
(2.32511 0 0)
(2.32504 0 0)
(2.32496 0 0)
(2.32488 0 0)
(2.3248 0 0)
(2.32472 0 0)
(2.32464 0 0)
(2.32456 0 0)
(2.32448 0 0)
(2.3244 0 0)
(2.32432 0 0)
(2.32424 0 0)
(2.32421 0 0)
(2.32431 0 0)
(2.32483 0 0)
(2.32675 0 0)
(2.33284 0 0)
(2.35024 0 0)
(2.39535 0 0)
(2.50377 0 0)
(2.75172 0 0)
(3.27747 0 0)
(4.21497 0 0)
(5.41522 0 0)
(6.64524 0 0)
(7.77052 0 0)
(8.75575 0 0)
(9.59525 0 0)
(10.2954 0 0)
(10.8703 0 0)
(11.3321 0 0)
(11.7002 0 0)
(12.002 0 0)
(12.2579 0 0)
(12.4795 0 0)
(12.674 0 0)
(12.8464 0 0)
(13.001 0 0)
(13.1407 0 0)
(13.2679 0 0)
(13.3844 0 0)
(13.4917 0 0)
(13.591 0 0)
(13.6831 0 0)
(13.7691 0 0)
(13.8494 0 0)
(13.9248 0 0)
(13.9956 0 0)
(14.0624 0 0)
(14.1256 0 0)
(14.1853 0 0)
(14.242 0 0)
(14.2958 0 0)
(14.347 0 0)
(14.3957 0 0)
(14.4408 0 0)
(14.4831 0 0)
(14.5239 0 0)
(14.5634 0 0)
(14.6015 0 0)
(14.6382 0 0)
(14.6738 0 0)
(14.7082 0 0)
(14.7415 0 0)
(14.7738 0 0)
(14.8051 0 0)
(14.8354 0 0)
(14.8649 0 0)
(14.8936 0 0)
(14.9214 0 0)
(14.9485 0 0)
(14.9749 0 0)
(15.0005 0 0)
(15.0255 0 0)
(15.0499 0 0)
(15.0737 0 0)
(15.0968 0 0)
(15.1194 0 0)
(15.1415 0 0)
(15.1631 0 0)
(15.1841 0 0)
(15.2047 0 0)
(15.2249 0 0)
(15.2446 0 0)
(15.2638 0 0)
(15.2827 0 0)
(15.3011 0 0)
(15.3192 0 0)
(15.3369 0 0)
(15.3543 0 0)
(15.3713 0 0)
(15.388 0 0)
(15.4044 0 0)
(15.4204 0 0)
(15.4362 0 0)
(15.4516 0 0)
(15.4668 0 0)
(15.4817 0 0)
(15.4964 0 0)
(15.5108 0 0)
(15.5249 0 0)
(15.5388 0 0)
(15.5525 0 0)
(15.5659 0 0)
(15.5792 0 0)
(15.5922 0 0)
(15.605 0 0)
(15.6176 0 0)
(15.63 0 0)
(15.6422 0 0)
(15.6542 0 0)
(15.6661 0 0)
(15.6778 0 0)
(15.6893 0 0)
(15.7007 0 0)
(15.7119 0 0)
(15.7231 0 0)
(15.7341 0 0)
(15.745 0 0)
(15.7557 0 0)
(15.766 0 0)
(15.7762 0 0)
(15.7862 0 0)
(15.7961 0 0)
(15.8059 0 0)
(15.8155 0 0)
(15.8249 0 0)
(15.8343 0 0)
(15.8435 0 0)
(15.8526 0 0)
(15.8615 0 0)
(15.8704 0 0)
(15.8791 0 0)
(15.8877 0 0)
(15.8962 0 0)
(15.9046 0 0)
(15.9128 0 0)
(15.921 0 0)
(15.9291 0 0)
(15.9371 0 0)
(15.945 0 0)
(15.9528 0 0)
(15.9605 0 0)
(15.9681 0 0)
(15.9756 0 0)
(15.9831 0 0)
(15.9905 0 0)
(15.9978 0 0)
(16.0051 0 0)
(16.0123 0 0)
(16.0194 0 0)
(16.0265 0 0)
(16.0335 0 0)
(16.0404 0 0)
(16.0473 0 0)
(16.0542 0 0)
(16.061 0 0)
(16.0678 0 0)
(16.0745 0 0)
(16.0812 0 0)
(16.0878 0 0)
(16.0944 0 0)
(16.101 0 0)
(16.1075 0 0)
(16.114 0 0)
(16.1204 0 0)
(16.1268 0 0)
(16.1331 0 0)
(16.1394 0 0)
(16.1456 0 0)
(16.1517 0 0)
(16.1577 0 0)
(16.1637 0 0)
(16.1696 0 0)
(16.1753 0 0)
(16.181 0 0)
(16.1865 0 0)
(16.1919 0 0)
(16.1972 0 0)
(16.2023 0 0)
(16.2072 0 0)
(16.212 0 0)
(16.2166 0 0)
(16.221 0 0)
(16.2252 0 0)
(16.2292 0 0)
(16.233 0 0)
(16.2366 0 0)
(16.24 0 0)
(16.2431 0 0)
(16.246 0 0)
(16.2487 0 0)
(16.2512 0 0)
(16.2534 0 0)
(16.2555 0 0)
(16.2573 0 0)
(16.2589 0 0)
(16.2603 0 0)
(16.2615 0 0)
(16.2625 0 0)
(16.2634 0 0)
(16.2641 0 0)
(16.2646 0 0)
(16.265 0 0)
(16.2653 0 0)
(16.2655 0 0)
(16.2656 0 0)
(16.2656 0 0)
(16.2655 0 0)
(16.2653 0 0)
(16.2652 0 0)
(16.2649 0 0)
(16.2647 0 0)
(16.2645 0 0)
(16.2642 0 0)
(16.264 0 0)
(16.2638 0 0)
(16.2636 0 0)
(16.2634 0 0)
(16.2633 0 0)
(16.2632 0 0)
(16.2631 0 0)
(16.2631 0 0)
(16.2631 0 0)
(16.2632 0 0)
(16.2633 0 0)
(16.2635 0 0)
(16.2637 0 0)
(16.2639 0 0)
(16.2642 0 0)
(16.2646 0 0)
(16.2649 0 0)
(16.2653 0 0)
(16.2658 0 0)
(16.2663 0 0)
(16.2669 0 0)
(16.2675 0 0)
(16.2682 0 0)
(16.2691 0 0)
(16.2702 0 0)
(16.2715 0 0)
(16.2735 0 0)
(16.2771 0 0)
)
;

boundaryField
{
    boundary
    {
        type            empty;
    }
    inlet
    {
        type            fixedValue;
        value           uniform (2.34893 0 0);
    }
    outlet
    {
        type            zeroGradient;
    }
}


// ************************************************************************* //
