/*--------------------------------*- C++ -*----------------------------------*\
  =========                 |
  \\      /  F ield         | OpenFOAM: The Open Source CFD Toolbox
   \\    /   O peration     | Website:  https://openfoam.org
    \\  /    A nd           | Version:  7
     \\/     M anipulation  |
\*---------------------------------------------------------------------------*/
FoamFile
{
    version     2.0;
    format      ascii;
    class       volScalarField;
    location    "0.00087";
    object      H2O2;
}
// * * * * * * * * * * * * * * * * * * * * * * * * * * * * * * * * * * * * * //

dimensions      [0 0 0 0 0 0 0];

internalField   nonuniform List<scalar> 
500
(
1.99267e-52
6.40209e-52
1.2727e-51
2.09671e-51
3.11202e-51
4.31823e-51
5.71478e-51
7.30085e-51
9.0755e-51
1.10377e-50
1.31862e-50
1.55202e-50
1.80387e-50
2.07413e-50
2.36279e-50
2.6699e-50
2.99556e-50
3.33995e-50
3.70328e-50
4.08584e-50
4.48795e-50
4.90997e-50
5.35228e-50
5.81529e-50
6.29941e-50
6.80508e-50
7.33273e-50
7.88285e-50
8.45595e-50
9.05261e-50
9.67353e-50
1.03195e-49
1.09914e-49
1.16904e-49
1.24179e-49
1.31753e-49
1.39643e-49
1.47871e-49
1.56459e-49
1.6543e-49
1.74812e-49
1.84631e-49
1.94915e-49
2.05694e-49
2.16993e-49
2.28836e-49
2.41245e-49
2.54235e-49
2.67814e-49
2.81985e-49
2.96739e-49
3.12059e-49
3.27916e-49
3.44268e-49
3.61062e-49
3.78235e-49
3.95709e-49
4.13398e-49
4.31207e-49
4.49032e-49
4.66768e-49
4.84303e-49
5.01528e-49
5.18336e-49
5.34626e-49
5.50304e-49
5.65286e-49
5.79502e-49
5.92891e-49
6.05411e-49
6.1703e-49
6.27735e-49
6.37524e-49
6.46408e-49
6.54411e-49
6.61567e-49
6.67918e-49
6.73512e-49
6.78404e-49
6.8265e-49
6.86308e-49
6.89438e-49
6.92096e-49
6.94337e-49
6.96213e-49
6.97773e-49
6.99061e-49
7.00118e-49
7.00978e-49
7.01674e-49
7.02234e-49
7.02681e-49
7.03036e-49
7.03317e-49
7.03537e-49
7.03709e-49
7.03843e-49
7.03947e-49
7.04027e-49
7.04089e-49
7.04137e-49
7.04175e-49
7.04205e-49
7.04229e-49
7.04248e-49
7.04264e-49
7.04278e-49
7.04291e-49
7.04302e-49
7.04313e-49
7.04324e-49
7.04334e-49
7.04345e-49
7.04356e-49
7.04367e-49
7.04379e-49
7.04391e-49
7.04404e-49
7.04417e-49
7.0443e-49
7.04441e-49
7.04443e-49
7.04404e-49
7.04207e-49
7.03386e-49
7.01758e-49
7.01778e-49
7.01798e-49
7.01819e-49
7.01842e-49
7.01866e-49
7.01892e-49
7.01919e-49
7.01947e-49
7.01977e-49
7.02008e-49
7.0204e-49
7.02073e-49
7.02106e-49
7.02141e-49
7.02176e-49
7.02212e-49
7.0225e-49
7.02288e-49
7.02329e-49
7.02373e-49
7.02421e-49
7.02473e-49
7.02531e-49
7.02597e-49
7.0267e-49
7.02752e-49
7.02844e-49
7.02946e-49
7.03058e-49
7.0318e-49
7.03311e-49
7.0345e-49
7.03595e-49
7.03745e-49
7.03897e-49
7.04049e-49
7.04198e-49
7.04343e-49
7.04481e-49
7.04611e-49
7.0473e-49
7.04839e-49
7.04937e-49
7.05024e-49
7.05101e-49
7.0517e-49
7.05231e-49
7.05288e-49
7.05342e-49
7.05395e-49
7.05449e-49
7.05507e-49
7.05571e-49
7.0564e-49
7.05717e-49
7.05802e-49
7.05896e-49
7.05998e-49
7.06107e-49
7.06223e-49
7.06345e-49
7.06472e-49
7.06602e-49
7.06734e-49
7.06866e-49
7.06998e-49
7.07128e-49
7.07254e-49
7.07376e-49
7.07494e-49
7.07606e-49
7.07713e-49
7.07819e-49
7.07945e-49
7.08198e-49
7.09086e-49
7.13036e-49
7.31578e-49
8.19125e-49
1.23105e-48
3.15904e-48
1.21333e-47
5.36784e-47
2.44978e-46
1.12124e-45
5.1147e-45
2.32247e-44
1.0496e-43
4.72163e-43
2.11455e-42
9.42942e-42
4.18769e-41
1.85257e-40
8.16535e-40
3.58648e-39
1.57018e-38
6.85351e-38
2.98301e-37
1.29501e-36
5.60864e-36
2.42384e-35
1.04545e-34
4.50129e-34
1.93504e-33
8.3069e-33
3.56166e-32
1.52544e-31
6.52712e-31
2.79049e-30
1.19209e-29
5.08913e-29
2.17121e-28
9.25755e-28
3.94488e-27
1.68001e-26
7.15026e-26
3.04123e-25
1.29264e-24
5.49019e-24
2.33002e-23
9.88047e-23
4.18632e-22
1.77224e-21
7.49638e-21
3.16841e-20
1.34581e-19
5.69465e-19
2.40377e-18
1.01388e-17
4.2753e-17
1.80273e-16
7.6025e-16
3.20706e-15
1.35343e-14
5.71459e-14
2.41426e-13
1.02059e-12
4.31705e-12
1.82722e-11
7.7383e-11
3.27892e-10
1.39e-09
5.89449e-09
2.49996e-08
1.05976e-07
4.48134e-07
1.87707e-06
7.60025e-06
2.75244e-05
7.31896e-05
0.00011411
0.000121414
8.13393e-05
3.8023e-05
1.52337e-05
6.86944e-06
4.61771e-06
4.51631e-06
5.05016e-06
5.76126e-06
6.24925e-06
6.56812e-06
6.73247e-06
6.77569e-06
6.73134e-06
6.62709e-06
6.48374e-06
6.31614e-06
6.13486e-06
5.94713e-06
5.75784e-06
5.57033e-06
5.38676e-06
5.20855e-06
5.03653e-06
4.87119e-06
4.71275e-06
4.56124e-06
4.41658e-06
4.2786e-06
4.14707e-06
4.02176e-06
3.90239e-06
3.78871e-06
3.68048e-06
3.57751e-06
3.48257e-06
3.39324e-06
3.30748e-06
3.22511e-06
3.14596e-06
3.06986e-06
2.99669e-06
2.92628e-06
2.85851e-06
2.79326e-06
2.7304e-06
2.66982e-06
2.61142e-06
2.55508e-06
2.50072e-06
2.44824e-06
2.39755e-06
2.34858e-06
2.30125e-06
2.25548e-06
2.21121e-06
2.16836e-06
2.12688e-06
2.08671e-06
2.04779e-06
2.01006e-06
1.97349e-06
1.93802e-06
1.9036e-06
1.8702e-06
1.83776e-06
1.80626e-06
1.77566e-06
1.74592e-06
1.71701e-06
1.68889e-06
1.66154e-06
1.63493e-06
1.60903e-06
1.58381e-06
1.55926e-06
1.53534e-06
1.51203e-06
1.48931e-06
1.46717e-06
1.44557e-06
1.42451e-06
1.40397e-06
1.38392e-06
1.36435e-06
1.34524e-06
1.32659e-06
1.30837e-06
1.29057e-06
1.27317e-06
1.25617e-06
1.23956e-06
1.22332e-06
1.20743e-06
1.1919e-06
1.17672e-06
1.16187e-06
1.14736e-06
1.13319e-06
1.1193e-06
1.10562e-06
1.09221e-06
1.07907e-06
1.0662e-06
1.05358e-06
1.04121e-06
1.02909e-06
1.01719e-06
1.00553e-06
9.94088e-07
9.82862e-07
9.71847e-07
9.61037e-07
9.50426e-07
9.40009e-07
9.29781e-07
9.19738e-07
9.09874e-07
9.00186e-07
8.90668e-07
8.81318e-07
8.7213e-07
8.63102e-07
8.54228e-07
8.45506e-07
8.36932e-07
8.28503e-07
8.20215e-07
8.12065e-07
8.04051e-07
7.96168e-07
7.88414e-07
7.80787e-07
7.73284e-07
7.65901e-07
7.58636e-07
7.51487e-07
7.44452e-07
7.37527e-07
7.3071e-07
7.23999e-07
7.17393e-07
7.10888e-07
7.04482e-07
6.98174e-07
6.91962e-07
6.85843e-07
6.79815e-07
6.73877e-07
6.68028e-07
6.62264e-07
6.56585e-07
6.50988e-07
6.45473e-07
6.40037e-07
6.3468e-07
6.29399e-07
6.24193e-07
6.1906e-07
6.14e-07
6.09011e-07
6.04091e-07
5.9924e-07
5.94456e-07
5.89738e-07
5.85085e-07
5.80495e-07
5.75968e-07
5.71502e-07
5.67096e-07
5.6275e-07
5.58462e-07
5.54231e-07
5.50056e-07
5.45937e-07
5.41872e-07
5.3786e-07
5.33901e-07
5.29994e-07
5.26137e-07
5.2233e-07
5.18572e-07
5.14862e-07
5.112e-07
5.07584e-07
5.04014e-07
5.00488e-07
4.97007e-07
4.93568e-07
4.90173e-07
4.86819e-07
4.83506e-07
4.80233e-07
4.77e-07
4.73806e-07
4.70649e-07
4.6753e-07
4.64448e-07
4.61401e-07
4.5839e-07
4.55413e-07
4.52471e-07
4.49561e-07
4.46684e-07
4.4384e-07
4.41026e-07
4.38244e-07
4.35493e-07
4.32771e-07
4.30079e-07
4.27417e-07
4.24785e-07
4.22185e-07
4.19617e-07
4.17085e-07
4.14592e-07
4.12146e-07
4.0976e-07
4.07457e-07
4.05273e-07
4.03279e-07
4.01602e-07
4.00498e-07
)
;

boundaryField
{
    boundary
    {
        type            empty;
    }
    inlet
    {
        type            fixedValue;
        value           uniform 0;
    }
    outlet
    {
        type            zeroGradient;
    }
}


// ************************************************************************* //
