/*--------------------------------*- C++ -*----------------------------------*\
  =========                 |
  \\      /  F ield         | OpenFOAM: The Open Source CFD Toolbox
   \\    /   O peration     | Website:  https://openfoam.org
    \\  /    A nd           | Version:  7
     \\/     M anipulation  |
\*---------------------------------------------------------------------------*/
FoamFile
{
    version     2.0;
    format      ascii;
    class       volScalarField;
    location    "0.00087";
    object      N2;
}
// * * * * * * * * * * * * * * * * * * * * * * * * * * * * * * * * * * * * * //

dimensions      [0 0 0 0 0 0 0];

internalField   nonuniform List<scalar> 
500
(
0.745219
0.745219
0.745219
0.745219
0.745219
0.745219
0.745219
0.745219
0.745219
0.745219
0.745219
0.745219
0.745219
0.745219
0.745219
0.745219
0.745219
0.745219
0.745219
0.745219
0.745219
0.745219
0.745219
0.745219
0.745219
0.745219
0.745219
0.745219
0.745219
0.745219
0.745219
0.745219
0.745219
0.745219
0.745219
0.745219
0.745219
0.745219
0.745219
0.745219
0.745219
0.745219
0.745219
0.745219
0.745219
0.745219
0.745219
0.745219
0.745219
0.745219
0.745219
0.745219
0.745219
0.745219
0.745219
0.745219
0.745219
0.745219
0.745219
0.74522
0.74522
0.74522
0.74522
0.74522
0.74522
0.74522
0.74522
0.74522
0.74522
0.74522
0.74522
0.74522
0.74522
0.74522
0.74522
0.74522
0.74522
0.74522
0.74522
0.74522
0.74522
0.74522
0.74522
0.74522
0.74522
0.74522
0.74522
0.74522
0.74522
0.74522
0.74522
0.74522
0.74522
0.74522
0.74522
0.74522
0.74522
0.74522
0.74522
0.74522
0.74522
0.74522
0.74522
0.74522
0.74522
0.74522
0.74522
0.74522
0.74522
0.74522
0.74522
0.74522
0.74522
0.74522
0.74522
0.74522
0.74522
0.74522
0.74522
0.74522
0.74522
0.74522
0.74522
0.74522
0.74522
0.74522
0.74522
0.74522
0.74522
0.74522
0.74522
0.74522
0.74522
0.74522
0.74522
0.74522
0.74522
0.74522
0.74522
0.74522
0.74522
0.74522
0.74522
0.74522
0.74522
0.74522
0.74522
0.74522
0.74522
0.74522
0.74522
0.74522
0.74522
0.74522
0.74522
0.74522
0.74522
0.74522
0.74522
0.74522
0.74522
0.74522
0.74522
0.74522
0.74522
0.74522
0.74522
0.74522
0.74522
0.74522
0.74522
0.74522
0.74522
0.74522
0.74522
0.74522
0.74522
0.74522
0.74522
0.74522
0.74522
0.74522
0.74522
0.74522
0.74522
0.74522
0.74522
0.74522
0.74522
0.74522
0.74522
0.74522
0.74522
0.74522
0.74522
0.74522
0.74522
0.74522
0.74522
0.74522
0.74522
0.74522
0.74522
0.74522
0.74522
0.74522
0.74522
0.74522
0.74522
0.74522
0.74522
0.74522
0.74522
0.74522
0.74522
0.74522
0.74522
0.74522
0.74522
0.74522
0.74522
0.74522
0.74522
0.74522
0.74522
0.74522
0.74522
0.74522
0.74522
0.74522
0.74522
0.74522
0.74522
0.74522
0.74522
0.74522
0.74522
0.74522
0.74522
0.74522
0.74522
0.74522
0.74522
0.74522
0.74522
0.74522
0.74522
0.74522
0.74522
0.74522
0.74522
0.74522
0.74522
0.74522
0.74522
0.74522
0.74522
0.74522
0.74522
0.74522
0.74522
0.74522
0.74522
0.74522
0.74522
0.74522
0.745221
0.745223
0.745226
0.745232
0.745246
0.745273
0.745324
0.745414
0.74554
0.745627
0.745521
0.745206
0.744753
0.74419
0.743729
0.743618
0.743849
0.744187
0.744357
0.74488
0.745053
0.745172
0.745247
0.745292
0.745318
0.745333
0.74534
0.745343
0.745343
0.745342
0.74534
0.745337
0.745334
0.745331
0.745328
0.745324
0.745321
0.745318
0.745316
0.745313
0.74531
0.745308
0.745305
0.745303
0.745301
0.745299
0.745297
0.745295
0.745293
0.745292
0.74529
0.745288
0.745287
0.745285
0.745284
0.745283
0.745281
0.74528
0.745279
0.745278
0.745277
0.745276
0.745275
0.745274
0.745273
0.745272
0.745271
0.74527
0.74527
0.745269
0.745268
0.745268
0.745267
0.745266
0.745266
0.745265
0.745265
0.745264
0.745264
0.745263
0.745263
0.745263
0.745262
0.745262
0.745261
0.745261
0.74526
0.74526
0.745259
0.745259
0.745258
0.745258
0.745257
0.745256
0.745256
0.745255
0.745255
0.745254
0.745253
0.745252
0.745252
0.745251
0.74525
0.745249
0.745249
0.745248
0.745247
0.745246
0.745245
0.745244
0.745244
0.745243
0.745242
0.745241
0.745241
0.74524
0.74524
0.745239
0.745239
0.745238
0.745238
0.745237
0.745237
0.745237
0.745236
0.745236
0.745236
0.745235
0.745235
0.745235
0.745235
0.745235
0.745235
0.745234
0.745234
0.745234
0.745234
0.745234
0.745234
0.745234
0.745234
0.745234
0.745234
0.745234
0.745234
0.745234
0.745233
0.745233
0.745233
0.745233
0.745233
0.745233
0.745233
0.745233
0.745233
0.745233
0.745233
0.745233
0.745232
0.745232
0.745232
0.745232
0.745232
0.745232
0.745232
0.745232
0.745232
0.745232
0.745232
0.745232
0.745232
0.745232
0.745231
0.745231
0.745231
0.745231
0.745231
0.745231
0.745231
0.745231
0.745231
0.745231
0.745231
0.74523
0.74523
0.74523
0.74523
0.74523
0.745229
0.745229
0.745229
0.745229
0.745228
0.745228
0.745228
0.745227
0.745227
0.745227
0.745226
0.745226
0.745225
0.745225
0.745224
0.745224
0.745223
0.745223
0.745222
0.745222
0.745221
0.74522
0.74522
0.745219
0.745218
0.745218
0.745217
0.745216
0.745215
0.745214
0.745213
0.745212
0.745211
0.74521
0.745209
0.745208
0.745206
0.745205
0.745203
0.745202
0.7452
0.745198
0.745196
0.745195
0.745193
0.745192
)
;

boundaryField
{
    boundary
    {
        type            empty;
    }
    inlet
    {
        type            fixedValue;
        value           uniform 0.74522;
    }
    outlet
    {
        type            zeroGradient;
    }
}


// ************************************************************************* //
