/*--------------------------------*- C++ -*----------------------------------*\
  =========                 |
  \\      /  F ield         | OpenFOAM: The Open Source CFD Toolbox
   \\    /   O peration     | Website:  https://openfoam.org
    \\  /    A nd           | Version:  7
     \\/     M anipulation  |
\*---------------------------------------------------------------------------*/
FoamFile
{
    version     2.0;
    format      ascii;
    class       volScalarField;
    location    "0.00087";
    object      OH;
}
// * * * * * * * * * * * * * * * * * * * * * * * * * * * * * * * * * * * * * //

dimensions      [0 0 0 0 0 0 0];

internalField   nonuniform List<scalar> 
500
(
9.38489e-48
1.82912e-47
2.4382e-47
2.85078e-47
3.12975e-47
3.31855e-47
3.4466e-47
3.53365e-47
3.59294e-47
3.63336e-47
3.66085e-47
3.6794e-47
3.69173e-47
3.69967e-47
3.70452e-47
3.70718e-47
3.70834e-47
3.70851e-47
3.70809e-47
3.70744e-47
3.70684e-47
3.70651e-47
3.70667e-47
3.70748e-47
3.70908e-47
3.71157e-47
3.71505e-47
3.71957e-47
3.72518e-47
3.73193e-47
3.73985e-47
3.749e-47
3.75942e-47
3.77119e-47
3.7844e-47
3.79916e-47
3.81561e-47
3.83391e-47
3.85424e-47
3.87683e-47
3.9019e-47
3.9297e-47
3.96048e-47
3.99452e-47
4.03207e-47
4.07339e-47
4.11873e-47
4.16829e-47
4.22228e-47
4.28082e-47
4.34401e-47
4.41191e-47
4.48448e-47
4.56164e-47
4.64322e-47
4.72898e-47
4.8186e-47
4.91167e-47
5.00773e-47
5.10623e-47
5.20657e-47
5.30809e-47
5.41011e-47
5.5119e-47
5.61274e-47
5.71193e-47
5.80878e-47
5.90265e-47
5.99295e-47
6.07918e-47
6.16089e-47
6.23775e-47
6.3095e-47
6.37598e-47
6.43711e-47
6.49291e-47
6.54347e-47
6.58895e-47
6.62955e-47
6.66555e-47
6.69723e-47
6.72493e-47
6.74896e-47
6.76968e-47
6.78742e-47
6.80251e-47
6.81525e-47
6.82595e-47
6.83488e-47
6.84227e-47
6.84836e-47
6.85335e-47
6.85741e-47
6.8607e-47
6.86335e-47
6.86547e-47
6.86716e-47
6.86851e-47
6.86957e-47
6.87041e-47
6.87108e-47
6.87161e-47
6.87203e-47
6.87236e-47
6.87263e-47
6.87286e-47
6.87305e-47
6.87321e-47
6.87335e-47
6.87348e-47
6.87361e-47
6.87372e-47
6.87384e-47
6.87395e-47
6.87407e-47
6.87419e-47
6.87431e-47
6.87443e-47
6.87456e-47
6.87469e-47
6.87483e-47
6.87496e-47
6.87506e-47
6.87507e-47
6.8748e-47
6.87435e-47
6.87454e-47
6.87476e-47
6.87499e-47
6.87525e-47
6.87553e-47
6.87585e-47
6.87619e-47
6.87657e-47
6.87697e-47
6.87738e-47
6.87781e-47
6.87824e-47
6.87867e-47
6.87908e-47
6.87948e-47
6.87985e-47
6.8802e-47
6.88053e-47
6.88084e-47
6.88112e-47
6.88139e-47
6.88165e-47
6.88191e-47
6.88217e-47
6.88244e-47
6.88272e-47
6.88302e-47
6.88335e-47
6.8837e-47
6.88407e-47
6.88446e-47
6.88488e-47
6.88532e-47
6.88578e-47
6.88626e-47
6.88675e-47
6.88725e-47
6.88776e-47
6.88828e-47
6.8888e-47
6.88932e-47
6.88985e-47
6.89038e-47
6.89091e-47
6.89144e-47
6.89198e-47
6.89252e-47
6.89306e-47
6.8936e-47
6.89415e-47
6.8947e-47
6.89526e-47
6.89582e-47
6.89639e-47
6.89696e-47
6.89753e-47
6.89811e-47
6.8987e-47
6.89928e-47
6.89987e-47
6.90046e-47
6.90105e-47
6.90164e-47
6.90223e-47
6.90282e-47
6.90345e-47
6.90423e-47
6.90554e-47
6.90874e-47
6.91852e-47
6.95111e-47
7.06231e-47
7.44283e-47
8.74136e-47
1.31532e-46
2.80713e-46
7.82705e-46
2.4638e-45
8.06691e-45
2.66555e-44
8.80433e-44
2.89872e-43
9.50565e-43
3.10423e-42
1.00959e-41
3.27033e-41
1.05525e-40
3.39233e-40
1.08662e-39
3.46867e-39
1.10363e-38
3.50044e-38
1.10698e-37
3.49092e-37
1.09799e-36
3.44502e-36
1.07842e-35
3.36868e-35
1.05022e-34
3.26826e-34
1.0154e-33
3.14998e-33
9.75871e-33
3.0196e-32
9.33334e-32
2.88211e-31
8.89246e-31
2.74172e-30
8.44821e-30
2.60198e-29
8.01123e-29
2.4662e-28
7.59251e-28
2.33833e-27
7.20735e-27
2.22468e-26
6.88299e-26
2.13733e-25
6.67376e-25
2.10093e-24
6.69188e-24
2.16663e-23
7.17058e-23
2.44077e-22
8.59472e-22
3.16139e-21
1.20655e-20
4.77693e-20
1.95666e-19
8.24721e-19
3.55553e-18
1.55912e-17
6.92168e-17
3.09979e-16
1.39662e-15
6.3185e-15
2.86651e-14
1.30285e-13
5.92879e-13
2.7001e-12
1.23029e-11
5.60736e-11
2.56712e-10
1.19071e-09
5.57317e-09
2.62556e-08
1.2585e-07
6.38873e-07
3.72153e-06
2.52201e-05
0.000153736
0.000498428
0.000775295
0.000927603
0.00124311
0.00195469
0.00308788
0.00445049
0.00580495
0.00716106
0.00815978
0.00894704
0.00956153
0.0100405
0.0104159
0.0107128
0.0109495
0.01114
0.011294
0.0114192
0.011521
0.0116036
0.0116704
0.0117239
0.0117661
0.0117987
0.0118231
0.0118404
0.0118516
0.0118574
0.0118586
0.0118557
0.0118492
0.0118395
0.0118271
0.0118121
0.0117956
0.0117778
0.0117585
0.0117377
0.0117157
0.0116925
0.0116683
0.0116431
0.0116171
0.0115903
0.0115628
0.0115346
0.011506
0.0114768
0.0114471
0.0114171
0.0113867
0.011356
0.011325
0.0112938
0.0112624
0.0112307
0.011199
0.0111671
0.0111351
0.011103
0.0110708
0.0110387
0.0110064
0.0109742
0.010942
0.0109098
0.0108776
0.0108455
0.0108134
0.0107814
0.0107495
0.0107176
0.0106859
0.0106542
0.0106227
0.0105913
0.01056
0.0105288
0.0104978
0.0104669
0.0104361
0.0104055
0.010375
0.0103447
0.0103146
0.0102846
0.0102547
0.010225
0.0101955
0.0101661
0.0101369
0.0101078
0.0100789
0.0100502
0.0100217
0.0099933
0.00996512
0.00993717
0.0099093
0.00988136
0.00985357
0.00982592
0.00979841
0.00977103
0.00974379
0.00971668
0.0096897
0.00966285
0.00963612
0.00960953
0.00958306
0.00955672
0.0095305
0.00950441
0.00947845
0.00945261
0.0094269
0.00940132
0.00937587
0.00935054
0.00932534
0.00930027
0.00927534
0.00925053
0.00922585
0.00920131
0.0091769
0.00915262
0.00912847
0.00910446
0.00908058
0.00905683
0.00903322
0.00900974
0.0089864
0.00896318
0.0089401
0.00891715
0.00889434
0.00887165
0.0088491
0.00882667
0.00880438
0.00878221
0.00876017
0.00873826
0.00871648
0.00869482
0.00867328
0.00865187
0.00863058
0.00860942
0.00858838
0.00856746
0.00854666
0.00852598
0.00850542
0.00848499
0.00846467
0.00844447
0.00842439
0.00840443
0.00838459
0.00836486
0.00834526
0.00832577
0.0083064
0.00828714
0.00826801
0.00824899
0.00823009
0.00821131
0.00819264
0.00817408
0.00815565
0.00813732
0.00811912
0.00810102
0.00808304
0.00806518
0.00804742
0.00802978
0.00801224
0.00799482
0.0079775
0.00796029
0.00794319
0.00792619
0.00790929
0.00789249
0.0078758
0.0078592
0.00784269
0.00782629
0.00780997
0.00779375
0.00777761
0.00776156
0.0077456
0.00772972
0.00771392
0.0076982
0.00768256
0.00766699
0.00765149
0.00763607
0.00762071
0.00760543
0.00759021
0.00757507
0.00756001
0.00754505
0.00753019
0.00751546
0.00750092
0.00748662
0.00747269
0.00745929
0.00744671
0.00743542
0.00742617
0.00742028
)
;

boundaryField
{
    boundary
    {
        type            empty;
    }
    inlet
    {
        type            fixedValue;
        value           uniform 0;
    }
    outlet
    {
        type            zeroGradient;
    }
}


// ************************************************************************* //
