/*--------------------------------*- C++ -*----------------------------------*\
  =========                 |
  \\      /  F ield         | OpenFOAM: The Open Source CFD Toolbox
   \\    /   O peration     | Website:  https://openfoam.org
    \\  /    A nd           | Version:  7
     \\/     M anipulation  |
\*---------------------------------------------------------------------------*/
FoamFile
{
    version     2.0;
    format      ascii;
    class       surfaceScalarField;
    location    "0.00087";
    object      phi;
}
// * * * * * * * * * * * * * * * * * * * * * * * * * * * * * * * * * * * * * //

dimensions      [1 0 -1 0 0 0 0];

internalField   nonuniform List<scalar> 
499
(
6.9305e-06
6.93043e-06
6.93035e-06
6.93027e-06
6.9302e-06
6.93013e-06
6.93006e-06
6.93e-06
6.92994e-06
6.92989e-06
6.92985e-06
6.92983e-06
6.92981e-06
6.92981e-06
6.92981e-06
6.92983e-06
6.92985e-06
6.92988e-06
6.92991e-06
6.92995e-06
6.92998e-06
6.93e-06
6.93001e-06
6.93002e-06
6.93001e-06
6.92999e-06
6.92995e-06
6.92989e-06
6.92982e-06
6.92972e-06
6.92961e-06
6.92948e-06
6.92933e-06
6.92916e-06
6.92897e-06
6.92875e-06
6.92851e-06
6.92824e-06
6.92794e-06
6.92761e-06
6.92724e-06
6.92684e-06
6.9264e-06
6.92591e-06
6.92537e-06
6.92478e-06
6.92414e-06
6.92344e-06
6.92269e-06
6.92188e-06
6.92101e-06
6.92009e-06
6.91912e-06
6.91809e-06
6.91702e-06
6.9159e-06
6.91475e-06
6.91357e-06
6.91237e-06
6.91116e-06
6.90993e-06
6.90871e-06
6.90749e-06
6.9063e-06
6.90512e-06
6.90398e-06
6.90288e-06
6.90182e-06
6.90081e-06
6.89984e-06
6.89894e-06
6.89809e-06
6.8973e-06
6.89657e-06
6.89589e-06
6.89528e-06
6.89471e-06
6.8942e-06
6.89374e-06
6.89333e-06
6.89296e-06
6.89263e-06
6.89234e-06
6.89208e-06
6.89184e-06
6.89164e-06
6.89146e-06
6.89129e-06
6.89115e-06
6.89102e-06
6.8909e-06
6.8908e-06
6.8907e-06
6.89061e-06
6.89053e-06
6.89045e-06
6.89038e-06
6.89031e-06
6.89024e-06
6.89018e-06
6.89012e-06
6.89006e-06
6.89e-06
6.88994e-06
6.88988e-06
6.88982e-06
6.88976e-06
6.8897e-06
6.88965e-06
6.88959e-06
6.88953e-06
6.88948e-06
6.88942e-06
6.88936e-06
6.88931e-06
6.88925e-06
6.88919e-06
6.88913e-06
6.88908e-06
6.88902e-06
6.88896e-06
6.88891e-06
6.88885e-06
6.88879e-06
6.88873e-06
6.88868e-06
6.88862e-06
6.88856e-06
6.8885e-06
6.88844e-06
6.88838e-06
6.88833e-06
6.88827e-06
6.88821e-06
6.88815e-06
6.88809e-06
6.88803e-06
6.88797e-06
6.88791e-06
6.88785e-06
6.88779e-06
6.88773e-06
6.88767e-06
6.88761e-06
6.88755e-06
6.88749e-06
6.88743e-06
6.88738e-06
6.88732e-06
6.88726e-06
6.8872e-06
6.88714e-06
6.88708e-06
6.88703e-06
6.88697e-06
6.88691e-06
6.88685e-06
6.88679e-06
6.88673e-06
6.88667e-06
6.88661e-06
6.88655e-06
6.88649e-06
6.88643e-06
6.88637e-06
6.88631e-06
6.88625e-06
6.88619e-06
6.88612e-06
6.88606e-06
6.886e-06
6.88594e-06
6.88588e-06
6.88582e-06
6.88576e-06
6.8857e-06
6.88564e-06
6.88557e-06
6.88551e-06
6.88545e-06
6.88539e-06
6.88533e-06
6.88527e-06
6.88521e-06
6.88514e-06
6.88508e-06
6.88502e-06
6.88496e-06
6.8849e-06
6.88484e-06
6.88477e-06
6.88471e-06
6.88465e-06
6.88459e-06
6.88453e-06
6.88447e-06
6.88441e-06
6.88435e-06
6.88429e-06
6.88422e-06
6.88416e-06
6.8841e-06
6.88404e-06
6.88399e-06
6.88393e-06
6.88387e-06
6.88381e-06
6.88375e-06
6.88369e-06
6.88363e-06
6.88358e-06
6.88352e-06
6.88346e-06
6.88341e-06
6.88335e-06
6.8833e-06
6.88324e-06
6.88319e-06
6.88313e-06
6.88308e-06
6.88303e-06
6.88298e-06
6.88293e-06
6.88288e-06
6.88283e-06
6.88278e-06
6.88273e-06
6.88268e-06
6.88263e-06
6.88259e-06
6.88254e-06
6.8825e-06
6.88246e-06
6.88241e-06
6.88237e-06
6.88233e-06
6.88229e-06
6.88225e-06
6.88222e-06
6.88218e-06
6.88214e-06
6.88211e-06
6.88208e-06
6.88204e-06
6.88201e-06
6.88198e-06
6.88195e-06
6.88193e-06
6.8819e-06
6.88188e-06
6.88185e-06
6.88183e-06
6.88181e-06
6.88179e-06
6.88177e-06
6.88175e-06
6.88174e-06
6.88172e-06
6.88171e-06
6.8817e-06
6.88168e-06
6.88167e-06
6.88166e-06
6.88165e-06
6.88165e-06
6.88164e-06
6.88164e-06
6.88164e-06
6.88168e-06
6.88179e-06
6.88215e-06
6.88327e-06
6.88657e-06
6.89601e-06
6.92061e-06
6.97084e-06
7.03685e-06
7.09232e-06
7.1292e-06
7.15332e-06
7.17005e-06
7.18203e-06
7.19059e-06
7.19673e-06
7.20115e-06
7.20441e-06
7.2069e-06
7.20888e-06
7.2105e-06
7.21185e-06
7.213e-06
7.21399e-06
7.21486e-06
7.21563e-06
7.21631e-06
7.21693e-06
7.21748e-06
7.21799e-06
7.21845e-06
7.21888e-06
7.21927e-06
7.21963e-06
7.21997e-06
7.22028e-06
7.22058e-06
7.22085e-06
7.22111e-06
7.22135e-06
7.22157e-06
7.22179e-06
7.22199e-06
7.22218e-06
7.22235e-06
7.22252e-06
7.22268e-06
7.22283e-06
7.22297e-06
7.22311e-06
7.22324e-06
7.22337e-06
7.2235e-06
7.22362e-06
7.22373e-06
7.22385e-06
7.22396e-06
7.22406e-06
7.22417e-06
7.22427e-06
7.22437e-06
7.22446e-06
7.22456e-06
7.22465e-06
7.22474e-06
7.22483e-06
7.22492e-06
7.225e-06
7.22509e-06
7.22517e-06
7.22525e-06
7.22533e-06
7.22541e-06
7.22549e-06
7.22556e-06
7.22564e-06
7.22571e-06
7.22579e-06
7.22586e-06
7.22593e-06
7.226e-06
7.22606e-06
7.22613e-06
7.22619e-06
7.22625e-06
7.22632e-06
7.22637e-06
7.22643e-06
7.22649e-06
7.22654e-06
7.22659e-06
7.22664e-06
7.22669e-06
7.22674e-06
7.22678e-06
7.22683e-06
7.22687e-06
7.22691e-06
7.22695e-06
7.22698e-06
7.22702e-06
7.22706e-06
7.22709e-06
7.22712e-06
7.22716e-06
7.22719e-06
7.22722e-06
7.22725e-06
7.22728e-06
7.22732e-06
7.22735e-06
7.22738e-06
7.22741e-06
7.22744e-06
7.22748e-06
7.22751e-06
7.22755e-06
7.22758e-06
7.22762e-06
7.22765e-06
7.22769e-06
7.22772e-06
7.22776e-06
7.2278e-06
7.22783e-06
7.22787e-06
7.22791e-06
7.22795e-06
7.22798e-06
7.22802e-06
7.22806e-06
7.22809e-06
7.22813e-06
7.22817e-06
7.2282e-06
7.22824e-06
7.22827e-06
7.2283e-06
7.22833e-06
7.22837e-06
7.2284e-06
7.22843e-06
7.22846e-06
7.22848e-06
7.22851e-06
7.22854e-06
7.22856e-06
7.22859e-06
7.22861e-06
7.22863e-06
7.22865e-06
7.22867e-06
7.22869e-06
7.22871e-06
7.22873e-06
7.22875e-06
7.22876e-06
7.22878e-06
7.22879e-06
7.22881e-06
7.22882e-06
7.22883e-06
7.22884e-06
7.22885e-06
7.22886e-06
7.22887e-06
7.22888e-06
7.22889e-06
7.2289e-06
7.2289e-06
7.22891e-06
7.22891e-06
7.22891e-06
7.22891e-06
7.22892e-06
7.22892e-06
7.22891e-06
7.22891e-06
7.22891e-06
7.2289e-06
7.2289e-06
7.22889e-06
7.22888e-06
7.22887e-06
7.22886e-06
7.22884e-06
7.22883e-06
7.22881e-06
7.22879e-06
7.22877e-06
7.22875e-06
7.22872e-06
7.2287e-06
7.22867e-06
7.22864e-06
7.22861e-06
7.22858e-06
7.22854e-06
7.22851e-06
7.22847e-06
7.22843e-06
7.22838e-06
7.22834e-06
7.22829e-06
7.22824e-06
7.22819e-06
7.22814e-06
7.22808e-06
7.22802e-06
7.22796e-06
7.2279e-06
7.22783e-06
7.22777e-06
7.2277e-06
7.22762e-06
7.22755e-06
7.22747e-06
7.22739e-06
7.22731e-06
7.22723e-06
7.22714e-06
7.22705e-06
7.22696e-06
7.22686e-06
7.22677e-06
7.22667e-06
7.22658e-06
7.22648e-06
7.22638e-06
7.22629e-06
7.22619e-06
)
;

boundaryField
{
    boundary
    {
        type            empty;
        value           nonuniform 0();
    }
    inlet
    {
        type            calculated;
        value           uniform -6.93058e-06;
    }
    outlet
    {
        type            calculated;
        value           uniform 7.2261e-06;
    }
}


// ************************************************************************* //
