/*--------------------------------*- C++ -*----------------------------------*\
  =========                 |
  \\      /  F ield         | OpenFOAM: The Open Source CFD Toolbox
   \\    /   O peration     | Website:  https://openfoam.org
    \\  /    A nd           | Version:  7
     \\/     M anipulation  |
\*---------------------------------------------------------------------------*/
FoamFile
{
    version     2.0;
    format      ascii;
    class       volScalarField;
    location    "0.00087";
    object      Qdot;
}
// * * * * * * * * * * * * * * * * * * * * * * * * * * * * * * * * * * * * * //

dimensions      [1 -1 -3 0 0 0 0];

internalField   nonuniform List<scalar> 
500
(
-2.45225e-27
-1.86292e-27
-1.73618e-27
-1.70916e-27
-1.70361e-27
-1.70263e-27
-1.70256e-27
-1.70256e-27
-1.70244e-27
-1.70212e-27
-1.70157e-27
-1.70078e-27
-1.69973e-27
-1.69844e-27
-1.69694e-27
-1.69525e-27
-1.69343e-27
-1.69152e-27
-1.6896e-27
-1.68772e-27
-1.68594e-27
-1.68433e-27
-1.68293e-27
-1.68181e-27
-1.68099e-27
-1.6805e-27
-1.68039e-27
-1.68066e-27
-1.68132e-27
-1.6824e-27
-1.6839e-27
-1.68584e-27
-1.68824e-27
-1.69111e-27
-1.69449e-27
-1.69841e-27
-1.70293e-27
-1.7081e-27
-1.71397e-27
-1.72063e-27
-1.72815e-27
-1.73662e-27
-1.74611e-27
-1.75672e-27
-1.76853e-27
-1.78163e-27
-1.79609e-27
-1.81198e-27
-1.82936e-27
-1.84827e-27
-1.86873e-27
-1.89075e-27
-1.9143e-27
-1.93936e-27
-1.96585e-27
-1.99369e-27
-2.02276e-27
-2.05292e-27
-2.08401e-27
-2.11583e-27
-2.14819e-27
-2.18088e-27
-2.21365e-27
-2.24628e-27
-2.27854e-27
-2.31019e-27
-2.34103e-27
-2.37085e-27
-2.39947e-27
-2.42673e-27
-2.4525e-27
-2.47669e-27
-2.49922e-27
-2.52005e-27
-2.53916e-27
-2.55657e-27
-2.57232e-27
-2.58645e-27
-2.59905e-27
-2.6102e-27
-2.61999e-27
-2.62854e-27
-2.63595e-27
-2.64233e-27
-2.64778e-27
-2.65241e-27
-2.65632e-27
-2.6596e-27
-2.66233e-27
-2.66459e-27
-2.66645e-27
-2.66797e-27
-2.66921e-27
-2.67021e-27
-2.67101e-27
-2.67166e-27
-2.67217e-27
-2.67258e-27
-2.6729e-27
-2.67316e-27
-2.67336e-27
-2.67352e-27
-2.67365e-27
-2.67375e-27
-2.67384e-27
-2.6739e-27
-2.67396e-27
-2.67401e-27
-2.67406e-27
-2.6741e-27
-2.67413e-27
-2.67417e-27
-2.67421e-27
-2.67424e-27
-2.67428e-27
-2.67431e-27
-2.67435e-27
-2.67439e-27
-2.67443e-27
-2.67447e-27
-2.67452e-27
-2.67456e-27
-2.67461e-27
-2.67465e-27
-2.67467e-27
-2.67467e-27
-2.67473e-27
-2.6748e-27
-2.67487e-27
-2.67495e-27
-2.67505e-27
-2.67515e-27
-2.67526e-27
-2.67538e-27
-2.6755e-27
-2.67564e-27
-2.67577e-27
-2.67591e-27
-2.67604e-27
-2.67617e-27
-2.67629e-27
-2.67641e-27
-2.67652e-27
-2.67662e-27
-2.67671e-27
-2.67679e-27
-2.67686e-27
-2.67694e-27
-2.67701e-27
-2.67708e-27
-2.67715e-27
-2.67722e-27
-2.6773e-27
-2.67739e-27
-2.67748e-27
-2.67758e-27
-2.67769e-27
-2.67781e-27
-2.67793e-27
-2.67806e-27
-2.6782e-27
-2.67834e-27
-2.67848e-27
-2.67863e-27
-2.67878e-27
-2.67893e-27
-2.67909e-27
-2.67925e-27
-2.67941e-27
-2.67957e-27
-2.67973e-27
-2.6799e-27
-2.68006e-27
-2.68023e-27
-2.6804e-27
-2.68057e-27
-2.68074e-27
-2.68092e-27
-2.68109e-27
-2.68127e-27
-2.68145e-27
-2.68163e-27
-2.68181e-27
-2.68199e-27
-2.68217e-27
-2.68235e-27
-2.68254e-27
-2.68272e-27
-2.6829e-27
-2.68308e-27
-2.68326e-27
-2.68343e-27
-2.68361e-27
-2.68378e-27
-2.68394e-27
-2.6841e-27
-2.68426e-27
-2.68441e-27
-2.68456e-27
-2.6847e-27
-2.68483e-27
-2.68495e-27
-2.68507e-27
-2.68517e-27
-2.68527e-27
-2.68533e-27
-2.68534e-27
-2.68517e-27
-2.68444e-27
-2.68195e-27
-2.67377e-27
-2.64722e-27
-2.56167e-27
-2.28715e-27
-1.40939e-27
1.38776e-27
1.02729e-26
3.84105e-26
1.27261e-25
4.07065e-25
1.28597e-24
4.04015e-24
1.26518e-23
3.95231e-23
1.23213e-22
3.83415e-22
1.19114e-21
3.6949e-21
1.14461e-20
3.54146e-20
1.09455e-19
3.3796e-19
1.04261e-18
3.21408e-18
9.90164e-18
3.04872e-17
9.38278e-17
2.88668e-16
8.87929e-16
2.73116e-15
8.40251e-15
2.58654e-14
7.97075e-14
2.46079e-13
7.61945e-13
2.36993e-12
7.42146e-12
2.34714e-11
7.52802e-11
2.46137e-10
8.25349e-10
2.87057e-09
1.03276e-08
3.85917e-08
1.49992e-07
6.04769e-07
2.51698e-06
1.07481e-05
4.6817e-05
0.000206984
0.000925215
0.00417021
0.0189225
0.0863854
0.396932
1.83852
8.60878
41.7333
221.182
1381.41
9869.67
77221.6
686340
6.48114e+06
6.11724e+07
5.1216e+08
2.87464e+09
8.30933e+09
1.26755e+10
1.38191e+10
1.39109e+10
1.38934e+10
1.33412e+10
1.19878e+10
1.01031e+10
8.16798e+09
6.64808e+09
5.52838e+09
4.67319e+09
4.01856e+09
3.50892e+09
3.1042e+09
2.77643e+09
2.50606e+09
2.27951e+09
2.087e+09
1.92147e+09
1.77767e+09
1.65165e+09
1.54037e+09
1.44143e+09
1.35295e+09
1.2734e+09
1.20154e+09
1.13636e+09
1.07699e+09
1.02272e+09
9.72962e+08
9.272e+08
8.85006e+08
8.46019e+08
8.09988e+08
7.77496e+08
7.47685e+08
7.19611e+08
6.93212e+08
6.68337e+08
6.44852e+08
6.22653e+08
6.01643e+08
5.81732e+08
5.62843e+08
5.449e+08
5.27841e+08
5.11606e+08
4.96138e+08
4.81389e+08
4.67312e+08
4.53866e+08
4.41011e+08
4.28712e+08
4.16936e+08
4.05651e+08
3.94831e+08
3.84449e+08
3.74479e+08
3.64901e+08
3.55693e+08
3.46834e+08
3.38308e+08
3.30096e+08
3.22184e+08
3.14555e+08
3.07197e+08
3.00095e+08
2.93237e+08
2.86614e+08
2.80212e+08
2.74023e+08
2.68036e+08
2.62243e+08
2.56634e+08
2.51202e+08
2.4594e+08
2.40839e+08
2.35894e+08
2.31097e+08
2.26444e+08
2.21927e+08
2.17541e+08
2.13282e+08
2.09144e+08
2.05122e+08
2.01213e+08
1.97411e+08
1.93713e+08
1.90115e+08
1.86613e+08
1.83204e+08
1.79884e+08
1.76651e+08
1.73501e+08
1.70432e+08
1.67442e+08
1.64534e+08
1.61706e+08
1.58946e+08
1.56238e+08
1.53589e+08
1.51003e+08
1.48479e+08
1.46013e+08
1.43603e+08
1.41249e+08
1.38949e+08
1.367e+08
1.34501e+08
1.3235e+08
1.30247e+08
1.28189e+08
1.26176e+08
1.24206e+08
1.22277e+08
1.20389e+08
1.1854e+08
1.1673e+08
1.14957e+08
1.1322e+08
1.11519e+08
1.09851e+08
1.08217e+08
1.06615e+08
1.05045e+08
1.03506e+08
1.01997e+08
1.00516e+08
9.90644e+07
9.76402e+07
9.6243e+07
9.4872e+07
9.35267e+07
9.22064e+07
9.09101e+07
8.9638e+07
8.83889e+07
8.71624e+07
8.5958e+07
8.47751e+07
8.36132e+07
8.24718e+07
8.13503e+07
8.02485e+07
7.91657e+07
7.81015e+07
7.70555e+07
7.60273e+07
7.50165e+07
7.40226e+07
7.30453e+07
7.20845e+07
7.11393e+07
7.02096e+07
6.92951e+07
6.83954e+07
6.75103e+07
6.66394e+07
6.57824e+07
6.49391e+07
6.41091e+07
6.32921e+07
6.2488e+07
6.16963e+07
6.0917e+07
6.01497e+07
5.93942e+07
5.86503e+07
5.79178e+07
5.71955e+07
5.64852e+07
5.57854e+07
5.5096e+07
5.44169e+07
5.37478e+07
5.30886e+07
5.24391e+07
5.17991e+07
5.11685e+07
5.05472e+07
4.99343e+07
4.93309e+07
4.8736e+07
4.81497e+07
4.75717e+07
4.70019e+07
4.64403e+07
4.58865e+07
4.53406e+07
4.48023e+07
4.42715e+07
4.37482e+07
4.32321e+07
4.27232e+07
4.22213e+07
4.17264e+07
4.12382e+07
4.07568e+07
4.02819e+07
3.98136e+07
3.93516e+07
3.88959e+07
3.84463e+07
3.80029e+07
3.75655e+07
3.71339e+07
3.67082e+07
3.62882e+07
3.58738e+07
3.54649e+07
3.50617e+07
3.46635e+07
3.42706e+07
3.38825e+07
3.34992e+07
3.31203e+07
3.27448e+07
3.2372e+07
3.20016e+07
3.16346e+07
3.12826e+07
3.10126e+07
)
;

boundaryField
{
    boundary
    {
        type            empty;
    }
    inlet
    {
        type            calculated;
        value           uniform 0;
    }
    outlet
    {
        type            calculated;
        value           uniform 0;
    }
}


// ************************************************************************* //
