/*--------------------------------*- C++ -*----------------------------------*\
  =========                 |
  \\      /  F ield         | OpenFOAM: The Open Source CFD Toolbox
   \\    /   O peration     | Website:  https://openfoam.org
    \\  /    A nd           | Version:  7
     \\/     M anipulation  |
\*---------------------------------------------------------------------------*/
FoamFile
{
    version     2.0;
    format      ascii;
    class       volScalarField;
    location    "0.00046";
    object      O;
}
// * * * * * * * * * * * * * * * * * * * * * * * * * * * * * * * * * * * * * //

dimensions      [0 0 0 0 0 0 0];

internalField   nonuniform List<scalar> 
126
(
1.23706e-45
1.23781e-45
1.23869e-45
1.2396e-45
1.24044e-45
1.24114e-45
1.24165e-45
1.242e-45
1.24221e-45
1.24232e-45
1.24238e-45
1.24242e-45
1.24245e-45
1.24249e-45
1.24253e-45
1.24256e-45
1.2426e-45
1.24264e-45
1.24268e-45
1.24271e-45
1.24274e-45
1.24277e-45
1.24281e-45
1.24285e-45
1.24289e-45
1.24295e-45
1.24301e-45
1.24309e-45
1.24319e-45
1.2433e-45
1.24342e-45
1.24356e-45
1.24372e-45
1.24388e-45
1.24405e-45
1.24423e-45
1.24441e-45
1.24459e-45
1.24477e-45
1.24494e-45
1.2451e-45
1.24526e-45
1.24541e-45
1.24555e-45
1.24568e-45
1.24579e-45
1.2459e-45
1.246e-45
1.24609e-45
1.24617e-45
1.24624e-45
1.2463e-45
1.24635e-45
1.2464e-45
1.24644e-45
1.24646e-45
1.24648e-45
1.24649e-45
1.2465e-45
1.24649e-45
1.24647e-45
1.24645e-45
1.24641e-45
1.24636e-45
1.2463e-45
1.24623e-45
1.24615e-45
1.24606e-45
1.24595e-45
1.24583e-45
1.24569e-45
1.24554e-45
1.24537e-45
1.24519e-45
1.24501e-45
1.24487e-45
1.24502e-45
1.24662e-45
1.25518e-45
1.29675e-45
1.49318e-45
2.40955e-45
6.64365e-45
2.60323e-44
1.14031e-43
5.09877e-43
2.27459e-42
1.00709e-41
4.42014e-41
1.92249e-40
8.28518e-40
3.53764e-39
1.49649e-38
6.27127e-38
2.60336e-37
1.0705e-36
4.36008e-36
1.75889e-35
7.02747e-35
2.78077e-34
1.08975e-33
4.22935e-33
1.62557e-32
6.18758e-32
2.33253e-31
8.70834e-31
3.22005e-30
1.17933e-29
4.27839e-29
1.53759e-28
5.47474e-28
1.93152e-27
6.75314e-27
2.34015e-26
8.03854e-26
2.73758e-25
9.24432e-25
3.09579e-24
1.02835e-23
3.38917e-23
1.10864e-22
3.60117e-22
1.16226e-21
3.72951e-21
1.19056e-20
3.78296e-20
)
;

boundaryField
{
    boundary
    {
        type            empty;
    }
    inlet
    {
        type            fixedValue;
        value           nonuniform 0();
    }
    outlet
    {
        type            zeroGradient;
    }
    procBoundary3to1
    {
        type            processor;
        value           uniform 1.2057e-19;
    }
    procBoundary3to2
    {
        type            processor;
        value           uniform 1.2393e-45;
    }
}


// ************************************************************************* //
