/*--------------------------------*- C++ -*----------------------------------*\
  =========                 |
  \\      /  F ield         | OpenFOAM: The Open Source CFD Toolbox
   \\    /   O peration     | Website:  https://openfoam.org
    \\  /    A nd           | Version:  7
     \\/     M anipulation  |
\*---------------------------------------------------------------------------*/
FoamFile
{
    version     2.0;
    format      ascii;
    class       volScalarField;
    location    "0.00046";
    object      Qdot;
}
// * * * * * * * * * * * * * * * * * * * * * * * * * * * * * * * * * * * * * //

dimensions      [1 -1 -3 0 0 0 0];

internalField   nonuniform List<scalar> 
126
(
-2.72455e-27
-2.72492e-27
-2.72517e-27
-2.72536e-27
-2.72553e-27
-2.72567e-27
-2.72582e-27
-2.72596e-27
-2.72611e-27
-2.72627e-27
-2.72643e-27
-2.72659e-27
-2.72675e-27
-2.72692e-27
-2.72708e-27
-2.72725e-27
-2.72742e-27
-2.72759e-27
-2.72776e-27
-2.72793e-27
-2.72811e-27
-2.72828e-27
-2.72846e-27
-2.72864e-27
-2.72882e-27
-2.729e-27
-2.72919e-27
-2.72938e-27
-2.72958e-27
-2.72978e-27
-2.72998e-27
-2.73018e-27
-2.73039e-27
-2.7306e-27
-2.73081e-27
-2.73101e-27
-2.73122e-27
-2.73142e-27
-2.73162e-27
-2.73182e-27
-2.73201e-27
-2.7322e-27
-2.73238e-27
-2.73255e-27
-2.73272e-27
-2.73288e-27
-2.73303e-27
-2.73318e-27
-2.73331e-27
-2.73343e-27
-2.73355e-27
-2.73366e-27
-2.73375e-27
-2.73383e-27
-2.73391e-27
-2.73396e-27
-2.73401e-27
-2.73404e-27
-2.73406e-27
-2.73407e-27
-2.73405e-27
-2.73402e-27
-2.73398e-27
-2.73391e-27
-2.73383e-27
-2.73372e-27
-2.7336e-27
-2.73345e-27
-2.73329e-27
-2.73309e-27
-2.73288e-27
-2.73264e-27
-2.73237e-27
-2.73207e-27
-2.73175e-27
-2.7314e-27
-2.73102e-27
-2.73061e-27
-2.73017e-27
-2.72969e-27
-2.72918e-27
-2.72864e-27
-2.72806e-27
-2.72744e-27
-2.72679e-27
-2.7261e-27
-2.72537e-27
-2.72458e-27
-2.72371e-27
-2.72255e-27
-2.72033e-27
-2.71376e-27
-2.68899e-27
-2.58862e-27
-2.17654e-27
-4.91197e-28
6.34584e-27
3.38267e-26
1.43233e-25
5.74618e-25
2.25913e-24
8.77343e-24
3.37216e-23
1.28344e-22
4.8376e-22
1.80594e-21
6.67754e-21
2.44569e-20
8.87353e-20
3.18969e-19
1.1361e-18
4.01026e-18
1.40313e-17
4.86732e-17
1.67441e-16
5.71414e-16
1.93519e-15
6.50723e-15
2.17406e-14
7.22385e-14
2.39047e-13
7.89299e-13
2.60707e-12
8.64292e-12
2.88779e-11
9.77337e-11
)
;

boundaryField
{
    boundary
    {
        type            empty;
    }
    inlet
    {
        type            calculated;
        value           nonuniform 0();
    }
    outlet
    {
        type            calculated;
        value           nonuniform 0();
    }
    procBoundary3to1
    {
        type            processor;
        value           uniform 0;
    }
    procBoundary3to2
    {
        type            processor;
        value           uniform 0;
    }
}


// ************************************************************************* //
