/*--------------------------------*- C++ -*----------------------------------*\
  =========                 |
  \\      /  F ield         | OpenFOAM: The Open Source CFD Toolbox
   \\    /   O peration     | Website:  https://openfoam.org
    \\  /    A nd           | Version:  7
     \\/     M anipulation  |
\*---------------------------------------------------------------------------*/
FoamFile
{
    version     2.0;
    format      ascii;
    class       volScalarField;
    location    "0.00046";
    object      T;
}
// * * * * * * * * * * * * * * * * * * * * * * * * * * * * * * * * * * * * * //

dimensions      [0 0 0 1 0 0 0];

internalField   nonuniform List<scalar> 
126
(
301.575
301.575
301.575
301.576
301.576
301.576
301.576
301.576
301.577
301.577
301.577
301.577
301.577
301.578
301.578
301.578
301.578
301.578
301.579
301.579
301.579
301.579
301.579
301.58
301.58
301.58
301.58
301.581
301.581
301.581
301.581
301.582
301.582
301.582
301.582
301.583
301.583
301.583
301.583
301.584
301.584
301.584
301.584
301.585
301.585
301.585
301.585
301.585
301.585
301.586
301.586
301.586
301.586
301.586
301.586
301.586
301.586
301.586
301.586
301.586
301.586
301.586
301.586
301.586
301.586
301.586
301.586
301.586
301.585
301.585
301.585
301.585
301.584
301.584
301.584
301.583
301.583
301.582
301.582
301.581
301.58
301.58
301.579
301.578
301.577
301.577
301.576
301.575
301.574
301.573
301.572
301.57
301.569
301.568
301.567
301.565
301.564
301.562
301.561
301.559
301.558
301.556
301.554
301.552
301.551
301.549
301.547
301.545
301.542
301.54
301.538
301.536
301.533
301.531
301.529
301.526
301.524
301.521
301.518
301.516
301.513
301.51
301.507
301.505
301.502
301.499
)
;

boundaryField
{
    boundary
    {
        type            empty;
    }
    inlet
    {
        type            fixedValue;
        value           nonuniform 0();
    }
    outlet
    {
        type            zeroGradient;
    }
    procBoundary3to1
    {
        type            processor;
        value           uniform 301.495;
    }
    procBoundary3to2
    {
        type            processor;
        value           uniform 301.575;
    }
}


// ************************************************************************* //
