/*--------------------------------*- C++ -*----------------------------------*\
  =========                 |
  \\      /  F ield         | OpenFOAM: The Open Source CFD Toolbox
   \\    /   O peration     | Website:  https://openfoam.org
    \\  /    A nd           | Version:  7
     \\/     M anipulation  |
\*---------------------------------------------------------------------------*/
FoamFile
{
    version     2.0;
    format      ascii;
    class       volScalarField;
    location    "0.00033";
    object      p;
}
// * * * * * * * * * * * * * * * * * * * * * * * * * * * * * * * * * * * * * //

dimensions      [1 -1 -2 0 0 0 0];

internalField   nonuniform List<scalar> 
125
(
103153
103153
103153
103153
103153
103153
103153
103153
103153
103153
103153
103153
103153
103153
103153
103153
103153
103153
103153
103153
103153
103153
103153
103153
103153
103152
103152
103152
103151
103149
103146
103144
103141
103139
103138
103136
103135
103134
103133
103132
103132
103131
103131
103130
103130
103130
103129
103129
103129
103129
103128
103128
103128
103128
103128
103128
103127
103127
103127
103127
103127
103127
103127
103127
103127
103126
103126
103126
103126
103126
103126
103126
103126
103126
103126
103126
103126
103126
103126
103125
103125
103125
103125
103125
103125
103125
103125
103125
103125
103125
103125
103125
103125
103125
103125
103125
103125
103125
103125
103125
103125
103124
103124
103124
103124
103124
103124
103124
103124
103124
103124
103124
103124
103124
103124
103124
103124
103124
103124
103124
103124
103124
103124
103124
103124
)
;

boundaryField
{
    boundary
    {
        type            empty;
    }
    inlet
    {
        type            zeroGradient;
    }
    outlet
    {
        type            waveTransmissive;
        gamma           1.4;
        value           nonuniform 0();
    }
    procBoundary1to0
    {
        type            processor;
        value           uniform 103124;
    }
    procBoundary1to3
    {
        type            processor;
        value           uniform 103153;
    }
}


// ************************************************************************* //
