/*--------------------------------*- C++ -*----------------------------------*\
  =========                 |
  \\      /  F ield         | OpenFOAM: The Open Source CFD Toolbox
   \\    /   O peration     | Website:  https://openfoam.org
    \\  /    A nd           | Version:  7
     \\/     M anipulation  |
\*---------------------------------------------------------------------------*/
FoamFile
{
    version     2.0;
    format      ascii;
    class       volScalarField;
    location    "0.00073";
    object      Qdot;
}
// * * * * * * * * * * * * * * * * * * * * * * * * * * * * * * * * * * * * * //

dimensions      [1 -1 -3 0 0 0 0];

internalField   nonuniform List<scalar> 
124
(
1.6045e+08
1.57692e+08
1.54996e+08
1.52366e+08
1.49798e+08
1.4729e+08
1.44841e+08
1.42448e+08
1.4011e+08
1.37825e+08
1.35592e+08
1.33408e+08
1.31273e+08
1.29185e+08
1.27142e+08
1.25144e+08
1.23188e+08
1.21274e+08
1.19401e+08
1.17566e+08
1.1577e+08
1.14012e+08
1.12289e+08
1.10601e+08
1.08948e+08
1.07328e+08
1.0574e+08
1.04184e+08
1.02658e+08
1.01162e+08
9.9695e+07
9.82565e+07
9.68455e+07
9.54614e+07
9.41034e+07
9.2771e+07
9.14635e+07
9.01799e+07
8.89203e+07
8.76837e+07
8.64696e+07
8.52774e+07
8.41066e+07
8.29567e+07
8.18273e+07
8.07177e+07
7.96275e+07
7.85564e+07
7.75038e+07
7.64693e+07
7.54525e+07
7.44529e+07
7.34703e+07
7.25045e+07
7.15545e+07
7.06203e+07
6.97017e+07
6.87981e+07
6.79094e+07
6.70352e+07
6.61751e+07
6.53289e+07
6.44964e+07
6.36772e+07
6.2871e+07
6.20776e+07
6.12968e+07
6.05283e+07
5.97718e+07
5.90272e+07
5.82942e+07
5.75728e+07
5.68615e+07
5.61624e+07
5.54738e+07
5.47958e+07
5.41281e+07
5.34705e+07
5.2823e+07
5.21853e+07
5.15574e+07
5.0939e+07
5.03293e+07
4.97295e+07
4.91386e+07
4.85565e+07
4.7983e+07
4.74182e+07
4.68617e+07
4.63135e+07
4.57734e+07
4.52413e+07
4.4717e+07
4.42005e+07
4.36917e+07
4.31903e+07
4.26963e+07
4.22102e+07
4.17359e+07
4.13199e+07
4.09809e+07
4.00903e+07
3.96452e+07
3.9233e+07
3.88012e+07
3.8365e+07
3.79288e+07
3.74947e+07
3.70637e+07
3.66364e+07
3.62124e+07
3.57917e+07
3.5374e+07
3.4959e+07
3.45463e+07
3.41353e+07
3.37252e+07
3.33148e+07
3.2902e+07
3.24848e+07
3.20607e+07
3.16288e+07
3.12025e+07
3.08746e+07
)
;

boundaryField
{
    boundary
    {
        type            empty;
    }
    inlet
    {
        type            calculated;
        value           nonuniform 0();
    }
    outlet
    {
        type            calculated;
        value           uniform 0;
    }
    procBoundary0to1
    {
        type            processor;
        value           uniform 0;
    }
}


// ************************************************************************* //
