/*--------------------------------*- C++ -*----------------------------------*\
  =========                 |
  \\      /  F ield         | OpenFOAM: The Open Source CFD Toolbox
   \\    /   O peration     | Website:  https://openfoam.org
    \\  /    A nd           | Version:  7
     \\/     M anipulation  |
\*---------------------------------------------------------------------------*/
FoamFile
{
    version     2.0;
    format      ascii;
    class       volScalarField;
    location    "0.00101";
    object      HO2;
}
// * * * * * * * * * * * * * * * * * * * * * * * * * * * * * * * * * * * * * //

dimensions      [0 0 0 0 0 0 0];

internalField   nonuniform List<scalar> 
126
(
8.10501e-36
8.10512e-36
8.10523e-36
8.10535e-36
8.10547e-36
8.10559e-36
8.10572e-36
8.10586e-36
8.106e-36
8.10615e-36
8.10632e-36
8.10649e-36
8.10667e-36
8.10686e-36
8.10707e-36
8.10728e-36
8.10751e-36
8.10775e-36
8.108e-36
8.10825e-36
8.10852e-36
8.1088e-36
8.10908e-36
8.10937e-36
8.10966e-36
8.10996e-36
8.11027e-36
8.11059e-36
8.11091e-36
8.11126e-36
8.11161e-36
8.11199e-36
8.11239e-36
8.11283e-36
8.11329e-36
8.11379e-36
8.11433e-36
8.11492e-36
8.11554e-36
8.1162e-36
8.11691e-36
8.11764e-36
8.11841e-36
8.1192e-36
8.12e-36
8.12082e-36
8.12163e-36
8.12244e-36
8.12323e-36
8.12399e-36
8.12473e-36
8.12544e-36
8.12612e-36
8.12676e-36
8.12737e-36
8.12795e-36
8.12851e-36
8.12904e-36
8.12957e-36
8.13008e-36
8.1306e-36
8.13113e-36
8.13168e-36
8.13225e-36
8.13284e-36
8.13346e-36
8.13412e-36
8.1348e-36
8.13552e-36
8.13627e-36
8.13705e-36
8.13785e-36
8.13866e-36
8.13949e-36
8.14032e-36
8.14116e-36
8.14199e-36
8.14281e-36
8.14361e-36
8.14439e-36
8.14515e-36
8.14587e-36
8.14657e-36
8.14725e-36
8.14793e-36
8.14871e-36
8.14987e-36
8.15233e-36
8.15892e-36
8.17852e-36
8.23869e-36
8.42507e-36
9.00346e-36
1.07977e-35
1.63593e-35
3.35855e-35
8.69094e-35
2.51915e-34
7.62478e-34
2.34279e-33
7.23818e-33
2.24244e-32
6.96389e-32
2.1691e-31
6.78386e-31
2.13352e-30
6.76037e-30
2.16325e-29
7.00952e-29
2.30681e-28
7.73396e-28
2.64888e-27
9.28789e-27
3.33772e-26
1.22922e-25
4.63349e-25
1.78378e-24
6.99401e-24
2.78472e-23
1.12272e-22
4.57174e-22
1.87619e-21
7.74626e-21
3.21307e-20
1.3375e-19
5.58282e-19
)
;

boundaryField
{
    boundary
    {
        type            empty;
    }
    inlet
    {
        type            fixedValue;
        value           nonuniform 0();
    }
    outlet
    {
        type            zeroGradient;
    }
    procBoundary3to1
    {
        type            processor;
        value           uniform 2.34919e-18;
    }
    procBoundary3to2
    {
        type            processor;
        value           uniform 8.11308e-36;
    }
}


// ************************************************************************* //
