/*--------------------------------*- C++ -*----------------------------------*\
  =========                 |
  \\      /  F ield         | OpenFOAM: The Open Source CFD Toolbox
   \\    /   O peration     | Website:  https://openfoam.org
    \\  /    A nd           | Version:  7
     \\/     M anipulation  |
\*---------------------------------------------------------------------------*/
FoamFile
{
    version     2.0;
    format      ascii;
    class       surfaceScalarField;
    location    "0.00101";
    object      phi;
}
// * * * * * * * * * * * * * * * * * * * * * * * * * * * * * * * * * * * * * //

dimensions      [1 0 -1 0 0 0 0];

internalField   nonuniform List<scalar> 
125
(
6.88593e-06
6.88585e-06
6.88577e-06
6.88569e-06
6.88561e-06
6.88554e-06
6.88546e-06
6.88538e-06
6.8853e-06
6.88522e-06
6.88515e-06
6.88507e-06
6.88499e-06
6.88491e-06
6.88483e-06
6.88475e-06
6.88467e-06
6.8846e-06
6.88452e-06
6.88444e-06
6.88436e-06
6.88428e-06
6.8842e-06
6.88412e-06
6.88404e-06
6.88396e-06
6.88389e-06
6.88381e-06
6.88373e-06
6.88365e-06
6.88357e-06
6.8835e-06
6.88342e-06
6.88334e-06
6.88326e-06
6.88319e-06
6.88311e-06
6.88303e-06
6.88296e-06
6.88288e-06
6.8828e-06
6.88272e-06
6.88265e-06
6.88257e-06
6.88249e-06
6.88242e-06
6.88234e-06
6.88226e-06
6.88218e-06
6.8821e-06
6.88203e-06
6.88195e-06
6.88187e-06
6.88179e-06
6.88172e-06
6.88164e-06
6.88156e-06
6.88148e-06
6.8814e-06
6.88133e-06
6.88125e-06
6.88117e-06
6.88109e-06
6.88102e-06
6.88094e-06
6.88086e-06
6.88078e-06
6.88071e-06
6.88063e-06
6.88055e-06
6.88047e-06
6.8804e-06
6.88032e-06
6.88024e-06
6.88017e-06
6.88009e-06
6.88001e-06
6.87994e-06
6.87986e-06
6.87978e-06
6.87971e-06
6.87963e-06
6.87956e-06
6.87948e-06
6.87941e-06
6.87933e-06
6.87926e-06
6.87918e-06
6.87911e-06
6.87903e-06
6.87896e-06
6.87889e-06
6.87881e-06
6.87874e-06
6.87867e-06
6.8786e-06
6.87853e-06
6.87846e-06
6.87839e-06
6.87832e-06
6.87825e-06
6.87818e-06
6.87811e-06
6.87805e-06
6.87798e-06
6.87791e-06
6.87785e-06
6.87778e-06
6.87772e-06
6.87766e-06
6.87759e-06
6.87753e-06
6.87747e-06
6.87741e-06
6.87735e-06
6.87729e-06
6.87724e-06
6.87718e-06
6.87712e-06
6.87707e-06
6.87702e-06
6.87696e-06
6.87691e-06
6.87686e-06
6.87681e-06
)
;

boundaryField
{
    boundary
    {
        type            empty;
        value           nonuniform 0();
    }
    inlet
    {
        type            calculated;
        value           nonuniform 0();
    }
    outlet
    {
        type            calculated;
        value           nonuniform 0();
    }
    procBoundary3to1
    {
        type            processor;
        value           uniform 6.87676e-06;
    }
    procBoundary3to2
    {
        type            processor;
        value           uniform -6.88601e-06;
    }
}


// ************************************************************************* //
