/*--------------------------------*- C++ -*----------------------------------*\
  =========                 |
  \\      /  F ield         | OpenFOAM: The Open Source CFD Toolbox
   \\    /   O peration     | Website:  https://openfoam.org
    \\  /    A nd           | Version:  7
     \\/     M anipulation  |
\*---------------------------------------------------------------------------*/
FoamFile
{
    version     2.0;
    format      ascii;
    class       volScalarField;
    location    "0.00101";
    object      Qdot;
}
// * * * * * * * * * * * * * * * * * * * * * * * * * * * * * * * * * * * * * //

dimensions      [1 -1 -3 0 0 0 0];

internalField   nonuniform List<scalar> 
126
(
-2.6808e-27
-2.68086e-27
-2.68093e-27
-2.68098e-27
-2.68103e-27
-2.68107e-27
-2.68111e-27
-2.68115e-27
-2.6812e-27
-2.68125e-27
-2.68131e-27
-2.68138e-27
-2.68145e-27
-2.68153e-27
-2.68162e-27
-2.68171e-27
-2.68181e-27
-2.68191e-27
-2.68202e-27
-2.68213e-27
-2.68224e-27
-2.68235e-27
-2.68247e-27
-2.68258e-27
-2.6827e-27
-2.68281e-27
-2.68291e-27
-2.68302e-27
-2.68312e-27
-2.68321e-27
-2.6833e-27
-2.68339e-27
-2.68348e-27
-2.68356e-27
-2.68365e-27
-2.68373e-27
-2.68382e-27
-2.68391e-27
-2.68401e-27
-2.6841e-27
-2.68421e-27
-2.68431e-27
-2.68443e-27
-2.68455e-27
-2.68467e-27
-2.6848e-27
-2.68493e-27
-2.68507e-27
-2.68521e-27
-2.68535e-27
-2.6855e-27
-2.68565e-27
-2.68581e-27
-2.68596e-27
-2.68612e-27
-2.68628e-27
-2.68645e-27
-2.68661e-27
-2.68678e-27
-2.68694e-27
-2.68711e-27
-2.68728e-27
-2.68746e-27
-2.68763e-27
-2.6878e-27
-2.68798e-27
-2.68815e-27
-2.68833e-27
-2.68851e-27
-2.68869e-27
-2.68886e-27
-2.68904e-27
-2.68922e-27
-2.68939e-27
-2.68957e-27
-2.68974e-27
-2.68991e-27
-2.69007e-27
-2.69023e-27
-2.69036e-27
-2.69044e-27
-2.69035e-27
-2.68972e-27
-2.68745e-27
-2.68002e-27
-2.65645e-27
-2.58249e-27
-2.35142e-27
-1.63136e-27
6.08328e-28
7.56385e-27
2.91346e-26
9.59459e-26
3.0264e-25
9.41414e-25
2.91357e-24
8.997e-24
2.77469e-23
8.54925e-23
2.63212e-22
8.09806e-22
2.48987e-21
7.65088e-21
2.34962e-20
7.21184e-20
2.21243e-19
6.78389e-19
2.07915e-18
6.36953e-18
1.95059e-17
5.97155e-17
1.82774e-16
5.59376e-16
1.71212e-15
5.24224e-15
1.60624e-14
4.92761e-14
1.51467e-13
4.66987e-13
1.44625e-12
4.50856e-12
1.41882e-11
4.52449e-11
1.46915e-10
4.88542e-10
1.67385e-09
)
;

boundaryField
{
    boundary
    {
        type            empty;
    }
    inlet
    {
        type            calculated;
        value           nonuniform 0();
    }
    outlet
    {
        type            calculated;
        value           nonuniform 0();
    }
    procBoundary3to1
    {
        type            processor;
        value           uniform 0;
    }
    procBoundary3to2
    {
        type            processor;
        value           uniform 0;
    }
}


// ************************************************************************* //
