/*--------------------------------*- C++ -*----------------------------------*\
  =========                 |
  \\      /  F ield         | OpenFOAM: The Open Source CFD Toolbox
   \\    /   O peration     | Website:  https://openfoam.org
    \\  /    A nd           | Version:  7
     \\/     M anipulation  |
\*---------------------------------------------------------------------------*/
FoamFile
{
    version     2.0;
    format      ascii;
    class       volScalarField;
    location    "0.0008";
    object      H;
}
// * * * * * * * * * * * * * * * * * * * * * * * * * * * * * * * * * * * * * //

dimensions      [0 0 0 0 0 0 0];

internalField   nonuniform List<scalar> 
500
(
1.4862e-41
2.01364e-41
2.1277e-41
2.15241e-41
2.15756e-41
2.15816e-41
2.15743e-41
2.15607e-41
2.15423e-41
2.152e-41
2.14944e-41
2.14662e-41
2.14365e-41
2.14061e-41
2.13763e-41
2.13481e-41
2.13224e-41
2.13002e-41
2.12821e-41
2.12688e-41
2.12606e-41
2.12578e-41
2.12605e-41
2.12687e-41
2.12825e-41
2.13017e-41
2.13264e-41
2.13567e-41
2.13928e-41
2.1435e-41
2.14838e-41
2.15396e-41
2.16034e-41
2.1676e-41
2.17585e-41
2.18519e-41
2.19576e-41
2.20768e-41
2.22109e-41
2.23614e-41
2.25294e-41
2.27163e-41
2.29232e-41
2.3151e-41
2.34006e-41
2.36724e-41
2.39668e-41
2.42835e-41
2.46222e-41
2.4982e-41
2.53618e-41
2.57598e-41
2.61741e-41
2.66024e-41
2.70418e-41
2.74894e-41
2.79419e-41
2.83958e-41
2.88478e-41
2.92942e-41
2.97317e-41
3.01571e-41
3.05673e-41
3.09597e-41
3.13321e-41
3.16826e-41
3.20099e-41
3.2313e-41
3.25914e-41
3.28452e-41
3.30746e-41
3.32804e-41
3.34635e-41
3.36253e-41
3.3767e-41
3.38904e-41
3.39968e-41
3.4088e-41
3.41657e-41
3.42312e-41
3.42862e-41
3.4332e-41
3.43699e-41
3.4401e-41
3.44264e-41
3.44471e-41
3.44637e-41
3.4477e-41
3.44876e-41
3.4496e-41
3.45026e-41
3.45078e-41
3.45119e-41
3.4515e-41
3.45175e-41
3.45195e-41
3.4521e-41
3.45222e-41
3.45232e-41
3.4524e-41
3.45247e-41
3.45253e-41
3.45258e-41
3.45263e-41
3.45267e-41
3.45272e-41
3.45276e-41
3.4528e-41
3.45285e-41
3.45289e-41
3.45294e-41
3.45299e-41
3.45304e-41
3.45309e-41
3.45315e-41
3.4532e-41
3.45326e-41
3.45333e-41
3.45339e-41
3.45346e-41
3.45353e-41
3.45361e-41
3.45368e-41
3.45375e-41
3.45379e-41
3.45383e-41
3.45396e-41
3.45411e-41
3.45428e-41
3.45447e-41
3.45468e-41
3.45488e-41
3.45508e-41
3.45528e-41
3.45547e-41
3.45565e-41
3.45582e-41
3.45596e-41
3.45609e-41
3.4562e-41
3.4563e-41
3.45639e-41
3.45647e-41
3.45654e-41
3.45662e-41
3.4567e-41
3.45679e-41
3.45688e-41
3.45699e-41
3.45711e-41
3.45725e-41
3.45739e-41
3.45755e-41
3.45772e-41
3.4579e-41
3.45809e-41
3.45828e-41
3.45848e-41
3.45868e-41
3.45889e-41
3.45909e-41
3.45931e-41
3.45952e-41
3.45973e-41
3.45995e-41
3.46017e-41
3.46039e-41
3.46061e-41
3.46084e-41
3.46106e-41
3.46129e-41
3.46152e-41
3.46175e-41
3.46199e-41
3.46222e-41
3.46246e-41
3.4627e-41
3.46295e-41
3.46319e-41
3.46344e-41
3.46368e-41
3.46393e-41
3.46417e-41
3.46442e-41
3.46466e-41
3.46491e-41
3.46514e-41
3.46538e-41
3.46561e-41
3.46584e-41
3.46606e-41
3.46627e-41
3.46648e-41
3.46668e-41
3.46687e-41
3.46705e-41
3.46722e-41
3.46738e-41
3.46753e-41
3.46766e-41
3.46778e-41
3.46789e-41
3.46798e-41
3.46806e-41
3.46812e-41
3.46816e-41
3.46819e-41
3.46821e-41
3.46826e-41
3.46843e-41
3.46908e-41
3.47132e-41
3.4789e-41
3.50399e-41
3.58629e-41
3.85443e-41
4.72374e-41
7.5295e-41
1.65486e-40
4.54291e-40
1.37573e-39
4.30547e-39
1.35903e-38
4.29249e-38
1.35338e-37
4.25685e-37
1.33562e-36
4.18071e-36
1.30575e-35
4.06997e-35
1.26625e-34
3.93297e-34
1.21976e-33
3.77791e-33
1.16878e-32
3.61236e-32
1.1156e-31
3.44329e-31
1.06239e-30
3.27768e-30
1.01151e-29
3.1239e-29
9.66127e-29
2.99483e-28
9.31682e-28
2.91409e-27
9.18689e-27
2.9291e-26
9.48656e-26
3.13765e-25
1.06602e-24
3.76008e-24
1.37182e-23
5.19747e-23
2.04556e-22
8.33593e-22
3.49944e-21
1.50483e-20
6.59444e-20
2.93285e-19
1.32019e-18
6.00709e-18
2.76361e-17
1.28793e-16
6.1026e-16
2.95652e-15
1.47531e-14
7.64572e-14
4.14649e-13
2.55961e-12
1.89849e-11
1.84117e-10
1.71184e-09
1.60606e-08
1.48196e-07
1.28313e-06
9.46557e-06
5.13224e-05
0.000175908
0.000398078
0.000701946
0.0010584
0.00140866
0.00168369
0.00185053
0.00192114
0.00191874
0.0018749
0.00180962
0.00173546
0.00165963
0.00158599
0.00151639
0.00145154
0.00139154
0.0013362
0.00128518
0.00123809
0.00119456
0.00115421
0.00111673
0.00108181
0.00104921
0.00101869
0.000990065
0.000963147
0.000937786
0.000913846
0.000891207
0.000869764
0.000849421
0.000830094
0.000812246
0.000795607
0.000779628
0.000764269
0.000749496
0.000735272
0.000721568
0.000708354
0.000695603
0.000683291
0.000671394
0.000659891
0.000648762
0.000637988
0.000627552
0.000617438
0.00060763
0.000598114
0.000588878
0.000579908
0.000571193
0.000562722
0.000554484
0.00054647
0.00053867
0.000531076
0.000523679
0.000516472
0.000509448
0.000502599
0.000495918
0.0004894
0.000483038
0.000476827
0.000470761
0.000464836
0.000459046
0.000453386
0.000447853
0.000442442
0.000437149
0.000431969
0.000426901
0.000421939
0.00041708
0.000412322
0.000407661
0.000403095
0.000398619
0.000394233
0.000389933
0.000385716
0.000381581
0.000377525
0.000373545
0.000369641
0.00036581
0.00036205
0.000358359
0.000354737
0.00035118
0.000347689
0.000344262
0.000340898
0.000337585
0.000334319
0.000331108
0.000327951
0.000324847
0.000321794
0.000318791
0.000315837
0.000312931
0.000310072
0.000307258
0.000304489
0.000301763
0.00029908
0.000296439
0.000293838
0.000291276
0.000288753
0.000286269
0.000283821
0.00028141
0.000279034
0.000276693
0.000274386
0.000272112
0.000269871
0.000267662
0.000265484
0.000263337
0.00026122
0.000259132
0.000257074
0.000255043
0.00025304
0.000251065
0.000249116
0.000247194
0.000245297
0.000243425
0.000241579
0.000239756
0.000237958
0.000236183
0.000234431
0.000232702
0.000230995
0.00022931
0.000227646
0.000226004
0.000224382
0.000222781
0.000221201
0.000219639
0.000218098
0.000216576
0.000215072
0.000213587
0.000212121
0.000210673
0.000209242
0.000207829
0.000206433
0.000205054
0.000203692
0.000202347
0.000201017
0.000199704
0.000198407
0.000197126
0.00019586
0.000194609
0.000193373
0.000192152
0.000190946
0.000189755
0.000188578
0.000187415
0.000186267
0.000185132
0.000184012
0.000182904
0.000181811
0.000180731
0.000179664
0.000178611
0.000177571
0.000176543
0.000175529
0.000174528
0.000173539
0.000172564
0.0001716
0.00017065
0.000169712
0.000168787
0.000167874
0.000166973
0.000166085
0.000165209
0.000164345
0.000163494
0.000162655
0.000161828
0.000161013
0.00016021
0.00015942
0.000158642
0.000157876
0.000157122
0.000156381
0.000155652
0.000154936
0.000154233
0.000153543
0.000152868
0.000152208
0.000151566
0.000150942
0.000150342
0.000149769
0.000149233
0.00014871
0.000148353
0.000148146
)
;

boundaryField
{
    boundary
    {
        type            empty;
    }
    inlet
    {
        type            fixedValue;
        value           uniform 0;
    }
    outlet
    {
        type            zeroGradient;
    }
}


// ************************************************************************* //
