/*--------------------------------*- C++ -*----------------------------------*\
  =========                 |
  \\      /  F ield         | OpenFOAM: The Open Source CFD Toolbox
   \\    /   O peration     | Website:  https://openfoam.org
    \\  /    A nd           | Version:  7
     \\/     M anipulation  |
\*---------------------------------------------------------------------------*/
FoamFile
{
    version     2.0;
    format      ascii;
    class       volScalarField;
    location    "0.0008";
    object      H2;
}
// * * * * * * * * * * * * * * * * * * * * * * * * * * * * * * * * * * * * * //

dimensions      [0 0 0 0 0 0 0];

internalField   nonuniform List<scalar> 
500
(
0.0285116
0.0285116
0.0285116
0.0285116
0.0285116
0.0285116
0.0285116
0.0285116
0.0285116
0.0285116
0.0285116
0.0285116
0.0285116
0.0285116
0.0285116
0.0285116
0.0285116
0.0285116
0.0285116
0.0285116
0.0285116
0.0285116
0.0285116
0.0285116
0.0285116
0.0285116
0.0285116
0.0285116
0.0285116
0.0285116
0.0285116
0.0285116
0.0285116
0.0285116
0.0285116
0.0285116
0.0285116
0.0285116
0.0285116
0.0285116
0.0285116
0.0285116
0.0285116
0.0285116
0.0285116
0.0285116
0.0285116
0.0285116
0.0285116
0.0285116
0.0285116
0.0285116
0.0285116
0.0285116
0.0285116
0.0285116
0.0285116
0.0285116
0.0285116
0.0285116
0.0285116
0.0285116
0.0285116
0.0285116
0.0285116
0.0285116
0.0285116
0.0285116
0.0285116
0.0285116
0.0285116
0.0285116
0.0285116
0.0285116
0.0285116
0.0285116
0.0285116
0.0285116
0.0285116
0.0285116
0.0285116
0.0285116
0.0285116
0.0285116
0.0285116
0.0285116
0.0285116
0.0285116
0.0285116
0.0285116
0.0285116
0.0285116
0.0285116
0.0285116
0.0285116
0.0285116
0.0285116
0.0285116
0.0285116
0.0285116
0.0285116
0.0285116
0.0285116
0.0285116
0.0285116
0.0285116
0.0285116
0.0285116
0.0285116
0.0285116
0.0285116
0.0285116
0.0285116
0.0285116
0.0285116
0.0285116
0.0285116
0.0285116
0.0285116
0.0285116
0.0285116
0.0285116
0.0285116
0.0285116
0.0285116
0.0285116
0.0285116
0.0285116
0.0285116
0.0285116
0.0285116
0.0285116
0.0285116
0.0285116
0.0285116
0.0285116
0.0285116
0.0285116
0.0285116
0.0285116
0.0285116
0.0285116
0.0285116
0.0285116
0.0285116
0.0285116
0.0285116
0.0285116
0.0285116
0.0285116
0.0285116
0.0285116
0.0285116
0.0285116
0.0285116
0.0285116
0.0285116
0.0285116
0.0285116
0.0285116
0.0285116
0.0285116
0.0285116
0.0285116
0.0285116
0.0285116
0.0285116
0.0285116
0.0285116
0.0285116
0.0285116
0.0285116
0.0285116
0.0285116
0.0285116
0.0285116
0.0285116
0.0285116
0.0285116
0.0285116
0.0285116
0.0285116
0.0285116
0.0285116
0.0285116
0.0285116
0.0285116
0.0285116
0.0285116
0.0285116
0.0285116
0.0285116
0.0285116
0.0285116
0.0285116
0.0285116
0.0285116
0.0285116
0.0285116
0.0285116
0.0285116
0.0285116
0.0285116
0.0285116
0.0285116
0.0285116
0.0285116
0.0285116
0.0285116
0.0285116
0.0285116
0.0285116
0.0285116
0.0285116
0.0285116
0.0285116
0.0285116
0.0285116
0.0285116
0.0285116
0.0285116
0.0285116
0.0285116
0.0285116
0.0285116
0.0285116
0.0285116
0.0285116
0.0285116
0.0285116
0.0285116
0.0285116
0.0285116
0.0285116
0.0285116
0.0285116
0.0285116
0.0285116
0.0285116
0.0285116
0.0285116
0.0285116
0.0285116
0.0285116
0.0285116
0.0285116
0.0285116
0.0285116
0.0285116
0.0285116
0.0285116
0.0285116
0.0285116
0.0285116
0.0285116
0.0285116
0.0285116
0.0285116
0.0285116
0.0285116
0.0285116
0.0285115
0.0285115
0.0285114
0.0285112
0.0285108
0.02851
0.0285083
0.0285047
0.0284973
0.0284818
0.0284495
0.0283824
0.028244
0.0279625
0.0274126
0.0264215
0.0248399
0.0226773
0.0201061
0.0172276
0.0141653
0.0112234
0.008764
0.00695937
0.00565414
0.00488408
0.00440665
0.0041128
0.00393036
0.00381417
0.00373683
0.00368205
0.00364027
0.00360592
0.00357581
0.00354812
0.00352183
0.00349637
0.00347147
0.00344696
0.00342279
0.00339892
0.00337537
0.00335214
0.00332924
0.00330668
0.00328448
0.00326263
0.00324114
0.00322001
0.00319924
0.00317946
0.00316046
0.00314172
0.00312324
0.00310501
0.00308702
0.00306928
0.00305177
0.0030345
0.00301745
0.00300064
0.00298404
0.00296766
0.00295149
0.00293553
0.00291977
0.00290422
0.00288886
0.0028737
0.00285872
0.00284393
0.00282933
0.0028149
0.00280065
0.00278658
0.00277267
0.00275893
0.00274536
0.00273195
0.0027187
0.00270561
0.00269267
0.00267989
0.00266725
0.00265477
0.00264243
0.00263024
0.00261819
0.00260627
0.0025945
0.00258287
0.00257136
0.00255999
0.00254875
0.00253764
0.00252665
0.00251579
0.00250505
0.00249443
0.00248393
0.00247355
0.00246328
0.00245312
0.00244307
0.00243313
0.0024233
0.00241357
0.00240395
0.00239443
0.00238502
0.00237571
0.00236649
0.00235738
0.00234838
0.00233943
0.00233052
0.0023217
0.00231296
0.0023043
0.00229572
0.00228722
0.0022788
0.00227045
0.00226218
0.00225398
0.00224586
0.0022378
0.00222982
0.0022219
0.00221405
0.00220627
0.00219856
0.00219091
0.00218333
0.00217581
0.00216836
0.00216096
0.00215363
0.00214636
0.00213915
0.002132
0.0021249
0.00211787
0.00211089
0.00210397
0.0020971
0.00209029
0.00208353
0.00207683
0.00207017
0.00206358
0.00205703
0.00205053
0.00204409
0.00203769
0.00203134
0.00202505
0.0020188
0.0020126
0.00200644
0.00200033
0.00199427
0.00198825
0.00198228
0.00197635
0.00197047
0.00196463
0.00195884
0.00195309
0.00194738
0.00194172
0.0019361
0.00193052
0.00192498
0.00191949
0.00191404
0.00190863
0.00190326
0.00189794
0.00189266
0.00188742
0.00188222
0.00187707
0.00187196
0.00186689
0.00186187
0.00185689
0.00185196
0.00184707
0.00184222
0.00183742
0.00183267
0.00182797
0.00182331
0.0018187
0.00181414
0.00180963
0.00180518
0.00180077
0.00179641
0.00179211
0.00178787
0.00178368
0.00177954
0.00177547
0.00177145
0.0017675
0.00176361
0.00175978
0.00175602
0.00175233
0.0017487
0.00174515
0.00174167
0.00173827
0.00173494
0.0017317
0.00172854
0.00172547
0.00172248
0.00171959
0.00171679
0.0017141
0.00171151
0.00170902
0.00170665
0.00170441
0.00170229
0.00170031
0.00169848
0.00169682
0.00169535
0.00169408
0.00169306
0.00169231
0.00169171
0.00169139
0.00169125
)
;

boundaryField
{
    boundary
    {
        type            empty;
    }
    inlet
    {
        type            fixedValue;
        value           uniform 0.0285116;
    }
    outlet
    {
        type            zeroGradient;
    }
}


// ************************************************************************* //
