/*--------------------------------*- C++ -*----------------------------------*\
  =========                 |
  \\      /  F ield         | OpenFOAM: The Open Source CFD Toolbox
   \\    /   O peration     | Website:  https://openfoam.org
    \\  /    A nd           | Version:  7
     \\/     M anipulation  |
\*---------------------------------------------------------------------------*/
FoamFile
{
    version     2.0;
    format      ascii;
    class       volScalarField;
    location    "0.0008";
    object      H2O;
}
// * * * * * * * * * * * * * * * * * * * * * * * * * * * * * * * * * * * * * //

dimensions      [0 0 0 0 0 0 0];

internalField   nonuniform List<scalar> 
500
(
7.88093e-48
2.27696e-47
4.09529e-47
6.13487e-47
8.32209e-47
1.0607e-46
1.29559e-46
1.53459e-46
1.77617e-46
2.01934e-46
2.26348e-46
2.50827e-46
2.75357e-46
2.9994e-46
3.24586e-46
3.49314e-46
3.74145e-46
3.99101e-46
4.24203e-46
4.49472e-46
4.74924e-46
5.00573e-46
5.26434e-46
5.52518e-46
5.78841e-46
6.05418e-46
6.32272e-46
6.59428e-46
6.86924e-46
7.14802e-46
7.43117e-46
7.71933e-46
8.01328e-46
8.31388e-46
8.62211e-46
8.93904e-46
9.2658e-46
9.60358e-46
9.95361e-46
1.03171e-45
1.06951e-45
1.10886e-45
1.14986e-45
1.19257e-45
1.23703e-45
1.28324e-45
1.33117e-45
1.38076e-45
1.4319e-45
1.48443e-45
1.53817e-45
1.59287e-45
1.64826e-45
1.70404e-45
1.75988e-45
1.81544e-45
1.87034e-45
1.92425e-45
1.9768e-45
2.02768e-45
2.07656e-45
2.1232e-45
2.16735e-45
2.20883e-45
2.24751e-45
2.2833e-45
2.31615e-45
2.34607e-45
2.37312e-45
2.39738e-45
2.41896e-45
2.43801e-45
2.4547e-45
2.46921e-45
2.48172e-45
2.49243e-45
2.50153e-45
2.5092e-45
2.51562e-45
2.52095e-45
2.52534e-45
2.52894e-45
2.53187e-45
2.53422e-45
2.53611e-45
2.53762e-45
2.53881e-45
2.53974e-45
2.54047e-45
2.54104e-45
2.54148e-45
2.54182e-45
2.54208e-45
2.54228e-45
2.54243e-45
2.54255e-45
2.54264e-45
2.54272e-45
2.54278e-45
2.54283e-45
2.54287e-45
2.54291e-45
2.54294e-45
2.54298e-45
2.54301e-45
2.54304e-45
2.54307e-45
2.54311e-45
2.54314e-45
2.54318e-45
2.54322e-45
2.54326e-45
2.5433e-45
2.54334e-45
2.54339e-45
2.54343e-45
2.54349e-45
2.54354e-45
2.54359e-45
2.54365e-45
2.5437e-45
2.54372e-45
2.54364e-45
2.5432e-45
2.54139e-45
2.53803e-45
2.53811e-45
2.5382e-45
2.53829e-45
2.53838e-45
2.53849e-45
2.53859e-45
2.5387e-45
2.53881e-45
2.53892e-45
2.53904e-45
2.53915e-45
2.53927e-45
2.53939e-45
2.53952e-45
2.53966e-45
2.53981e-45
2.53997e-45
2.54016e-45
2.54037e-45
2.5406e-45
2.54087e-45
2.54117e-45
2.5415e-45
2.54187e-45
2.54227e-45
2.54271e-45
2.54317e-45
2.54365e-45
2.54414e-45
2.54464e-45
2.54514e-45
2.54564e-45
2.54612e-45
2.54657e-45
2.547e-45
2.5474e-45
2.54777e-45
2.5481e-45
2.54839e-45
2.54866e-45
2.54889e-45
2.54909e-45
2.54928e-45
2.54944e-45
2.54959e-45
2.54974e-45
2.54988e-45
2.55003e-45
2.55019e-45
2.55035e-45
2.55053e-45
2.55072e-45
2.55093e-45
2.55115e-45
2.55139e-45
2.55164e-45
2.55191e-45
2.55219e-45
2.55247e-45
2.55276e-45
2.55305e-45
2.55335e-45
2.55364e-45
2.55392e-45
2.5542e-45
2.55447e-45
2.55473e-45
2.55499e-45
2.55523e-45
2.55551e-45
2.55594e-45
2.55692e-45
2.55998e-45
2.57052e-45
2.60775e-45
2.73973e-45
3.20608e-45
4.84662e-45
1.05911e-44
3.06174e-44
1.00149e-43
3.40701e-43
1.17043e-42
4.02593e-42
1.38397e-41
4.75584e-41
1.63525e-40
5.63342e-40
1.94744e-39
6.76699e-39
2.36777e-38
8.35691e-38
2.97983e-37
1.07476e-36
3.92421e-36
1.45086e-35
5.43011e-35
2.05574e-34
7.86337e-34
3.0348e-33
1.18003e-32
4.61609e-32
1.81421e-31
7.15529e-31
2.8292e-30
1.12059e-29
4.44326e-29
1.76288e-28
6.99608e-28
2.77644e-27
1.10167e-26
4.37019e-26
1.73303e-25
6.87004e-25
2.72241e-24
1.07843e-23
4.27047e-23
1.69045e-22
6.68919e-22
2.64593e-21
1.04617e-20
4.13462e-20
1.63324e-19
6.44792e-19
2.544e-18
1.00882e-17
3.9849e-17
1.56942e-16
6.17252e-16
2.42521e-15
9.52021e-15
3.73411e-14
1.46356e-13
5.73291e-13
2.24463e-12
8.78618e-12
3.43891e-11
1.34614e-10
5.27084e-10
2.06467e-09
8.0918e-09
3.17309e-08
1.24497e-07
4.88682e-07
1.91858e-06
7.52944e-06
2.94906e-05
0.000114772
0.00043844
0.0015923
0.00512809
0.0133116
0.0267145
0.0438342
0.0645512
0.0890318
0.115026
0.138448
0.156402
0.17191
0.180981
0.187073
0.191218
0.194127
0.196259
0.1979
0.199226
0.200347
0.201327
0.202208
0.203016
0.203766
0.204471
0.205138
0.205771
0.206375
0.206952
0.207506
0.208037
0.208548
0.209039
0.209513
0.20997
0.210412
0.210838
0.211249
0.211635
0.212002
0.212361
0.21271
0.213051
0.213384
0.213709
0.214026
0.214337
0.21464
0.214937
0.215227
0.215511
0.21579
0.216062
0.216329
0.216591
0.216847
0.217099
0.217345
0.217587
0.217825
0.218058
0.218287
0.218512
0.218733
0.21895
0.219163
0.219373
0.21958
0.219783
0.219983
0.22018
0.220373
0.220564
0.220752
0.220937
0.22112
0.2213
0.221477
0.221652
0.221825
0.221995
0.222164
0.22233
0.222493
0.222655
0.222815
0.222973
0.223128
0.223282
0.223435
0.223585
0.223733
0.22388
0.224025
0.224169
0.224311
0.224451
0.224589
0.224727
0.224862
0.224996
0.225128
0.225259
0.225389
0.225517
0.225644
0.22577
0.225894
0.226017
0.226138
0.226259
0.226378
0.226495
0.226612
0.226727
0.226841
0.226954
0.227066
0.227177
0.227286
0.227395
0.227502
0.227608
0.227714
0.227818
0.227921
0.228024
0.228125
0.228225
0.228325
0.228423
0.228521
0.228618
0.228714
0.228809
0.228903
0.228996
0.229088
0.22918
0.229271
0.229361
0.22945
0.229539
0.229626
0.229713
0.229799
0.229885
0.229969
0.230053
0.230136
0.230219
0.230301
0.230382
0.230462
0.230542
0.230621
0.230699
0.230777
0.230854
0.23093
0.231006
0.231081
0.231156
0.23123
0.231303
0.231376
0.231448
0.23152
0.231591
0.231662
0.231732
0.231801
0.231871
0.231939
0.232007
0.232075
0.232142
0.232209
0.232275
0.232341
0.232407
0.232472
0.232537
0.232601
0.232665
0.232729
0.232793
0.232856
0.232919
0.232982
0.233044
0.233107
0.233169
0.233231
0.233293
0.233355
0.233417
0.233478
0.23354
0.233602
0.233664
0.233725
0.233787
0.23385
0.233912
0.233974
0.234037
0.2341
0.234164
0.234228
0.234292
0.234357
0.234423
0.234489
0.234556
0.234624
0.234692
0.234761
0.234831
0.234902
0.234973
0.235045
0.235118
0.235206
0.235261
0.235299
)
;

boundaryField
{
    boundary
    {
        type            empty;
    }
    inlet
    {
        type            fixedValue;
        value           uniform 0;
    }
    outlet
    {
        type            zeroGradient;
    }
}


// ************************************************************************* //
