/*--------------------------------*- C++ -*----------------------------------*\
  =========                 |
  \\      /  F ield         | OpenFOAM: The Open Source CFD Toolbox
   \\    /   O peration     | Website:  https://openfoam.org
    \\  /    A nd           | Version:  7
     \\/     M anipulation  |
\*---------------------------------------------------------------------------*/
FoamFile
{
    version     2.0;
    format      ascii;
    class       volScalarField;
    location    "0.0008";
    object      O;
}
// * * * * * * * * * * * * * * * * * * * * * * * * * * * * * * * * * * * * * //

dimensions      [0 0 0 0 0 0 0];

internalField   nonuniform List<scalar> 
500
(
1.57719e-47
3.7624e-47
5.9584e-47
8.15285e-47
1.03422e-46
1.25247e-46
1.46994e-46
1.68656e-46
1.9023e-46
2.11719e-46
2.33129e-46
2.54471e-46
2.75762e-46
2.97022e-46
3.18273e-46
3.3954e-46
3.60848e-46
3.8222e-46
4.03678e-46
4.25242e-46
4.46929e-46
4.68755e-46
4.90733e-46
5.12878e-46
5.35204e-46
5.57729e-46
5.80474e-46
6.03465e-46
6.26733e-46
6.50319e-46
6.74269e-46
6.98639e-46
7.23492e-46
7.489e-46
7.74941e-46
8.01699e-46
8.29265e-46
8.57729e-46
8.87182e-46
9.17712e-46
9.49402e-46
9.82323e-46
1.01654e-45
1.05208e-45
1.08898e-45
1.12724e-45
1.16682e-45
1.20766e-45
1.24969e-45
1.29278e-45
1.33679e-45
1.38153e-45
1.4268e-45
1.47238e-45
1.51801e-45
1.56343e-45
1.60838e-45
1.65259e-45
1.69578e-45
1.73771e-45
1.77813e-45
1.81685e-45
1.85366e-45
1.88842e-45
1.921e-45
1.95133e-45
1.97935e-45
2.00505e-45
2.02845e-45
2.0496e-45
2.06858e-45
2.08548e-45
2.10041e-45
2.11353e-45
2.12495e-45
2.13482e-45
2.14331e-45
2.15054e-45
2.15665e-45
2.1618e-45
2.16609e-45
2.16964e-45
2.17257e-45
2.17496e-45
2.1769e-45
2.17846e-45
2.17972e-45
2.18072e-45
2.18151e-45
2.18213e-45
2.18262e-45
2.183e-45
2.18329e-45
2.18352e-45
2.1837e-45
2.18383e-45
2.18394e-45
2.18403e-45
2.18409e-45
2.18415e-45
2.1842e-45
2.18424e-45
2.18427e-45
2.1843e-45
2.18433e-45
2.18436e-45
2.18439e-45
2.18442e-45
2.18446e-45
2.18449e-45
2.18452e-45
2.18456e-45
2.18459e-45
2.18463e-45
2.18467e-45
2.18471e-45
2.18475e-45
2.1848e-45
2.18484e-45
2.18488e-45
2.18491e-45
2.18488e-45
2.18471e-45
2.18412e-45
2.1823e-45
2.17966e-45
2.17974e-45
2.17981e-45
2.1799e-45
2.17998e-45
2.18007e-45
2.18017e-45
2.18027e-45
2.18038e-45
2.18049e-45
2.1806e-45
2.18073e-45
2.18086e-45
2.181e-45
2.18115e-45
2.18133e-45
2.18151e-45
2.18173e-45
2.18196e-45
2.18222e-45
2.18251e-45
2.18282e-45
2.18317e-45
2.18353e-45
2.18392e-45
2.18432e-45
2.18473e-45
2.18515e-45
2.18557e-45
2.18598e-45
2.18638e-45
2.18677e-45
2.18714e-45
2.18749e-45
2.18781e-45
2.18811e-45
2.18839e-45
2.18865e-45
2.18889e-45
2.1891e-45
2.18931e-45
2.18949e-45
2.18967e-45
2.18984e-45
2.19e-45
2.19017e-45
2.19033e-45
2.19049e-45
2.19065e-45
2.19081e-45
2.19099e-45
2.19116e-45
2.19135e-45
2.19153e-45
2.19173e-45
2.19193e-45
2.19213e-45
2.19235e-45
2.19256e-45
2.19278e-45
2.19299e-45
2.19321e-45
2.19343e-45
2.19365e-45
2.19387e-45
2.19409e-45
2.19438e-45
2.19488e-45
2.19619e-45
2.20048e-45
2.21558e-45
2.26969e-45
2.46357e-45
3.15536e-45
5.61058e-45
1.42755e-44
4.46822e-44
1.50783e-43
5.18932e-43
1.78924e-42
6.1483e-42
2.10251e-41
7.1524e-41
2.42033e-40
8.14752e-40
2.72859e-39
9.09184e-39
3.01449e-38
9.94654e-38
3.26648e-37
1.06782e-36
3.4752e-36
1.12615e-35
3.63425e-35
1.16816e-34
3.74058e-34
1.19343e-33
3.7945e-33
1.20253e-32
3.79925e-32
1.19687e-31
3.76031e-31
1.17845e-30
3.68459e-30
1.14958e-29
3.57963e-29
1.11266e-28
3.45292e-28
1.06999e-27
3.31135e-27
1.02359e-26
3.16084e-26
9.75179e-26
3.0062e-25
9.26073e-25
2.85102e-24
8.77224e-24
2.69773e-23
8.2923e-23
2.54771e-22
7.82394e-22
2.40157e-21
7.36808e-21
2.25938e-20
6.92453e-20
2.12101e-19
6.52281e-19
2.0011e-18
6.12309e-18
1.87131e-17
5.71482e-17
1.74433e-16
5.32216e-16
1.62343e-15
4.95132e-15
1.51013e-14
4.60643e-14
1.40548e-13
4.28972e-13
1.30981e-12
4.00111e-12
1.22278e-11
3.73869e-11
1.14364e-10
3.50015e-10
1.0721e-09
3.29118e-09
1.01903e-08
3.26436e-08
1.17596e-07
5.60583e-07
3.69131e-06
2.40557e-05
0.000115292
0.000441484
0.00123666
0.00247946
0.0038406
0.00498266
0.00577014
0.00623077
0.00641521
0.00644511
0.00638098
0.00626282
0.00611605
0.00595625
0.00579266
0.00563059
0.00547299
0.00532137
0.00517642
0.00503831
0.00490695
0.00478211
0.00466345
0.00455064
0.00444331
0.00434112
0.00424373
0.00415083
0.00406213
0.00397737
0.00389629
0.00381868
0.00374434
0.00367311
0.00360693
0.0035444
0.00348395
0.00342547
0.00336886
0.00331402
0.00326088
0.00320935
0.00315936
0.00311084
0.00306373
0.00301798
0.00297351
0.00293028
0.00288823
0.00284733
0.00280751
0.00276875
0.00273099
0.00269421
0.00265835
0.00262339
0.0025893
0.00255603
0.00252356
0.00249186
0.0024609
0.00243066
0.0024011
0.00237221
0.00234395
0.00231632
0.00228927
0.00226281
0.0022369
0.00221152
0.00218666
0.0021623
0.00213843
0.00211503
0.00209208
0.00206957
0.00204748
0.00202581
0.00200454
0.00198366
0.00196316
0.00194303
0.00192325
0.00190383
0.00188474
0.00186598
0.00184755
0.00182943
0.00181162
0.00179411
0.00177689
0.00175996
0.00174331
0.00172694
0.00171083
0.001695
0.00167942
0.00166411
0.00164902
0.00163414
0.00161949
0.00160508
0.00159088
0.00157691
0.00156315
0.00154959
0.00153625
0.0015231
0.00151015
0.00149739
0.00148482
0.00147244
0.00146023
0.0014482
0.00143634
0.00142466
0.00141313
0.00140177
0.00139056
0.00137951
0.00136862
0.00135787
0.00134726
0.0013368
0.00132648
0.0013163
0.00130625
0.00129633
0.00128654
0.00127688
0.00126735
0.00125794
0.00124865
0.00123948
0.00123042
0.00122148
0.00121265
0.00120393
0.00119532
0.00118682
0.00117843
0.00117014
0.00116195
0.00115386
0.00114587
0.00113798
0.00113019
0.00112249
0.00111488
0.00110737
0.00109994
0.00109261
0.00108536
0.0010782
0.00107113
0.00106414
0.00105723
0.0010504
0.00104366
0.00103699
0.0010304
0.00102388
0.00101744
0.00101107
0.00100478
0.000998552
0.000992397
0.000986311
0.000980292
0.000974339
0.000968451
0.000962627
0.000956865
0.000951164
0.000945523
0.000939942
0.000934418
0.000928951
0.00092354
0.000918183
0.00091288
0.000907629
0.00090243
0.000897281
0.000892182
0.00088713
0.000882126
0.000877167
0.000872253
0.000867383
0.000862556
0.00085777
0.000853024
0.000848317
0.000843647
0.000839014
0.000834415
0.000829849
0.000825314
0.000820809
0.000816333
0.000811882
0.000807456
0.000803051
0.000798667
0.0007943
0.00078995
0.000785613
0.000781287
0.000776971
0.000772662
0.00076836
0.000764063
0.000759771
0.000755487
0.000751215
0.000746972
0.00074278
0.000738705
0.000733956
0.000730959
0.00072901
)
;

boundaryField
{
    boundary
    {
        type            empty;
    }
    inlet
    {
        type            fixedValue;
        value           uniform 0;
    }
    outlet
    {
        type            zeroGradient;
    }
}


// ************************************************************************* //
