/*--------------------------------*- C++ -*----------------------------------*\
  =========                 |
  \\      /  F ield         | OpenFOAM: The Open Source CFD Toolbox
   \\    /   O peration     | Website:  https://openfoam.org
    \\  /    A nd           | Version:  7
     \\/     M anipulation  |
\*---------------------------------------------------------------------------*/
FoamFile
{
    version     2.0;
    format      ascii;
    class       volScalarField;
    location    "0.0008";
    object      O2;
}
// * * * * * * * * * * * * * * * * * * * * * * * * * * * * * * * * * * * * * //

dimensions      [0 0 0 0 0 0 0];

internalField   nonuniform List<scalar> 
500
(
0.226269
0.226269
0.226269
0.226269
0.226269
0.226269
0.226269
0.226269
0.226269
0.226269
0.226269
0.226269
0.226269
0.226269
0.226269
0.226269
0.226269
0.226269
0.226269
0.226269
0.226269
0.226269
0.226269
0.226269
0.226269
0.226269
0.226269
0.226269
0.226269
0.226269
0.226269
0.226269
0.226269
0.226269
0.226269
0.226269
0.226269
0.226269
0.226269
0.226269
0.226269
0.226269
0.226269
0.226269
0.226269
0.226269
0.226269
0.226269
0.226269
0.226269
0.226269
0.226269
0.226269
0.226269
0.226269
0.226269
0.226269
0.226269
0.226269
0.226269
0.226269
0.226269
0.226269
0.226269
0.226269
0.226269
0.226269
0.226269
0.226269
0.226269
0.226269
0.226269
0.226269
0.226269
0.226269
0.226269
0.226269
0.226269
0.226269
0.226269
0.226269
0.226269
0.226269
0.226269
0.226269
0.226269
0.226269
0.226269
0.226269
0.226269
0.226269
0.226269
0.226269
0.226269
0.226269
0.226269
0.226269
0.226269
0.226269
0.226269
0.226269
0.226269
0.226269
0.226269
0.226269
0.226269
0.226269
0.226269
0.226269
0.226269
0.226269
0.226269
0.226269
0.226269
0.226269
0.226269
0.226269
0.226269
0.226269
0.226269
0.226269
0.226269
0.226269
0.226269
0.226269
0.226269
0.226269
0.226269
0.226269
0.226269
0.226269
0.226269
0.226269
0.226269
0.226269
0.226269
0.226269
0.226269
0.226269
0.226269
0.226269
0.226269
0.226269
0.226269
0.226269
0.226269
0.226269
0.226269
0.226269
0.226269
0.226269
0.226269
0.226269
0.226269
0.226269
0.226269
0.226269
0.226269
0.226269
0.226269
0.226269
0.226269
0.226269
0.226269
0.226269
0.226269
0.226269
0.226269
0.226269
0.226269
0.226269
0.226269
0.226269
0.226269
0.226269
0.226269
0.226269
0.226269
0.226269
0.226269
0.226269
0.226269
0.226269
0.226269
0.226269
0.226269
0.226269
0.226269
0.226269
0.226269
0.226269
0.226269
0.226269
0.226269
0.226269
0.226269
0.226269
0.226269
0.226269
0.226269
0.226269
0.226269
0.226269
0.226269
0.226269
0.226269
0.226269
0.226269
0.226269
0.226269
0.226269
0.226269
0.226269
0.226269
0.226269
0.226269
0.226269
0.226269
0.226269
0.226269
0.226269
0.226269
0.226269
0.226269
0.226269
0.226269
0.226269
0.226269
0.226269
0.226269
0.226269
0.226269
0.226269
0.226269
0.226269
0.226269
0.226269
0.226269
0.226269
0.226269
0.226269
0.226269
0.226269
0.226269
0.226269
0.226269
0.226269
0.226269
0.226269
0.226269
0.226269
0.226269
0.226269
0.226269
0.226269
0.226269
0.226269
0.226269
0.226269
0.226269
0.226269
0.226269
0.226269
0.226269
0.226269
0.226269
0.226269
0.22627
0.226271
0.226272
0.226275
0.226278
0.226274
0.226224
0.225975
0.225023
0.222169
0.215441
0.204186
0.189626
0.171093
0.147804
0.12193
0.0979514
0.0793153
0.0626159
0.0528792
0.0463004
0.0418327
0.038732
0.0365063
0.0348419
0.0335422
0.0324846
0.0315923
0.0308169
0.0301273
0.0295032
0.0289309
0.028401
0.0279067
0.0274431
0.0270063
0.0265932
0.0262016
0.0258293
0.0254746
0.0251362
0.0248128
0.0245032
0.0242068
0.023923
0.0236595
0.0234092
0.0231667
0.0229317
0.0227038
0.0224826
0.0222677
0.0220589
0.0218559
0.0216584
0.0214661
0.0212789
0.0210966
0.0209188
0.0207455
0.0205764
0.0204114
0.0202504
0.020093
0.0199394
0.0197891
0.0196423
0.0194986
0.0193581
0.0192205
0.0190857
0.0189537
0.0188244
0.0186976
0.0185732
0.0184512
0.0183315
0.0182139
0.0180984
0.0179849
0.0178733
0.0177636
0.0176557
0.0175495
0.017445
0.0173421
0.0172407
0.0171408
0.0170424
0.0169454
0.0168497
0.0167553
0.0166623
0.0165705
0.0164799
0.0163905
0.0163022
0.0162151
0.0161291
0.0160442
0.0159603
0.0158775
0.0157957
0.015715
0.0156352
0.0155564
0.0154786
0.0154018
0.0153259
0.0152509
0.0151769
0.0151037
0.0150314
0.01496
0.0148894
0.0148197
0.0147509
0.0146828
0.0146155
0.0145491
0.0144834
0.0144184
0.0143542
0.0142907
0.0142279
0.0141658
0.0141044
0.0140437
0.0139836
0.0139241
0.0138653
0.0138071
0.0137495
0.0136925
0.0136361
0.0135803
0.013525
0.0134702
0.013416
0.0133624
0.0133092
0.0132566
0.0132045
0.0131529
0.0131018
0.0130512
0.0130011
0.0129515
0.0129023
0.0128536
0.0128053
0.0127575
0.0127102
0.0126633
0.0126169
0.0125709
0.0125253
0.0124802
0.0124354
0.0123911
0.0123473
0.0123038
0.0122607
0.012218
0.0121757
0.0121338
0.0120923
0.0120511
0.0120104
0.0119699
0.0119298
0.0118901
0.0118507
0.0118116
0.0117729
0.0117344
0.0116963
0.0116585
0.0116209
0.0115836
0.0115466
0.0115098
0.0114732
0.0114369
0.0114009
0.011365
0.0113293
0.0112938
0.0112585
0.0112233
0.0111883
0.0111534
0.0111187
0.0110841
0.0110495
0.011015
0.0109807
0.0109463
0.010912
0.0108777
0.0108434
0.0108092
0.0107748
0.0107404
0.010706
0.0106714
0.0106367
0.0106019
0.0105669
0.0105316
0.0104962
0.0104605
0.0104245
0.0103881
0.0103514
0.0103142
0.0102766
0.0102385
0.0101999
0.0101606
0.0101207
0.0100801
0.0100388
0.00999667
0.00995368
0.00990977
0.00986487
0.00981899
0.00977212
0.00972322
0.00966126
0.00962291
0.00959584
)
;

boundaryField
{
    boundary
    {
        type            empty;
    }
    inlet
    {
        type            fixedValue;
        value           uniform 0.226269;
    }
    outlet
    {
        type            zeroGradient;
    }
}


// ************************************************************************* //
