/*--------------------------------*- C++ -*----------------------------------*\
  =========                 |
  \\      /  F ield         | OpenFOAM: The Open Source CFD Toolbox
   \\    /   O peration     | Website:  https://openfoam.org
    \\  /    A nd           | Version:  7
     \\/     M anipulation  |
\*---------------------------------------------------------------------------*/
FoamFile
{
    version     2.0;
    format      ascii;
    class       volScalarField;
    location    "0.0008";
    object      OH;
}
// * * * * * * * * * * * * * * * * * * * * * * * * * * * * * * * * * * * * * //

dimensions      [0 0 0 0 0 0 0];

internalField   nonuniform List<scalar> 
500
(
9.38498e-48
1.82909e-47
2.4379e-47
2.84977e-47
3.12746e-47
3.31435e-47
3.43986e-47
3.52381e-47
3.5796e-47
3.61625e-47
3.63991e-47
3.65478e-47
3.66375e-47
3.66888e-47
3.67161e-47
3.67298e-47
3.67375e-47
3.67449e-47
3.67559e-47
3.67733e-47
3.67992e-47
3.68347e-47
3.68807e-47
3.69376e-47
3.70055e-47
3.70846e-47
3.7175e-47
3.7277e-47
3.73912e-47
3.75182e-47
3.76592e-47
3.78154e-47
3.79885e-47
3.81807e-47
3.83941e-47
3.86314e-47
3.88954e-47
3.91891e-47
3.95154e-47
3.98776e-47
4.02787e-47
4.07215e-47
4.12088e-47
4.17429e-47
4.23256e-47
4.29584e-47
4.36419e-47
4.43763e-47
4.51607e-47
4.59935e-47
4.68722e-47
4.77933e-47
4.87523e-47
4.97442e-47
5.07627e-47
5.1801e-47
5.28518e-47
5.39071e-47
5.4959e-47
5.59993e-47
5.702e-47
5.80136e-47
5.89729e-47
5.98917e-47
6.07645e-47
6.15869e-47
6.23554e-47
6.30678e-47
6.37227e-47
6.43199e-47
6.48602e-47
6.53451e-47
6.57768e-47
6.61581e-47
6.64924e-47
6.67832e-47
6.70342e-47
6.72493e-47
6.74323e-47
6.75868e-47
6.77163e-47
6.78241e-47
6.79133e-47
6.79865e-47
6.80462e-47
6.80946e-47
6.81336e-47
6.81648e-47
6.81896e-47
6.82092e-47
6.82247e-47
6.82369e-47
6.82464e-47
6.82538e-47
6.82596e-47
6.82641e-47
6.82677e-47
6.82705e-47
6.82728e-47
6.82747e-47
6.82762e-47
6.82776e-47
6.82788e-47
6.82799e-47
6.8281e-47
6.8282e-47
6.82831e-47
6.82841e-47
6.82851e-47
6.82862e-47
6.82873e-47
6.82885e-47
6.82897e-47
6.8291e-47
6.82923e-47
6.82936e-47
6.82951e-47
6.82965e-47
6.82981e-47
6.82997e-47
6.83013e-47
6.8303e-47
6.83044e-47
6.83049e-47
6.83027e-47
6.82987e-47
6.83018e-47
6.83054e-47
6.83095e-47
6.83138e-47
6.83185e-47
6.83232e-47
6.8328e-47
6.83326e-47
6.83371e-47
6.83413e-47
6.83451e-47
6.83486e-47
6.83518e-47
6.83546e-47
6.83571e-47
6.83593e-47
6.83615e-47
6.83636e-47
6.83658e-47
6.83681e-47
6.83706e-47
6.83734e-47
6.83764e-47
6.83798e-47
6.83836e-47
6.83876e-47
6.83919e-47
6.83964e-47
6.84012e-47
6.84061e-47
6.84111e-47
6.84163e-47
6.84214e-47
6.84267e-47
6.84319e-47
6.84371e-47
6.84424e-47
6.84476e-47
6.84529e-47
6.84581e-47
6.84634e-47
6.84687e-47
6.8474e-47
6.84794e-47
6.84848e-47
6.84902e-47
6.84957e-47
6.85013e-47
6.85069e-47
6.85126e-47
6.85183e-47
6.8524e-47
6.85299e-47
6.85357e-47
6.85416e-47
6.85475e-47
6.85534e-47
6.85593e-47
6.85652e-47
6.8571e-47
6.85768e-47
6.85824e-47
6.8588e-47
6.85935e-47
6.85989e-47
6.86042e-47
6.86097e-47
6.86165e-47
6.86283e-47
6.86588e-47
6.87574e-47
6.91006e-47
7.03161e-47
7.46229e-47
8.98189e-47
1.43153e-46
3.29307e-46
9.75405e-46
3.20541e-45
1.08598e-44
3.69903e-44
1.25713e-43
4.25364e-43
1.43211e-42
4.79714e-42
1.59881e-41
5.30224e-41
1.74991e-40
5.74801e-40
1.87942e-39
6.11779e-39
1.98287e-38
6.40015e-38
2.05757e-37
6.5896e-37
2.10273e-36
6.68658e-36
2.11935e-35
6.69672e-35
2.10991e-34
6.62966e-34
2.07792e-33
6.49768e-33
2.02751e-32
6.31429e-32
1.96302e-31
6.09317e-31
1.8887e-30
5.84744e-30
1.80859e-29
5.58957e-29
1.72659e-28
5.33207e-28
1.64687e-27
5.08962e-27
1.57489e-26
4.88356e-26
1.51943e-25
4.75146e-25
1.49696e-24
4.76681e-24
1.5406e-23
5.07957e-23
1.71849e-22
5.99997e-22
2.18334e-21
8.23387e-21
3.22038e-20
1.30403e-19
5.44124e-19
2.32613e-18
1.01311e-17
4.47362e-17
1.9951e-16
8.95996e-16
4.04362e-15
1.83111e-14
8.31173e-14
3.77924e-13
1.72047e-12
7.83926e-12
3.5743e-11
1.6305e-10
7.54082e-10
3.51738e-09
1.65275e-08
7.86058e-08
3.89466e-07
2.15833e-06
1.41437e-05
9.32729e-05
0.000383631
0.000714515
0.000878519
0.00111396
0.00169219
0.00270893
0.00402542
0.00540209
0.00681742
0.0078831
0.00873001
0.00939266
0.00990878
0.0103124
0.0106306
0.0108837
0.0110868
0.0112508
0.0113838
0.011492
0.0115798
0.0116509
0.0117079
0.0117531
0.0117882
0.0118147
0.0118338
0.0118465
0.0118535
0.0118557
0.0118537
0.0118479
0.0118388
0.0118268
0.0118123
0.0117961
0.0117785
0.0117594
0.0117388
0.0117169
0.0116938
0.0116697
0.0116446
0.0116187
0.0115919
0.0115646
0.0115366
0.011508
0.011479
0.0114496
0.0114197
0.0113896
0.0113592
0.0113285
0.0112976
0.0112666
0.0112354
0.011204
0.0111726
0.0111411
0.0111095
0.0110779
0.0110463
0.0110146
0.010983
0.0109513
0.0109197
0.0108881
0.0108565
0.0108249
0.0107934
0.010762
0.0107306
0.0106992
0.010668
0.0106368
0.0106056
0.0105746
0.0105436
0.0105127
0.0104819
0.0104511
0.0104205
0.01039
0.0103595
0.0103292
0.010299
0.0102689
0.0102389
0.010209
0.0101793
0.0101496
0.0101202
0.0100908
0.0100616
0.0100325
0.0100036
0.00997477
0.0099461
0.00991757
0.00988916
0.00986091
0.00983282
0.00980488
0.00977709
0.00974945
0.00972197
0.00969464
0.00966747
0.00964044
0.00961357
0.00958685
0.00956028
0.00953386
0.00950759
0.00948147
0.0094555
0.00942967
0.00940399
0.00937845
0.00935306
0.00932781
0.0093027
0.00927773
0.0092529
0.00922821
0.00920366
0.00917924
0.00915496
0.00913082
0.00910681
0.00908294
0.00905921
0.00903561
0.00901214
0.00898881
0.00896561
0.00894254
0.00891961
0.00889681
0.00887414
0.00885161
0.00882921
0.00880694
0.00878481
0.00876281
0.00874094
0.0087192
0.0086976
0.00867612
0.00865478
0.00863357
0.0086125
0.00859155
0.00857073
0.00855004
0.00852948
0.00850905
0.00848875
0.00846857
0.00844852
0.00842859
0.00840879
0.00838911
0.00836955
0.0083501
0.00833078
0.00831157
0.00829248
0.0082735
0.00825463
0.00823587
0.00821722
0.00819867
0.00818023
0.00816189
0.00814365
0.00812552
0.00810747
0.00808953
0.00807168
0.00805392
0.00803624
0.00801866
0.00800116
0.00798375
0.00796641
0.00794916
0.00793198
0.00791487
0.00789783
0.00788086
0.00786396
0.00784711
0.00783032
0.00781358
0.00779688
0.00778023
0.00776361
0.00774702
0.00773045
0.00771389
0.00769734
0.00768079
0.00766423
0.00764764
0.00763102
0.00761436
0.00759765
0.00758087
0.00756401
0.00754707
0.00753003
0.0075129
0.00749568
0.00747836
0.00746099
0.00744364
0.0074265
0.00740973
0.0073903
0.00737799
0.00736996
)
;

boundaryField
{
    boundary
    {
        type            empty;
    }
    inlet
    {
        type            fixedValue;
        value           uniform 0;
    }
    outlet
    {
        type            zeroGradient;
    }
}


// ************************************************************************* //
