/*--------------------------------*- C++ -*----------------------------------*\
  =========                 |
  \\      /  F ield         | OpenFOAM: The Open Source CFD Toolbox
   \\    /   O peration     | Website:  https://openfoam.org
    \\  /    A nd           | Version:  7
     \\/     M anipulation  |
\*---------------------------------------------------------------------------*/
FoamFile
{
    version     2.0;
    format      ascii;
    class       volScalarField;
    location    "0.0008";
    object      Qdot;
}
// * * * * * * * * * * * * * * * * * * * * * * * * * * * * * * * * * * * * * //

dimensions      [1 -1 -3 0 0 0 0];

internalField   nonuniform List<scalar> 
500
(
-2.4521e-27
-1.86281e-27
-1.73601e-27
-1.70876e-27
-1.70274e-27
-1.70105e-27
-1.70002e-27
-1.69885e-27
-1.69741e-27
-1.69568e-27
-1.69369e-27
-1.69152e-27
-1.68923e-27
-1.6869e-27
-1.68461e-27
-1.68245e-27
-1.6805e-27
-1.67881e-27
-1.67745e-27
-1.67646e-27
-1.67586e-27
-1.67567e-27
-1.67591e-27
-1.67656e-27
-1.67763e-27
-1.67912e-27
-1.68102e-27
-1.68334e-27
-1.68609e-27
-1.68931e-27
-1.69301e-27
-1.69726e-27
-1.7021e-27
-1.70761e-27
-1.71387e-27
-1.72096e-27
-1.72898e-27
-1.73803e-27
-1.74821e-27
-1.75962e-27
-1.77237e-27
-1.78656e-27
-1.80225e-27
-1.81954e-27
-1.83846e-27
-1.85907e-27
-1.88137e-27
-1.90536e-27
-1.931e-27
-1.95822e-27
-1.98693e-27
-2.017e-27
-2.04828e-27
-2.08058e-27
-2.11369e-27
-2.14738e-27
-2.18141e-27
-2.21551e-27
-2.24943e-27
-2.28289e-27
-2.31564e-27
-2.34744e-27
-2.37807e-27
-2.40733e-27
-2.43505e-27
-2.46112e-27
-2.48541e-27
-2.50788e-27
-2.52849e-27
-2.54724e-27
-2.56416e-27
-2.57932e-27
-2.59279e-27
-2.60467e-27
-2.61506e-27
-2.62408e-27
-2.63185e-27
-2.63851e-27
-2.64416e-27
-2.64892e-27
-2.65291e-27
-2.65623e-27
-2.65897e-27
-2.66121e-27
-2.66304e-27
-2.66453e-27
-2.66572e-27
-2.66667e-27
-2.66743e-27
-2.66803e-27
-2.6685e-27
-2.66887e-27
-2.66916e-27
-2.66939e-27
-2.66956e-27
-2.6697e-27
-2.66981e-27
-2.6699e-27
-2.66997e-27
-2.67002e-27
-2.67007e-27
-2.67011e-27
-2.67015e-27
-2.67019e-27
-2.67022e-27
-2.67025e-27
-2.67028e-27
-2.67032e-27
-2.67035e-27
-2.67038e-27
-2.67042e-27
-2.67045e-27
-2.67049e-27
-2.67053e-27
-2.67057e-27
-2.67061e-27
-2.67066e-27
-2.67071e-27
-2.67075e-27
-2.67081e-27
-2.67086e-27
-2.67091e-27
-2.67097e-27
-2.67102e-27
-2.67105e-27
-2.67107e-27
-2.67117e-27
-2.67129e-27
-2.67142e-27
-2.67156e-27
-2.67172e-27
-2.67187e-27
-2.67202e-27
-2.67217e-27
-2.67231e-27
-2.67245e-27
-2.67257e-27
-2.67267e-27
-2.67277e-27
-2.67285e-27
-2.67292e-27
-2.67299e-27
-2.67304e-27
-2.6731e-27
-2.67315e-27
-2.67321e-27
-2.67328e-27
-2.67335e-27
-2.67343e-27
-2.67352e-27
-2.67362e-27
-2.67373e-27
-2.67385e-27
-2.67398e-27
-2.67411e-27
-2.67425e-27
-2.67439e-27
-2.67454e-27
-2.67469e-27
-2.67485e-27
-2.675e-27
-2.67516e-27
-2.67532e-27
-2.67548e-27
-2.67564e-27
-2.6758e-27
-2.67596e-27
-2.67613e-27
-2.6763e-27
-2.67646e-27
-2.67663e-27
-2.6768e-27
-2.67698e-27
-2.67715e-27
-2.67733e-27
-2.67751e-27
-2.67768e-27
-2.67786e-27
-2.67805e-27
-2.67823e-27
-2.67841e-27
-2.6786e-27
-2.67878e-27
-2.67896e-27
-2.67914e-27
-2.67932e-27
-2.6795e-27
-2.67968e-27
-2.67985e-27
-2.68002e-27
-2.68018e-27
-2.68034e-27
-2.68049e-27
-2.68064e-27
-2.68078e-27
-2.68091e-27
-2.68104e-27
-2.68116e-27
-2.68127e-27
-2.68137e-27
-2.68146e-27
-2.68153e-27
-2.6816e-27
-2.68166e-27
-2.6817e-27
-2.68172e-27
-2.68171e-27
-2.6816e-27
-2.68124e-27
-2.68003e-27
-2.67602e-27
-2.6628e-27
-2.61917e-27
-2.47568e-27
-2.00563e-27
-4.72358e-28
4.50761e-27
2.06143e-26
7.24962e-26
2.38963e-25
7.7109e-25
2.46603e-24
7.84661e-24
2.48728e-23
7.85887e-23
2.47582e-22
7.77857e-22
2.43775e-21
7.62206e-21
2.37809e-20
7.40527e-20
2.3019e-19
7.14399e-19
2.21403e-18
6.85311e-18
2.11899e-17
6.54616e-17
2.02088e-16
6.23568e-16
1.92362e-15
5.93444e-15
1.8316e-14
5.65845e-14
1.75103e-13
5.43326e-13
1.69284e-12
5.30684e-12
1.6785e-11
5.37628e-11
1.75212e-10
5.84225e-10
2.01456e-09
7.17e-09
2.64605e-08
1.01507e-07
4.04168e-07
1.66337e-06
7.03637e-06
3.0417e-05
0.000133681
0.000594813
0.00267153
0.0120889
0.0550668
0.252549
1.16762
5.45603
25.8762
134.95
765.395
5466.13
40939.7
355379
3.303e+06
3.14624e+07
2.78268e+08
1.82854e+09
6.51182e+09
1.17572e+10
1.36735e+10
1.38906e+10
1.39169e+10
1.35973e+10
1.24908e+10
1.06754e+10
8.67407e+09
7.04653e+09
5.83245e+09
4.90416e+09
4.1961e+09
3.64794e+09
3.21525e+09
2.86684e+09
2.58099e+09
2.34254e+09
2.14072e+09
1.96777e+09
1.81797e+09
1.68702e+09
1.57163e+09
1.46925e+09
1.37784e+09
1.29578e+09
1.22176e+09
1.15469e+09
1.09368e+09
1.03797e+09
9.86941e+08
9.4005e+08
8.9685e+08
8.56966e+08
8.2013e+08
7.86936e+08
7.56501e+08
7.27856e+08
7.00934e+08
6.75582e+08
6.51658e+08
6.29055e+08
6.07673e+08
5.87421e+08
5.68215e+08
5.4998e+08
5.32652e+08
5.16167e+08
5.00468e+08
4.85505e+08
4.71229e+08
4.57598e+08
4.44573e+08
4.32115e+08
4.2019e+08
4.08769e+08
3.9782e+08
3.87318e+08
3.77238e+08
3.67556e+08
3.5825e+08
3.49301e+08
3.4069e+08
3.32398e+08
3.2441e+08
3.16711e+08
3.09285e+08
3.0212e+08
2.95202e+08
2.88521e+08
2.82065e+08
2.75822e+08
2.69785e+08
2.63943e+08
2.58287e+08
2.52809e+08
2.47502e+08
2.42359e+08
2.37371e+08
2.32533e+08
2.27839e+08
2.23283e+08
2.18858e+08
2.14561e+08
2.10385e+08
2.06327e+08
2.02381e+08
1.98544e+08
1.94811e+08
1.91179e+08
1.87644e+08
1.84202e+08
1.80851e+08
1.77587e+08
1.74407e+08
1.7131e+08
1.68294e+08
1.65361e+08
1.62513e+08
1.59724e+08
1.56979e+08
1.54302e+08
1.5169e+08
1.49141e+08
1.46652e+08
1.44222e+08
1.41847e+08
1.39527e+08
1.3726e+08
1.35043e+08
1.32876e+08
1.30757e+08
1.28685e+08
1.26657e+08
1.24673e+08
1.22732e+08
1.20831e+08
1.18971e+08
1.17149e+08
1.15365e+08
1.13618e+08
1.11906e+08
1.10229e+08
1.08586e+08
1.06975e+08
1.05396e+08
1.03848e+08
1.02331e+08
1.00842e+08
9.93828e+07
9.7951e+07
9.65464e+07
9.51682e+07
9.38158e+07
9.24886e+07
9.11857e+07
8.99069e+07
8.86515e+07
8.74188e+07
8.62083e+07
8.50195e+07
8.38519e+07
8.27049e+07
8.15781e+07
8.04711e+07
7.93833e+07
7.83144e+07
7.72638e+07
7.62312e+07
7.52162e+07
7.42184e+07
7.32373e+07
7.2273e+07
7.13244e+07
7.03916e+07
6.94742e+07
6.85718e+07
6.76842e+07
6.68109e+07
6.59518e+07
6.51065e+07
6.42747e+07
6.34561e+07
6.26505e+07
6.18576e+07
6.10771e+07
6.03088e+07
5.95524e+07
5.88077e+07
5.80746e+07
5.73527e+07
5.6641e+07
5.59411e+07
5.52516e+07
5.45724e+07
5.39034e+07
5.32443e+07
5.25951e+07
5.19555e+07
5.13253e+07
5.07045e+07
5.00922e+07
4.94894e+07
4.88954e+07
4.83099e+07
4.77329e+07
4.71643e+07
4.66038e+07
4.60514e+07
4.55069e+07
4.49702e+07
4.44411e+07
4.39196e+07
4.34055e+07
4.28987e+07
4.23991e+07
4.19066e+07
4.1421e+07
4.09423e+07
4.04703e+07
4.0005e+07
3.95461e+07
3.90938e+07
3.86477e+07
3.82079e+07
3.77741e+07
3.73464e+07
3.69246e+07
3.65086e+07
3.60981e+07
3.56935e+07
3.5294e+07
3.48997e+07
3.45105e+07
3.41257e+07
3.3745e+07
3.33686e+07
3.30157e+07
3.26306e+07
3.22514e+07
3.16243e+07
3.13385e+07
3.10835e+07
)
;

boundaryField
{
    boundary
    {
        type            empty;
    }
    inlet
    {
        type            calculated;
        value           uniform 0;
    }
    outlet
    {
        type            calculated;
        value           uniform 0;
    }
}


// ************************************************************************* //
