/*--------------------------------*- C++ -*----------------------------------*\
  =========                 |
  \\      /  F ield         | OpenFOAM: The Open Source CFD Toolbox
   \\    /   O peration     | Website:  https://openfoam.org
    \\  /    A nd           | Version:  7
     \\/     M anipulation  |
\*---------------------------------------------------------------------------*/
FoamFile
{
    version     2.0;
    format      ascii;
    class       volScalarField;
    location    "0.0008";
    object      rho;
}
// * * * * * * * * * * * * * * * * * * * * * * * * * * * * * * * * * * * * * //

dimensions      [1 -3 0 0 0 0 0];

internalField   nonuniform List<scalar> 
500
(
0.864682
0.864679
0.864677
0.864676
0.864677
0.864679
0.864683
0.864689
0.864697
0.864707
0.864718
0.86473
0.864743
0.864756
0.864769
0.864781
0.864792
0.864802
0.86481
0.864815
0.864819
0.86482
0.864819
0.864815
0.864809
0.864801
0.86479
0.864777
0.864762
0.864744
0.864723
0.864699
0.864672
0.864641
0.864606
0.864566
0.864522
0.864472
0.864416
0.864354
0.864285
0.864209
0.864126
0.864034
0.863936
0.863829
0.863715
0.863594
0.863466
0.863332
0.863193
0.86305
0.862902
0.862753
0.862601
0.86245
0.862299
0.86215
0.862005
0.861863
0.861726
0.861595
0.86147
0.861353
0.861242
0.86114
0.861045
0.860958
0.860879
0.860807
0.860743
0.860686
0.860635
0.860591
0.860552
0.860519
0.86049
0.860465
0.860444
0.860427
0.860412
0.8604
0.86039
0.860381
0.860374
0.860369
0.860365
0.860361
0.860358
0.860356
0.860354
0.860353
0.860352
0.860351
0.86035
0.86035
0.860349
0.860349
0.860349
0.860349
0.860348
0.860348
0.860348
0.860348
0.860348
0.860348
0.860348
0.860347
0.860347
0.860347
0.860347
0.860347
0.860347
0.860347
0.860346
0.860346
0.860346
0.860346
0.860346
0.860346
0.860345
0.860345
0.860345
0.860345
0.860345
0.860345
0.860344
0.860344
0.860343
0.860343
0.860342
0.860342
0.860341
0.860341
0.86034
0.86034
0.860339
0.860339
0.860338
0.860338
0.860338
0.860338
0.860337
0.860337
0.860337
0.860337
0.860337
0.860336
0.860336
0.860336
0.860335
0.860335
0.860334
0.860334
0.860334
0.860333
0.860332
0.860332
0.860331
0.860331
0.86033
0.86033
0.860329
0.860329
0.860328
0.860327
0.860327
0.860326
0.860326
0.860325
0.860324
0.860324
0.860323
0.860322
0.860322
0.860321
0.860321
0.86032
0.860319
0.860319
0.860318
0.860317
0.860317
0.860316
0.860315
0.860315
0.860314
0.860313
0.860313
0.860312
0.860311
0.860311
0.86031
0.86031
0.860309
0.860309
0.860308
0.860308
0.860307
0.860307
0.860307
0.860306
0.860306
0.860306
0.860306
0.860306
0.860306
0.860306
0.860306
0.860306
0.860306
0.860306
0.860306
0.860307
0.860307
0.860308
0.860308
0.860309
0.860309
0.86031
0.860311
0.860312
0.860313
0.860314
0.860316
0.860317
0.860318
0.86032
0.860322
0.860323
0.860325
0.860327
0.86033
0.860332
0.860334
0.860337
0.86034
0.860342
0.860345
0.860348
0.860352
0.860355
0.860359
0.860362
0.860366
0.86037
0.860374
0.860379
0.860383
0.860388
0.860393
0.860399
0.860404
0.860409
0.860414
0.860419
0.860425
0.86043
0.860436
0.860442
0.860448
0.860455
0.860462
0.860469
0.860476
0.860484
0.860491
0.860493
0.860473
0.860382
0.860063
0.859051
0.855968
0.846894
0.821519
0.759072
0.644428
0.509024
0.401238
0.330087
0.283139
0.250415
0.227084
0.210782
0.198712
0.189378
0.182662
0.177694
0.173695
0.17041
0.16765
0.165288
0.163237
0.161434
0.159831
0.158395
0.157098
0.155919
0.154842
0.153853
0.15294
0.152094
0.151308
0.150575
0.149889
0.149246
0.148641
0.148071
0.147533
0.147024
0.146542
0.146086
0.145666
0.145272
0.144893
0.144529
0.144178
0.143841
0.143516
0.143202
0.1429
0.142607
0.142324
0.14205
0.141785
0.141528
0.141279
0.141038
0.140803
0.140575
0.140353
0.140138
0.139928
0.139724
0.139525
0.139331
0.139142
0.138958
0.138779
0.138603
0.138432
0.138265
0.138101
0.137941
0.137785
0.137633
0.137483
0.137337
0.137194
0.137054
0.136916
0.136782
0.13665
0.136521
0.136394
0.13627
0.136148
0.136029
0.135911
0.135796
0.135683
0.135572
0.135463
0.135356
0.135251
0.135147
0.135045
0.134945
0.134847
0.13475
0.134655
0.134562
0.134469
0.134379
0.13429
0.134203
0.134117
0.134032
0.133947
0.133865
0.133783
0.133702
0.133623
0.133545
0.133468
0.133392
0.133317
0.133243
0.13317
0.133098
0.133027
0.132956
0.132887
0.132819
0.132752
0.132685
0.132619
0.132554
0.13249
0.132427
0.132365
0.132303
0.132242
0.132182
0.132122
0.132064
0.132005
0.131948
0.131891
0.131835
0.13178
0.131725
0.131671
0.131617
0.131564
0.131512
0.13146
0.131409
0.131358
0.131308
0.131258
0.131209
0.131161
0.131112
0.131065
0.131018
0.130971
0.130925
0.130879
0.130834
0.130789
0.130745
0.130701
0.130657
0.130614
0.130571
0.130529
0.130487
0.130446
0.130405
0.130364
0.130323
0.130283
0.130244
0.130204
0.130165
0.130127
0.130088
0.13005
0.130013
0.129975
0.129938
0.129902
0.129865
0.129829
0.129793
0.129758
0.129722
0.129687
0.129653
0.129618
0.129584
0.12955
0.129516
0.129483
0.12945
0.129417
0.129384
0.129352
0.129319
0.129287
0.129256
0.129224
0.129193
0.129161
0.12913
0.1291
0.129069
0.129039
0.129009
0.128979
0.128949
0.12892
0.128891
0.128862
0.128833
0.128805
0.128777
0.128749
0.128722
0.128695
0.128668
0.128641
0.128614
0.128588
0.12856
0.128534
0.128502
0.128481
0.128468
)
;

boundaryField
{
    boundary
    {
        type            empty;
    }
    inlet
    {
        type            calculated;
        value           uniform 0.864684;
    }
    outlet
    {
        type            calculated;
        value           uniform 0.128468;
    }
}


// ************************************************************************* //
