/*--------------------------------*- C++ -*----------------------------------*\
  =========                 |
  \\      /  F ield         | OpenFOAM: The Open Source CFD Toolbox
   \\    /   O peration     | Website:  https://openfoam.org
    \\  /    A nd           | Version:  7
     \\/     M anipulation  |
\*---------------------------------------------------------------------------*/
FoamFile
{
    version     2.0;
    format      ascii;
    class       surfaceScalarField;
    location    "0.00058";
    object      phi;
}
// * * * * * * * * * * * * * * * * * * * * * * * * * * * * * * * * * * * * * //

dimensions      [1 0 -1 0 0 0 0];

internalField   nonuniform List<scalar> 
499
(
6.93479e-06
6.93554e-06
6.93624e-06
6.93689e-06
6.9375e-06
6.93808e-06
6.93862e-06
6.93914e-06
6.93964e-06
6.94013e-06
6.94061e-06
6.94109e-06
6.94155e-06
6.94201e-06
6.94247e-06
6.94291e-06
6.94334e-06
6.94376e-06
6.94415e-06
6.94452e-06
6.94486e-06
6.94516e-06
6.94543e-06
6.94564e-06
6.94579e-06
6.94588e-06
6.9459e-06
6.94584e-06
6.94571e-06
6.94548e-06
6.94518e-06
6.94478e-06
6.9443e-06
6.94373e-06
6.94309e-06
6.94238e-06
6.94162e-06
6.94081e-06
6.93997e-06
6.93911e-06
6.93825e-06
6.93741e-06
6.93659e-06
6.93582e-06
6.9351e-06
6.93444e-06
6.93386e-06
6.93335e-06
6.93294e-06
6.93261e-06
6.93236e-06
6.93221e-06
6.93214e-06
6.93215e-06
6.93223e-06
6.93238e-06
6.9326e-06
6.93287e-06
6.93319e-06
6.93356e-06
6.93396e-06
6.9344e-06
6.93486e-06
6.93534e-06
6.93585e-06
6.93636e-06
6.93689e-06
6.93743e-06
6.93798e-06
6.93853e-06
6.93909e-06
6.93965e-06
6.94022e-06
6.94078e-06
6.94135e-06
6.94192e-06
6.94249e-06
6.94306e-06
6.94362e-06
6.94419e-06
6.94476e-06
6.94533e-06
6.9459e-06
6.94647e-06
6.94704e-06
6.94761e-06
6.94818e-06
6.94875e-06
6.94932e-06
6.94989e-06
6.95046e-06
6.95103e-06
6.9516e-06
6.95217e-06
6.95273e-06
6.9533e-06
6.95387e-06
6.95444e-06
6.95501e-06
6.95557e-06
6.95614e-06
6.95671e-06
6.95727e-06
6.95784e-06
6.95841e-06
6.95897e-06
6.95954e-06
6.96011e-06
6.96067e-06
6.96124e-06
6.9618e-06
6.96237e-06
6.96293e-06
6.9635e-06
6.96406e-06
6.96462e-06
6.96519e-06
6.96575e-06
6.96632e-06
6.96688e-06
6.96744e-06
6.968e-06
6.96857e-06
6.96913e-06
6.9697e-06
6.97026e-06
6.97083e-06
6.9714e-06
6.97196e-06
6.97253e-06
6.97309e-06
6.97366e-06
6.97422e-06
6.97478e-06
6.97534e-06
6.9759e-06
6.97645e-06
6.97701e-06
6.97757e-06
6.97813e-06
6.97868e-06
6.97924e-06
6.9798e-06
6.98035e-06
6.98091e-06
6.98147e-06
6.98202e-06
6.98258e-06
6.98314e-06
6.98369e-06
6.98425e-06
6.9848e-06
6.98536e-06
6.98591e-06
6.98647e-06
6.98702e-06
6.98757e-06
6.98813e-06
6.98868e-06
6.98923e-06
6.98979e-06
6.99034e-06
6.99089e-06
6.99144e-06
6.992e-06
6.99255e-06
6.9931e-06
6.99365e-06
6.9942e-06
6.99475e-06
6.9953e-06
6.99585e-06
6.9964e-06
6.99695e-06
6.9975e-06
6.99805e-06
6.9986e-06
6.99915e-06
6.9997e-06
7.00025e-06
7.00079e-06
7.00134e-06
7.00189e-06
7.00244e-06
7.00299e-06
7.00354e-06
7.00409e-06
7.00464e-06
7.00519e-06
7.00574e-06
7.00629e-06
7.00684e-06
7.00739e-06
7.00794e-06
7.00849e-06
7.00904e-06
7.00959e-06
7.01014e-06
7.01069e-06
7.01124e-06
7.01179e-06
7.01235e-06
7.0129e-06
7.01345e-06
7.01401e-06
7.01456e-06
7.01511e-06
7.01567e-06
7.01622e-06
7.01678e-06
7.01734e-06
7.01789e-06
7.01845e-06
7.01901e-06
7.01957e-06
7.02013e-06
7.02069e-06
7.02125e-06
7.02181e-06
7.02237e-06
7.02293e-06
7.0235e-06
7.02406e-06
7.02463e-06
7.02519e-06
7.02576e-06
7.02633e-06
7.0269e-06
7.02747e-06
7.02804e-06
7.02861e-06
7.02918e-06
7.02976e-06
7.03033e-06
7.03091e-06
7.03149e-06
7.03206e-06
7.03264e-06
7.03322e-06
7.0338e-06
7.03439e-06
7.03497e-06
7.03555e-06
7.03614e-06
7.03672e-06
7.03731e-06
7.0379e-06
7.03849e-06
7.03907e-06
7.03967e-06
7.04026e-06
7.04086e-06
7.04145e-06
7.04205e-06
7.04265e-06
7.04325e-06
7.04385e-06
7.04445e-06
7.04504e-06
7.04564e-06
7.04623e-06
7.04683e-06
7.04743e-06
7.04802e-06
7.04862e-06
7.04922e-06
7.04982e-06
7.05042e-06
7.05102e-06
7.05165e-06
7.05233e-06
7.05317e-06
7.0545e-06
7.05718e-06
7.0635e-06
7.07856e-06
7.10845e-06
7.14824e-06
7.18231e-06
7.20502e-06
7.21973e-06
7.22982e-06
7.23702e-06
7.24216e-06
7.24586e-06
7.24853e-06
7.25052e-06
7.25205e-06
7.25328e-06
7.25429e-06
7.25515e-06
7.25589e-06
7.25653e-06
7.25711e-06
7.25762e-06
7.25809e-06
7.25851e-06
7.2589e-06
7.25926e-06
7.2596e-06
7.25991e-06
7.26021e-06
7.26048e-06
7.26074e-06
7.26099e-06
7.26123e-06
7.26145e-06
7.26167e-06
7.26188e-06
7.26207e-06
7.26227e-06
7.26245e-06
7.26262e-06
7.26279e-06
7.26295e-06
7.26311e-06
7.26327e-06
7.26342e-06
7.26357e-06
7.26372e-06
7.26387e-06
7.26401e-06
7.26416e-06
7.2643e-06
7.26444e-06
7.26458e-06
7.26472e-06
7.26486e-06
7.265e-06
7.26513e-06
7.26527e-06
7.26541e-06
7.26554e-06
7.26568e-06
7.26581e-06
7.26594e-06
7.26608e-06
7.26621e-06
7.26634e-06
7.26647e-06
7.2666e-06
7.26673e-06
7.26685e-06
7.26698e-06
7.2671e-06
7.26723e-06
7.26735e-06
7.26747e-06
7.26759e-06
7.2677e-06
7.26782e-06
7.26793e-06
7.26805e-06
7.26816e-06
7.26827e-06
7.26837e-06
7.26848e-06
7.26858e-06
7.26868e-06
7.26879e-06
7.26889e-06
7.26899e-06
7.26908e-06
7.26918e-06
7.26928e-06
7.26937e-06
7.26947e-06
7.26957e-06
7.26966e-06
7.26976e-06
7.26985e-06
7.26995e-06
7.27004e-06
7.27014e-06
7.27024e-06
7.27034e-06
7.27044e-06
7.27054e-06
7.27065e-06
7.27075e-06
7.27085e-06
7.27096e-06
7.27106e-06
7.27117e-06
7.27127e-06
7.27138e-06
7.27148e-06
7.27159e-06
7.27169e-06
7.27179e-06
7.27189e-06
7.27199e-06
7.27209e-06
7.27219e-06
7.27229e-06
7.27239e-06
7.27248e-06
7.27257e-06
7.27266e-06
7.27275e-06
7.27284e-06
7.27293e-06
7.27301e-06
7.27309e-06
7.27317e-06
7.27324e-06
7.27332e-06
7.27339e-06
7.27346e-06
7.27352e-06
7.27359e-06
7.27365e-06
7.27371e-06
7.27376e-06
7.27382e-06
7.27387e-06
7.27392e-06
7.27397e-06
7.27402e-06
7.27407e-06
7.27412e-06
7.27417e-06
7.27422e-06
7.27427e-06
7.27433e-06
7.27439e-06
7.27446e-06
7.27453e-06
7.27461e-06
7.2747e-06
7.2748e-06
7.2749e-06
7.27501e-06
7.27533e-06
7.27422e-06
7.27449e-06
7.27465e-06
7.27479e-06
7.27495e-06
7.27512e-06
7.27532e-06
7.27553e-06
7.27576e-06
7.27602e-06
7.27629e-06
7.27659e-06
7.2769e-06
7.27724e-06
7.27759e-06
7.27796e-06
7.27835e-06
7.27876e-06
7.27918e-06
7.27961e-06
7.28005e-06
7.28049e-06
7.28093e-06
7.28136e-06
7.28178e-06
7.28218e-06
7.28256e-06
7.28291e-06
7.28321e-06
7.28346e-06
7.28365e-06
7.28376e-06
7.2838e-06
7.28374e-06
7.28357e-06
7.28328e-06
7.28285e-06
7.28229e-06
7.28156e-06
7.28067e-06
7.27959e-06
7.27831e-06
7.27683e-06
7.27514e-06
7.27321e-06
7.27106e-06
7.26866e-06
7.26602e-06
7.26313e-06
7.25998e-06
7.25659e-06
7.25294e-06
7.24905e-06
7.24491e-06
7.24055e-06
7.23596e-06
7.23116e-06
7.22616e-06
7.22099e-06
7.21564e-06
7.21015e-06
7.20453e-06
7.1988e-06
7.19298e-06
7.18708e-06
)
;

boundaryField
{
    boundary
    {
        type            empty;
        value           nonuniform 0();
    }
    inlet
    {
        type            calculated;
        value           uniform -6.93401e-06;
    }
    outlet
    {
        type            calculated;
        value           uniform 7.18113e-06;
    }
}


// ************************************************************************* //
