/*--------------------------------*- C++ -*----------------------------------*\
  =========                 |
  \\      /  F ield         | OpenFOAM: The Open Source CFD Toolbox
   \\    /   O peration     | Website:  https://openfoam.org
    \\  /    A nd           | Version:  7
     \\/     M anipulation  |
\*---------------------------------------------------------------------------*/
FoamFile
{
    version     2.0;
    format      ascii;
    class       volScalarField;
    location    "0.00058";
    object      rho;
}
// * * * * * * * * * * * * * * * * * * * * * * * * * * * * * * * * * * * * * //

dimensions      [1 -3 0 0 0 0 0];

internalField   nonuniform List<scalar> 
500
(
0.865174
0.865191
0.865203
0.865209
0.865211
0.865209
0.865203
0.865195
0.865184
0.865173
0.86516
0.865147
0.865132
0.865117
0.8651
0.865083
0.865063
0.865041
0.865016
0.864988
0.864955
0.864918
0.864874
0.864824
0.864766
0.8647
0.864625
0.86454
0.864445
0.864339
0.864222
0.864095
0.863958
0.86381
0.863655
0.863491
0.863322
0.863148
0.862971
0.862794
0.862617
0.862443
0.862273
0.86211
0.861954
0.861807
0.861669
0.861542
0.861425
0.861319
0.861224
0.861139
0.861065
0.861
0.860944
0.860896
0.860856
0.860822
0.860794
0.860771
0.860752
0.860736
0.860724
0.860714
0.860707
0.860701
0.860696
0.860693
0.86069
0.860688
0.860686
0.860685
0.860684
0.860684
0.860683
0.860683
0.860683
0.860682
0.860682
0.860682
0.860682
0.860682
0.860682
0.860682
0.860681
0.860681
0.860681
0.860681
0.860681
0.860681
0.860681
0.860681
0.860681
0.86068
0.86068
0.86068
0.86068
0.86068
0.86068
0.86068
0.860679
0.860679
0.860679
0.860679
0.860679
0.860678
0.860678
0.860678
0.860678
0.860677
0.860677
0.860677
0.860677
0.860676
0.860676
0.860676
0.860675
0.860675
0.860675
0.860675
0.860674
0.860674
0.860673
0.860673
0.860671
0.86067
0.86067
0.86067
0.86067
0.86067
0.86067
0.86067
0.86067
0.860669
0.860669
0.860668
0.860668
0.860667
0.860666
0.860666
0.860665
0.860665
0.860664
0.860663
0.860663
0.860662
0.860662
0.860661
0.86066
0.86066
0.860659
0.860659
0.860658
0.860657
0.860657
0.860656
0.860655
0.860655
0.860654
0.860653
0.860653
0.860652
0.860651
0.860651
0.86065
0.860649
0.860649
0.860648
0.860647
0.860646
0.860646
0.860645
0.860644
0.860644
0.860643
0.860642
0.860642
0.860641
0.860641
0.86064
0.860639
0.860639
0.860639
0.860638
0.860638
0.860637
0.860637
0.860637
0.860637
0.860636
0.860636
0.860636
0.860636
0.860636
0.860636
0.860636
0.860636
0.860637
0.860637
0.860637
0.860638
0.860638
0.860639
0.86064
0.860641
0.860641
0.860642
0.860644
0.860645
0.860646
0.860647
0.860649
0.86065
0.860652
0.860654
0.860656
0.860658
0.86066
0.860663
0.860665
0.860668
0.86067
0.860673
0.860676
0.86068
0.860683
0.860686
0.86069
0.860694
0.860698
0.860702
0.860706
0.86071
0.860715
0.86072
0.860725
0.86073
0.860735
0.86074
0.860746
0.860752
0.860757
0.860763
0.86077
0.860776
0.860782
0.860789
0.860796
0.860803
0.86081
0.860816
0.860823
0.860831
0.860839
0.860848
0.860856
0.860864
0.860872
0.860881
0.860889
0.860897
0.860906
0.860914
0.860923
0.860932
0.860941
0.860951
0.860959
0.860959
0.860932
0.860813
0.860404
0.859113
0.855216
0.843863
0.81279
0.739985
0.617192
0.484679
0.384816
0.31953
0.275969
0.245337
0.223488
0.20824
0.196922
0.188087
0.181701
0.176952
0.173109
0.169936
0.16726
0.164964
0.162964
0.161202
0.159633
0.158225
0.156951
0.155793
0.154732
0.153758
0.152858
0.152023
0.151247
0.150522
0.149844
0.149208
0.148609
0.148045
0.147512
0.147009
0.146533
0.146094
0.145684
0.145289
0.14491
0.144547
0.144197
0.143859
0.143535
0.143221
0.142919
0.142626
0.142344
0.14207
0.141805
0.141548
0.1413
0.141058
0.140824
0.140596
0.140375
0.140159
0.13995
0.139746
0.139548
0.139355
0.139166
0.138982
0.138803
0.138628
0.138457
0.13829
0.138127
0.137968
0.137812
0.13766
0.13751
0.137364
0.137221
0.137081
0.136944
0.13681
0.136678
0.136548
0.136422
0.136297
0.136175
0.136055
0.135938
0.135822
0.135709
0.135597
0.135488
0.13538
0.135274
0.13517
0.135068
0.134967
0.134868
0.134771
0.134675
0.134581
0.134488
0.134397
0.134307
0.134218
0.134131
0.134046
0.133961
0.133878
0.133796
0.133715
0.133635
0.133557
0.133479
0.133403
0.133327
0.133253
0.13318
0.133107
0.133036
0.132965
0.132896
0.132827
0.132759
0.132692
0.132626
0.13256
0.132495
0.132431
0.132368
0.132306
0.132244
0.132183
0.132122
0.132062
0.132003
0.131945
0.131887
0.131829
0.131773
0.131717
0.131661
0.131606
0.131552
0.131498
0.131444
0.131392
0.131339
0.131288
0.131236
0.131186
0.131136
0.131086
0.131038
0.130989
0.130942
0.130895
0.130848
0.130802
0.130757
0.130714
0.130666
0.130622
0.130565
0.130523
0.130482
0.13044
0.1304
0.13036
0.130322
0.130283
0.130246
0.130209
0.130173
0.130138
0.130104
0.13007
0.130036
0.130004
0.129972
0.129941
0.12991
0.129879
0.129849
0.129819
0.129789
0.12976
0.12973
0.1297
0.12967
0.129639
0.129607
0.129575
0.129541
0.129506
0.12947
0.129432
0.129393
0.129351
0.129307
0.12926
0.12921
0.129158
0.129102
0.129044
0.128981
0.128916
0.128846
0.128773
0.128695
0.128614
0.128529
0.12844
0.128348
0.128251
0.128151
0.128047
0.12794
0.12783
0.127717
0.127602
0.127484
0.127365
0.127245
0.127126
0.127013
0.126912
0.126844
)
;

boundaryField
{
    boundary
    {
        type            empty;
    }
    inlet
    {
        type            calculated;
        value           uniform 0.865157;
    }
    outlet
    {
        type            calculated;
        value           uniform 0.126844;
    }
}


// ************************************************************************* //
