/*--------------------------------*- C++ -*----------------------------------*\
  =========                 |
  \\      /  F ield         | OpenFOAM: The Open Source CFD Toolbox
   \\    /   O peration     | Website:  https://openfoam.org
    \\  /    A nd           | Version:  7
     \\/     M anipulation  |
\*---------------------------------------------------------------------------*/
FoamFile
{
    version     2.0;
    format      ascii;
    class       volScalarField;
    location    "0.00058";
    object      T;
}
// * * * * * * * * * * * * * * * * * * * * * * * * * * * * * * * * * * * * * //

dimensions      [0 0 0 1 0 0 0];

internalField   nonuniform List<scalar> 
500
(
299.994
299.988
299.984
299.982
299.981
299.982
299.984
299.987
299.99
299.995
299.999
300.004
300.009
300.014
300.02
300.026
300.033
300.04
300.049
300.059
300.07
300.083
300.098
300.115
300.135
300.158
300.184
300.214
300.247
300.284
300.324
300.369
300.416
300.468
300.522
300.579
300.638
300.698
300.76
300.822
300.883
300.944
301.003
301.06
301.115
301.166
301.214
301.259
301.3
301.337
301.37
301.4
301.426
301.448
301.468
301.485
301.499
301.511
301.52
301.529
301.535
301.541
301.545
301.548
301.551
301.553
301.555
301.556
301.557
301.558
301.558
301.558
301.559
301.559
301.559
301.559
301.559
301.559
301.559
301.56
301.56
301.56
301.56
301.56
301.56
301.56
301.56
301.56
301.56
301.56
301.56
301.56
301.56
301.56
301.56
301.56
301.56
301.56
301.56
301.56
301.56
301.56
301.56
301.56
301.561
301.561
301.561
301.561
301.561
301.561
301.561
301.561
301.561
301.561
301.561
301.561
301.561
301.562
301.562
301.562
301.562
301.562
301.562
301.562
301.563
301.563
301.563
301.563
301.563
301.563
301.563
301.563
301.563
301.563
301.564
301.564
301.564
301.564
301.564
301.565
301.565
301.565
301.565
301.565
301.566
301.566
301.566
301.566
301.566
301.567
301.567
301.567
301.567
301.567
301.568
301.568
301.568
301.568
301.568
301.569
301.569
301.569
301.569
301.57
301.57
301.57
301.57
301.571
301.571
301.571
301.571
301.572
301.572
301.572
301.572
301.572
301.573
301.573
301.573
301.573
301.573
301.573
301.574
301.574
301.574
301.574
301.574
301.574
301.574
301.574
301.574
301.574
301.574
301.574
301.574
301.574
301.574
301.574
301.574
301.574
301.574
301.573
301.573
301.573
301.573
301.572
301.572
301.571
301.571
301.571
301.57
301.57
301.569
301.568
301.568
301.567
301.566
301.565
301.565
301.564
301.563
301.562
301.561
301.56
301.559
301.557
301.556
301.555
301.554
301.552
301.551
301.549
301.548
301.546
301.544
301.543
301.541
301.539
301.537
301.535
301.533
301.531
301.529
301.527
301.524
301.522
301.52
301.517
301.515
301.512
301.51
301.508
301.505
301.502
301.499
301.496
301.493
301.49
301.487
301.485
301.482
301.479
301.476
301.473
301.47
301.467
301.465
301.465
301.471
301.492
301.559
301.755
302.317
303.919
308.47
321.202
354.68
428.798
551.975
703.603
857.613
1004.07
1139.93
1260.11
1359.2
1442.9
1514.21
1571.07
1616.55
1655.5
1689.28
1718.98
1745.41
1769.19
1790.74
1810.42
1828.5
1845.2
1860.69
1875.11
1888.6
1901.24
1913.12
1924.33
1934.92
1944.95
1954.46
1963.51
1972.12
1980.33
1988.16
1995.63
2002.58
2009.11
2015.43
2021.55
2027.46
2033.19
2038.73
2044.11
2049.33
2054.39
2059.31
2064.1
2068.75
2073.28
2077.69
2081.98
2086.17
2090.25
2094.23
2098.11
2101.91
2105.61
2109.24
2112.77
2116.24
2119.62
2122.94
2126.18
2129.36
2132.47
2135.52
2138.51
2141.44
2144.32
2147.14
2149.91
2152.63
2155.3
2157.92
2160.49
2163.02
2165.51
2167.96
2170.36
2172.72
2175.05
2177.34
2179.59
2181.81
2183.99
2186.14
2188.25
2190.33
2192.39
2194.41
2196.4
2198.36
2200.29
2202.2
2204.08
2205.93
2207.75
2209.55
2211.33
2213.08
2214.8
2216.5
2218.18
2219.84
2221.47
2223.09
2224.68
2226.25
2227.8
2229.33
2230.85
2232.34
2233.82
2235.28
2236.72
2238.14
2239.55
2240.94
2242.31
2243.67
2245.01
2246.34
2247.66
2248.95
2250.24
2251.51
2252.76
2254.01
2255.24
2256.45
2257.66
2258.85
2260.02
2261.19
2262.34
2263.48
2264.61
2265.73
2266.83
2267.92
2269
2270.07
2271.12
2272.17
2273.2
2274.21
2275.22
2276.21
2277.18
2278.15
2279.1
2280.03
2280.95
2281.85
2282.74
2283.59
2284.51
2285.37
2286.42
2287.23
2288.03
2288.81
2289.58
2290.32
2291.04
2291.75
2292.43
2293.1
2293.75
2294.37
2294.98
2295.57
2296.14
2296.7
2297.23
2297.75
2298.25
2298.74
2299.22
2299.69
2300.14
2300.59
2301.04
2301.48
2301.93
2302.37
2302.83
2303.3
2303.78
2304.29
2304.81
2305.37
2305.95
2306.58
2307.24
2307.95
2308.71
2309.53
2310.4
2311.34
2312.34
2313.42
2314.56
2315.79
2317.09
2318.47
2319.93
2321.47
2323.09
2324.79
2326.57
2328.43
2330.36
2332.35
2334.42
2336.54
2338.71
2340.91
2343.13
2345.33
2347.44
2349.29
2350.55
)
;

boundaryField
{
    boundary
    {
        type            empty;
    }
    inlet
    {
        type            fixedValue;
        value           uniform 300;
    }
    outlet
    {
        type            zeroGradient;
    }
}


// ************************************************************************* //
