/*--------------------------------*- C++ -*----------------------------------*\
  =========                 |
  \\      /  F ield         | OpenFOAM: The Open Source CFD Toolbox
   \\    /   O peration     | Website:  https://openfoam.org
    \\  /    A nd           | Version:  7
     \\/     M anipulation  |
\*---------------------------------------------------------------------------*/
FoamFile
{
    version     2.0;
    format      ascii;
    class       volVectorField;
    location    "0.00058";
    object      U;
}
// * * * * * * * * * * * * * * * * * * * * * * * * * * * * * * * * * * * * * //

dimensions      [0 1 -1 0 0 0 0];

internalField   nonuniform List<vector> 
500
(
(2.34898 0 0)
(2.3492 0 0)
(2.34945 0 0)
(2.34967 0 0)
(2.34987 0 0)
(2.35008 0 0)
(2.35028 0 0)
(2.35048 0 0)
(2.35068 0 0)
(2.35088 0 0)
(2.35108 0 0)
(2.35128 0 0)
(2.35148 0 0)
(2.35168 0 0)
(2.35188 0 0)
(2.35208 0 0)
(2.35228 0 0)
(2.35248 0 0)
(2.35269 0 0)
(2.35289 0 0)
(2.3531 0 0)
(2.35331 0 0)
(2.35353 0 0)
(2.35375 0 0)
(2.35397 0 0)
(2.35419 0 0)
(2.35441 0 0)
(2.35464 0 0)
(2.35486 0 0)
(2.35509 0 0)
(2.35532 0 0)
(2.35555 0 0)
(2.35577 0 0)
(2.356 0 0)
(2.35622 0 0)
(2.35643 0 0)
(2.35664 0 0)
(2.35685 0 0)
(2.35705 0 0)
(2.35725 0 0)
(2.35744 0 0)
(2.35762 0 0)
(2.3578 0 0)
(2.35798 0 0)
(2.35815 0 0)
(2.35832 0 0)
(2.35848 0 0)
(2.35865 0 0)
(2.35881 0 0)
(2.35897 0 0)
(2.35913 0 0)
(2.3593 0 0)
(2.35946 0 0)
(2.35963 0 0)
(2.3598 0 0)
(2.35997 0 0)
(2.36015 0 0)
(2.36032 0 0)
(2.3605 0 0)
(2.36068 0 0)
(2.36087 0 0)
(2.36105 0 0)
(2.36124 0 0)
(2.36143 0 0)
(2.36162 0 0)
(2.36181 0 0)
(2.362 0 0)
(2.36219 0 0)
(2.36238 0 0)
(2.36258 0 0)
(2.36277 0 0)
(2.36296 0 0)
(2.36316 0 0)
(2.36335 0 0)
(2.36355 0 0)
(2.36374 0 0)
(2.36393 0 0)
(2.36413 0 0)
(2.36432 0 0)
(2.36452 0 0)
(2.36471 0 0)
(2.36491 0 0)
(2.3651 0 0)
(2.36529 0 0)
(2.36549 0 0)
(2.36568 0 0)
(2.36588 0 0)
(2.36607 0 0)
(2.36627 0 0)
(2.36646 0 0)
(2.36665 0 0)
(2.36685 0 0)
(2.36704 0 0)
(2.36724 0 0)
(2.36743 0 0)
(2.36762 0 0)
(2.36782 0 0)
(2.36801 0 0)
(2.36821 0 0)
(2.3684 0 0)
(2.36859 0 0)
(2.36879 0 0)
(2.36898 0 0)
(2.36917 0 0)
(2.36937 0 0)
(2.36956 0 0)
(2.36976 0 0)
(2.36995 0 0)
(2.37014 0 0)
(2.37034 0 0)
(2.37053 0 0)
(2.37072 0 0)
(2.37092 0 0)
(2.37111 0 0)
(2.3713 0 0)
(2.3715 0 0)
(2.37169 0 0)
(2.37188 0 0)
(2.37208 0 0)
(2.37227 0 0)
(2.37246 0 0)
(2.37266 0 0)
(2.37285 0 0)
(2.37304 0 0)
(2.37325 0 0)
(2.37345 0 0)
(2.37363 0 0)
(2.37381 0 0)
(2.37401 0 0)
(2.37421 0 0)
(2.3744 0 0)
(2.37459 0 0)
(2.37478 0 0)
(2.37497 0 0)
(2.37516 0 0)
(2.37536 0 0)
(2.37555 0 0)
(2.37574 0 0)
(2.37593 0 0)
(2.37612 0 0)
(2.37631 0 0)
(2.3765 0 0)
(2.37669 0 0)
(2.37689 0 0)
(2.37708 0 0)
(2.37727 0 0)
(2.37746 0 0)
(2.37765 0 0)
(2.37784 0 0)
(2.37803 0 0)
(2.37822 0 0)
(2.37841 0 0)
(2.3786 0 0)
(2.37879 0 0)
(2.37898 0 0)
(2.37917 0 0)
(2.37937 0 0)
(2.37956 0 0)
(2.37975 0 0)
(2.37994 0 0)
(2.38013 0 0)
(2.38032 0 0)
(2.38051 0 0)
(2.3807 0 0)
(2.38089 0 0)
(2.38108 0 0)
(2.38127 0 0)
(2.38145 0 0)
(2.38164 0 0)
(2.38183 0 0)
(2.38202 0 0)
(2.38221 0 0)
(2.3824 0 0)
(2.38259 0 0)
(2.38278 0 0)
(2.38297 0 0)
(2.38316 0 0)
(2.38335 0 0)
(2.38353 0 0)
(2.38372 0 0)
(2.38391 0 0)
(2.3841 0 0)
(2.38429 0 0)
(2.38448 0 0)
(2.38466 0 0)
(2.38485 0 0)
(2.38504 0 0)
(2.38523 0 0)
(2.38542 0 0)
(2.3856 0 0)
(2.38579 0 0)
(2.38598 0 0)
(2.38617 0 0)
(2.38635 0 0)
(2.38654 0 0)
(2.38673 0 0)
(2.38691 0 0)
(2.3871 0 0)
(2.38729 0 0)
(2.38747 0 0)
(2.38766 0 0)
(2.38785 0 0)
(2.38803 0 0)
(2.38822 0 0)
(2.38841 0 0)
(2.38859 0 0)
(2.38878 0 0)
(2.38896 0 0)
(2.38915 0 0)
(2.38934 0 0)
(2.38952 0 0)
(2.38971 0 0)
(2.38989 0 0)
(2.39008 0 0)
(2.39026 0 0)
(2.39045 0 0)
(2.39063 0 0)
(2.39082 0 0)
(2.391 0 0)
(2.39119 0 0)
(2.39137 0 0)
(2.39155 0 0)
(2.39174 0 0)
(2.39192 0 0)
(2.39211 0 0)
(2.39229 0 0)
(2.39247 0 0)
(2.39266 0 0)
(2.39284 0 0)
(2.39302 0 0)
(2.39321 0 0)
(2.39339 0 0)
(2.39357 0 0)
(2.39376 0 0)
(2.39394 0 0)
(2.39412 0 0)
(2.39431 0 0)
(2.39449 0 0)
(2.39467 0 0)
(2.39485 0 0)
(2.39504 0 0)
(2.39522 0 0)
(2.3954 0 0)
(2.39558 0 0)
(2.39576 0 0)
(2.39595 0 0)
(2.39613 0 0)
(2.39631 0 0)
(2.39649 0 0)
(2.39667 0 0)
(2.39687 0 0)
(2.39705 0 0)
(2.39722 0 0)
(2.39739 0 0)
(2.39758 0 0)
(2.39776 0 0)
(2.39794 0 0)
(2.39812 0 0)
(2.3983 0 0)
(2.39848 0 0)
(2.39866 0 0)
(2.39884 0 0)
(2.39902 0 0)
(2.3992 0 0)
(2.39938 0 0)
(2.39955 0 0)
(2.39973 0 0)
(2.39992 0 0)
(2.40014 0 0)
(2.40045 0 0)
(2.40111 0 0)
(2.40283 0 0)
(2.4077 0 0)
(2.42128 0 0)
(2.45661 0 0)
(2.54185 0 0)
(2.73829 0 0)
(3.15826 0 0)
(3.97554 0 0)
(5.11857 0 0)
(6.35849 0 0)
(7.52101 0 0)
(8.54978 0 0)
(9.43277 0 0)
(10.1674 0 0)
(10.7747 0 0)
(11.2796 0 0)
(11.6888 0 0)
(12.014 0 0)
(12.2813 0 0)
(12.5108 0 0)
(12.7123 0 0)
(12.8908 0 0)
(13.0503 0 0)
(13.194 0 0)
(13.3246 0 0)
(13.4441 0 0)
(13.554 0 0)
(13.6555 0 0)
(13.7498 0 0)
(13.8376 0 0)
(13.9197 0 0)
(13.9967 0 0)
(14.069 0 0)
(14.1373 0 0)
(14.2017 0 0)
(14.2628 0 0)
(14.3206 0 0)
(14.3756 0 0)
(14.428 0 0)
(14.4778 0 0)
(14.5252 0 0)
(14.5693 0 0)
(14.6106 0 0)
(14.6506 0 0)
(14.6892 0 0)
(14.7265 0 0)
(14.7626 0 0)
(14.7975 0 0)
(14.8313 0 0)
(14.864 0 0)
(14.8958 0 0)
(14.9266 0 0)
(14.9566 0 0)
(14.9857 0 0)
(15.014 0 0)
(15.0415 0 0)
(15.0683 0 0)
(15.0943 0 0)
(15.1197 0 0)
(15.1445 0 0)
(15.1687 0 0)
(15.1922 0 0)
(15.2153 0 0)
(15.2377 0 0)
(15.2597 0 0)
(15.2811 0 0)
(15.3021 0 0)
(15.3226 0 0)
(15.3427 0 0)
(15.3623 0 0)
(15.3815 0 0)
(15.4004 0 0)
(15.4188 0 0)
(15.4369 0 0)
(15.4546 0 0)
(15.472 0 0)
(15.489 0 0)
(15.5058 0 0)
(15.5222 0 0)
(15.5383 0 0)
(15.5541 0 0)
(15.5696 0 0)
(15.5849 0 0)
(15.5999 0 0)
(15.6146 0 0)
(15.6291 0 0)
(15.6433 0 0)
(15.6573 0 0)
(15.6711 0 0)
(15.6846 0 0)
(15.698 0 0)
(15.7111 0 0)
(15.724 0 0)
(15.7367 0 0)
(15.7492 0 0)
(15.7615 0 0)
(15.7737 0 0)
(15.7856 0 0)
(15.7974 0 0)
(15.809 0 0)
(15.8205 0 0)
(15.8317 0 0)
(15.8428 0 0)
(15.8538 0 0)
(15.8646 0 0)
(15.8752 0 0)
(15.886 0 0)
(15.8965 0 0)
(15.9066 0 0)
(15.9167 0 0)
(15.9267 0 0)
(15.9365 0 0)
(15.9463 0 0)
(15.9559 0 0)
(15.9654 0 0)
(15.9748 0 0)
(15.984 0 0)
(15.9932 0 0)
(16.0022 0 0)
(16.0111 0 0)
(16.02 0 0)
(16.0287 0 0)
(16.0373 0 0)
(16.0458 0 0)
(16.0543 0 0)
(16.0626 0 0)
(16.0708 0 0)
(16.079 0 0)
(16.087 0 0)
(16.095 0 0)
(16.1029 0 0)
(16.1107 0 0)
(16.1184 0 0)
(16.126 0 0)
(16.1336 0 0)
(16.1411 0 0)
(16.1485 0 0)
(16.1558 0 0)
(16.163 0 0)
(16.1702 0 0)
(16.1773 0 0)
(16.1843 0 0)
(16.1913 0 0)
(16.1982 0 0)
(16.205 0 0)
(16.2118 0 0)
(16.2184 0 0)
(16.2251 0 0)
(16.2316 0 0)
(16.2381 0 0)
(16.2446 0 0)
(16.2509 0 0)
(16.2573 0 0)
(16.2635 0 0)
(16.2697 0 0)
(16.2759 0 0)
(16.2819 0 0)
(16.288 0 0)
(16.2939 0 0)
(16.2998 0 0)
(16.3056 0 0)
(16.3115 0 0)
(16.3176 0 0)
(16.3229 0 0)
(16.3281 0 0)
(16.3342 0 0)
(16.3399 0 0)
(16.3453 0 0)
(16.3508 0 0)
(16.3562 0 0)
(16.3615 0 0)
(16.3668 0 0)
(16.372 0 0)
(16.3772 0 0)
(16.3824 0 0)
(16.3875 0 0)
(16.3926 0 0)
(16.3977 0 0)
(16.4027 0 0)
(16.4076 0 0)
(16.4126 0 0)
(16.4175 0 0)
(16.4223 0 0)
(16.4272 0 0)
(16.432 0 0)
(16.4368 0 0)
(16.4415 0 0)
(16.4462 0 0)
(16.451 0 0)
(16.4556 0 0)
(16.4603 0 0)
(16.465 0 0)
(16.4696 0 0)
(16.4742 0 0)
(16.4789 0 0)
(16.4834 0 0)
(16.488 0 0)
(16.4926 0 0)
(16.4972 0 0)
(16.5017 0 0)
(16.5062 0 0)
(16.5107 0 0)
(16.5152 0 0)
(16.5197 0 0)
(16.5241 0 0)
(16.5285 0 0)
(16.5329 0 0)
(16.5372 0 0)
(16.5415 0 0)
(16.5458 0 0)
(16.55 0 0)
(16.5541 0 0)
(16.5582 0 0)
(16.5622 0 0)
(16.5661 0 0)
(16.5699 0 0)
(16.5737 0 0)
(16.5774 0 0)
(16.581 0 0)
(16.5845 0 0)
(16.5879 0 0)
(16.5913 0 0)
(16.5945 0 0)
(16.5975 0 0)
(16.6004 0 0)
(16.6029 0 0)
(16.6042 0 0)
(16.6026 0 0)
(16.5944 0 0)
)
;

boundaryField
{
    boundary
    {
        type            empty;
    }
    inlet
    {
        type            fixedValue;
        value           uniform (2.34893 0 0);
    }
    outlet
    {
        type            zeroGradient;
    }
}


// ************************************************************************* //
