/*--------------------------------*- C++ -*----------------------------------*\
  =========                 |
  \\      /  F ield         | OpenFOAM: The Open Source CFD Toolbox
   \\    /   O peration     | Website:  https://openfoam.org
    \\  /    A nd           | Version:  7
     \\/     M anipulation  |
\*---------------------------------------------------------------------------*/
FoamFile
{
    version     2.0;
    format      ascii;
    class       volScalarField;
    location    "0.00047";
    object      H;
}
// * * * * * * * * * * * * * * * * * * * * * * * * * * * * * * * * * * * * * //

dimensions      [0 0 0 0 0 0 0];

internalField   nonuniform List<scalar> 
500
(
1.4871e-41
2.01633e-41
2.13268e-41
2.1601e-41
2.16842e-41
2.1727e-41
2.17622e-41
2.17972e-41
2.18343e-41
2.18749e-41
2.19202e-41
2.19719e-41
2.20319e-41
2.21023e-41
2.21856e-41
2.22844e-41
2.24017e-41
2.25405e-41
2.27043e-41
2.28961e-41
2.31192e-41
2.33763e-41
2.36701e-41
2.40022e-41
2.43737e-41
2.4785e-41
2.52351e-41
2.5722e-41
2.62424e-41
2.6792e-41
2.73652e-41
2.79555e-41
2.85554e-41
2.91573e-41
2.97529e-41
3.03345e-41
3.08946e-41
3.14266e-41
3.1925e-41
3.23853e-41
3.28047e-41
3.31815e-41
3.35156e-41
3.38077e-41
3.40598e-41
3.42745e-41
3.4455e-41
3.46049e-41
3.47278e-41
3.48273e-41
3.4907e-41
3.497e-41
3.50192e-41
3.50573e-41
3.50865e-41
3.51085e-41
3.5125e-41
3.51373e-41
3.51463e-41
3.51528e-41
3.51576e-41
3.5161e-41
3.51634e-41
3.51651e-41
3.51664e-41
3.51673e-41
3.5168e-41
3.51685e-41
3.51689e-41
3.51693e-41
3.51696e-41
3.51699e-41
3.51702e-41
3.51704e-41
3.51707e-41
3.5171e-41
3.51713e-41
3.51716e-41
3.5172e-41
3.51723e-41
3.51727e-41
3.51731e-41
3.51735e-41
3.51739e-41
3.51743e-41
3.51748e-41
3.51753e-41
3.51758e-41
3.51763e-41
3.51768e-41
3.51774e-41
3.5178e-41
3.51786e-41
3.51793e-41
3.518e-41
3.51807e-41
3.51814e-41
3.51822e-41
3.5183e-41
3.51838e-41
3.51846e-41
3.51855e-41
3.51864e-41
3.51874e-41
3.51884e-41
3.51894e-41
3.51905e-41
3.51916e-41
3.51927e-41
3.51939e-41
3.51951e-41
3.51963e-41
3.51976e-41
3.51989e-41
3.52003e-41
3.52017e-41
3.52031e-41
3.52046e-41
3.52061e-41
3.52077e-41
3.52093e-41
3.52109e-41
3.52125e-41
3.52138e-41
3.52142e-41
3.52146e-41
3.52171e-41
3.52202e-41
3.5223e-41
3.52256e-41
3.52279e-41
3.523e-41
3.5232e-41
3.5234e-41
3.5236e-41
3.52381e-41
3.52402e-41
3.52423e-41
3.52445e-41
3.52467e-41
3.52489e-41
3.52512e-41
3.52534e-41
3.52557e-41
3.5258e-41
3.52603e-41
3.52626e-41
3.52649e-41
3.52673e-41
3.52697e-41
3.52721e-41
3.52746e-41
3.52771e-41
3.52797e-41
3.52823e-41
3.5285e-41
3.52876e-41
3.52904e-41
3.52931e-41
3.52959e-41
3.52986e-41
3.53014e-41
3.53041e-41
3.53068e-41
3.53095e-41
3.53121e-41
3.53146e-41
3.5317e-41
3.53194e-41
3.53217e-41
3.53239e-41
3.5326e-41
3.5328e-41
3.53298e-41
3.53316e-41
3.53332e-41
3.53347e-41
3.53361e-41
3.53373e-41
3.53383e-41
3.53392e-41
3.53399e-41
3.53405e-41
3.53409e-41
3.5341e-41
3.5341e-41
3.53407e-41
3.53402e-41
3.53395e-41
3.53386e-41
3.53373e-41
3.53358e-41
3.53341e-41
3.5332e-41
3.53296e-41
3.53269e-41
3.53239e-41
3.53205e-41
3.53168e-41
3.53127e-41
3.53083e-41
3.53034e-41
3.52982e-41
3.52925e-41
3.52864e-41
3.52799e-41
3.52729e-41
3.52654e-41
3.52575e-41
3.52491e-41
3.52401e-41
3.52307e-41
3.52208e-41
3.52106e-41
3.52006e-41
3.51932e-41
3.51984e-41
3.52575e-41
3.55375e-41
3.67121e-41
4.14678e-41
6.04217e-41
1.35137e-40
4.2679e-40
1.55451e-39
5.87412e-39
2.22653e-38
8.38828e-38
3.1336e-37
1.16007e-36
4.25542e-36
1.5468e-35
5.57171e-35
1.98907e-34
7.03844e-34
2.46904e-33
8.58784e-33
2.9623e-32
1.01361e-31
3.4414e-31
1.15981e-30
3.8819e-30
1.29123e-29
4.27244e-29
1.40806e-28
4.63022e-28
1.52277e-27
5.02398e-27
1.66937e-26
5.61443e-26
1.92289e-25
6.7348e-25
2.42348e-24
8.9932e-24
3.45416e-23
1.37343e-22
5.63894e-22
2.38044e-21
1.02811e-20
4.52179e-20
2.01752e-19
9.10757e-19
4.15406e-18
1.91441e-17
8.92785e-17
4.22678e-16
2.04184e-15
1.01335e-14
5.20826e-14
2.79373e-13
1.66284e-12
1.20217e-11
1.10844e-10
1.0568e-09
9.88161e-09
9.19936e-08
8.13632e-07
6.28805e-06
3.70063e-05
0.000140884
0.000343445
0.000631902
0.000981141
0.00133883
0.00163392
0.00182359
0.00191326
0.00192267
0.00188541
0.00182324
0.00175011
0.00167419
0.00159987
0.00152933
0.00146347
0.00140248
0.0013462
0.00129432
0.00124646
0.00120222
0.00116125
0.0011232
0.00108779
0.00105474
0.00102381
0.000994819
0.000967571
0.000941911
0.000917701
0.000894819
0.000873154
0.000852611
0.000833674
0.000816049
0.000799148
0.000782928
0.000767348
0.000752369
0.000737955
0.000724074
0.000710696
0.000697792
0.000685338
0.000673308
0.000661681
0.000650437
0.000639555
0.000629018
0.000618809
0.000608913
0.000599315
0.000590001
0.000580958
0.000572174
0.000563639
0.000555341
0.00054727
0.000539418
0.000531774
0.000524331
0.00051708
0.000510015
0.000503127
0.000496411
0.00048986
0.000483467
0.000477228
0.000471136
0.000465186
0.000459374
0.000453694
0.000448143
0.000442716
0.000437408
0.000432217
0.000427138
0.000422168
0.000417303
0.00041254
0.000407877
0.00040331
0.000398837
0.000394455
0.000390161
0.000385954
0.000381831
0.000377789
0.000373828
0.000369945
0.000366139
0.000362407
0.000358749
0.000355162
0.000351646
0.000348199
0.000344817
0.000341485
0.000338208
0.000334989
0.000331827
0.000328721
0.000325671
0.000322676
0.000319735
0.000316846
0.00031401
0.000311224
0.000308489
0.000305803
0.000303165
0.000300573
0.000298025
0.000295519
0.000293054
0.000290611
0.000288078
0.000285764
0.000283487
0.000281245
0.000279039
0.000276867
0.000274731
0.000272629
0.000270562
0.000268528
0.000266528
0.000264561
0.000262626
0.000260722
0.00025885
0.000257007
0.000255194
0.000253409
0.000251651
0.00024992
0.000248214
0.000246533
0.000244875
0.00024324
0.000241626
0.000240033
0.000238458
0.000236902
0.000235362
0.000233838
0.000232328
0.000230831
0.000229346
0.000227871
0.000226405
0.000224947
0.000223495
0.000222048
0.000220605
0.000219164
0.000217724
0.000216283
0.000214841
0.000213395
0.000211946
0.000210491
0.000209029
0.00020756
0.000206082
0.000204594
0.000203096
0.000201586
0.000200064
0.000198529
0.000196981
0.000195418
0.000193841
0.00019225
0.000190643
0.000189021
0.000187383
0.00018573
0.000184061
0.000182377
0.000180678
0.000178964
0.000177236
0.000175493
0.000173736
0.000171965
0.000170182
0.000168386
0.000166578
0.00016476
0.00016293
0.000161091
0.000159242
0.000157386
0.000155522
0.000153651
0.000151775
0.000149895
0.000148012
0.000146126
0.00014424
0.000142355
0.000140473
0.000138594
0.000136722
0.000134858
0.000133006
0.000131167
0.000129346
0.000127548
0.000125776
0.000124039
0.000122344
0.000120703
0.00011913
0.000117644
0.000116271
0.000115046
0.000114014
0.000113238
0.000112799
)
;

boundaryField
{
    boundary
    {
        type            empty;
    }
    inlet
    {
        type            fixedValue;
        value           uniform 0;
    }
    outlet
    {
        type            zeroGradient;
    }
}


// ************************************************************************* //
