/*--------------------------------*- C++ -*----------------------------------*\
  =========                 |
  \\      /  F ield         | OpenFOAM: The Open Source CFD Toolbox
   \\    /   O peration     | Website:  https://openfoam.org
    \\  /    A nd           | Version:  7
     \\/     M anipulation  |
\*---------------------------------------------------------------------------*/
FoamFile
{
    version     2.0;
    format      ascii;
    class       volScalarField;
    location    "0.00047";
    object      H2O;
}
// * * * * * * * * * * * * * * * * * * * * * * * * * * * * * * * * * * * * * //

dimensions      [0 0 0 0 0 0 0];

internalField   nonuniform List<scalar> 
500
(
7.90471e-48
2.28571e-47
4.11521e-47
6.17233e-47
8.38531e-47
1.07063e-46
1.31036e-46
1.55571e-46
1.80544e-46
2.05888e-46
2.3158e-46
2.57629e-46
2.84074e-46
3.10978e-46
3.38427e-46
3.66524e-46
3.95392e-46
4.25165e-46
4.55986e-46
4.87994e-46
5.21322e-46
5.56083e-46
5.92356e-46
6.30181e-46
6.6954e-46
7.10357e-46
7.52484e-46
7.95704e-46
8.3973e-46
8.84211e-46
9.28746e-46
9.72897e-46
1.01621e-45
1.05822e-45
1.09851e-45
1.13669e-45
1.17241e-45
1.20542e-45
1.23554e-45
1.26267e-45
1.28679e-45
1.30796e-45
1.32629e-45
1.34197e-45
1.35519e-45
1.36621e-45
1.37528e-45
1.38264e-45
1.38854e-45
1.39322e-45
1.39687e-45
1.3997e-45
1.40186e-45
1.40349e-45
1.40471e-45
1.40561e-45
1.40626e-45
1.40673e-45
1.40707e-45
1.40731e-45
1.40748e-45
1.40759e-45
1.40767e-45
1.40773e-45
1.40777e-45
1.4078e-45
1.40781e-45
1.40783e-45
1.40784e-45
1.40785e-45
1.40786e-45
1.40786e-45
1.40787e-45
1.40788e-45
1.40789e-45
1.4079e-45
1.40791e-45
1.40792e-45
1.40793e-45
1.40794e-45
1.40795e-45
1.40796e-45
1.40798e-45
1.40799e-45
1.40801e-45
1.40802e-45
1.40804e-45
1.40806e-45
1.40808e-45
1.4081e-45
1.40812e-45
1.40814e-45
1.40817e-45
1.40819e-45
1.40822e-45
1.40825e-45
1.40828e-45
1.40831e-45
1.40834e-45
1.40838e-45
1.40841e-45
1.40845e-45
1.40849e-45
1.40853e-45
1.40857e-45
1.40861e-45
1.40866e-45
1.40871e-45
1.40875e-45
1.4088e-45
1.40886e-45
1.40891e-45
1.40897e-45
1.40902e-45
1.40908e-45
1.40915e-45
1.40921e-45
1.40927e-45
1.40934e-45
1.40941e-45
1.40947e-45
1.40951e-45
1.40946e-45
1.40906e-45
1.40732e-45
1.40408e-45
1.40433e-45
1.40468e-45
1.40514e-45
1.4057e-45
1.40637e-45
1.40711e-45
1.40788e-45
1.40865e-45
1.40936e-45
1.40999e-45
1.41051e-45
1.41091e-45
1.4112e-45
1.41139e-45
1.41149e-45
1.41152e-45
1.41149e-45
1.41143e-45
1.41133e-45
1.41122e-45
1.41111e-45
1.411e-45
1.4109e-45
1.41082e-45
1.41077e-45
1.41076e-45
1.41078e-45
1.41085e-45
1.41096e-45
1.4111e-45
1.41129e-45
1.4115e-45
1.41174e-45
1.412e-45
1.41226e-45
1.41254e-45
1.41281e-45
1.41307e-45
1.41333e-45
1.41357e-45
1.41379e-45
1.414e-45
1.41419e-45
1.41437e-45
1.41452e-45
1.41466e-45
1.41479e-45
1.4149e-45
1.415e-45
1.41509e-45
1.41517e-45
1.41524e-45
1.41529e-45
1.41534e-45
1.41538e-45
1.41541e-45
1.41543e-45
1.41544e-45
1.41544e-45
1.41543e-45
1.41541e-45
1.41537e-45
1.41533e-45
1.41527e-45
1.4152e-45
1.41512e-45
1.41502e-45
1.41491e-45
1.41478e-45
1.41464e-45
1.41448e-45
1.4143e-45
1.4141e-45
1.41389e-45
1.41366e-45
1.41341e-45
1.41315e-45
1.41289e-45
1.41276e-45
1.4133e-45
1.41702e-45
1.43554e-45
1.52205e-45
1.91815e-45
3.71326e-45
1.17851e-44
4.78305e-44
2.078e-43
9.13943e-43
4.01757e-42
1.76176e-41
7.713e-41
3.37691e-40
1.48162e-39
6.52938e-39
2.89691e-38
1.29673e-37
5.86607e-37
2.68433e-36
1.24265e-35
5.81462e-35
2.74568e-34
1.30552e-33
6.23519e-33
2.9837e-32
1.42716e-31
6.80914e-31
3.23474e-30
1.52787e-29
7.16698e-29
3.33594e-28
1.53981e-27
7.04554e-27
3.19496e-26
1.4358e-25
6.39472e-25
2.823e-24
1.23551e-23
5.362e-23
2.30815e-22
9.8576e-22
4.17802e-21
1.75791e-20
7.34505e-20
3.04885e-19
1.26977e-18
5.22868e-18
2.13468e-17
8.66817e-17
3.50471e-16
1.4118e-15
5.66898e-15
2.27007e-14
9.06886e-14
3.6158e-13
1.43926e-12
5.72115e-12
2.2717e-11
9.01244e-11
3.57307e-10
1.41587e-09
5.6086e-09
2.22117e-08
8.79503e-08
3.48187e-07
1.37797e-06
5.44896e-06
2.15017e-05
8.4367e-05
0.000325945
0.00120772
0.00403946
0.0110811
0.0235062
0.0399354
0.0598557
0.0836385
0.109626
0.133848
0.152928
0.169576
0.179428
0.186045
0.190528
0.19365
0.195915
0.197642
0.199024
0.200182
0.201188
0.202088
0.20291
0.203671
0.204385
0.205057
0.205695
0.206303
0.206883
0.207438
0.20797
0.20848
0.208971
0.209444
0.209899
0.210338
0.210762
0.211157
0.211535
0.211902
0.21226
0.212608
0.212949
0.213281
0.213606
0.213923
0.214233
0.214537
0.214834
0.215125
0.21541
0.21569
0.215964
0.216233
0.216497
0.216756
0.21701
0.21726
0.217506
0.217747
0.217984
0.218217
0.218446
0.218672
0.218893
0.219111
0.219326
0.219537
0.219745
0.21995
0.220151
0.220349
0.220545
0.220737
0.220927
0.221114
0.221298
0.221479
0.221658
0.221834
0.222008
0.22218
0.222349
0.222516
0.222681
0.222844
0.223004
0.223163
0.22332
0.223474
0.223627
0.223779
0.223928
0.224076
0.224222
0.224367
0.22451
0.224652
0.224793
0.224933
0.225072
0.22521
0.225345
0.22548
0.225613
0.225745
0.225876
0.226006
0.226136
0.226264
0.226392
0.226519
0.226645
0.22677
0.226895
0.227019
0.227143
0.227267
0.22739
0.227515
0.22766
0.227779
0.2279
0.228023
0.228147
0.228272
0.228398
0.228525
0.228652
0.22878
0.228909
0.22904
0.229171
0.229303
0.229437
0.229572
0.229709
0.229847
0.229987
0.230128
0.230271
0.230416
0.230562
0.23071
0.230861
0.231013
0.231166
0.231322
0.23148
0.231639
0.231799
0.231962
0.232126
0.232291
0.232457
0.232624
0.232793
0.232962
0.233131
0.233301
0.233471
0.233641
0.233811
0.23398
0.234149
0.234316
0.234483
0.234648
0.234812
0.234974
0.235134
0.235292
0.235447
0.2356
0.235751
0.235899
0.236044
0.236187
0.236326
0.236463
0.236597
0.236727
0.236855
0.236979
0.237101
0.237219
0.237335
0.237447
0.237557
0.237664
0.237768
0.237869
0.237968
0.238064
0.238157
0.238248
0.238337
0.238422
0.238506
0.238587
0.238666
0.238742
0.238816
0.238887
0.238957
0.239024
0.239088
0.239151
0.239211
0.239268
0.239324
0.239376
0.239427
0.239475
0.239521
0.239564
0.239604
0.239642
0.239677
0.239709
0.239738
0.239763
0.239784
0.239801
0.239811
)
;

boundaryField
{
    boundary
    {
        type            empty;
    }
    inlet
    {
        type            fixedValue;
        value           uniform 0;
    }
    outlet
    {
        type            zeroGradient;
    }
}


// ************************************************************************* //
