/*--------------------------------*- C++ -*----------------------------------*\
  =========                 |
  \\      /  F ield         | OpenFOAM: The Open Source CFD Toolbox
   \\    /   O peration     | Website:  https://openfoam.org
    \\  /    A nd           | Version:  7
     \\/     M anipulation  |
\*---------------------------------------------------------------------------*/
FoamFile
{
    version     2.0;
    format      ascii;
    class       volScalarField;
    location    "0.00047";
    object      HO2;
}
// * * * * * * * * * * * * * * * * * * * * * * * * * * * * * * * * * * * * * //

dimensions      [0 0 0 0 0 0 0];

internalField   nonuniform List<scalar> 
500
(
5.60374e-38
1.27608e-37
1.99537e-37
2.71629e-37
3.43849e-37
4.16202e-37
4.88707e-37
5.614e-37
6.3433e-37
7.07569e-37
7.8121e-37
8.5537e-37
9.30197e-37
1.00587e-36
1.0826e-36
1.16063e-36
1.24024e-36
1.3217e-36
1.40531e-36
1.49136e-36
1.58011e-36
1.67175e-36
1.7664e-36
1.86407e-36
1.96465e-36
2.06787e-36
2.17332e-36
2.28041e-36
2.38841e-36
2.49648e-36
2.60364e-36
2.7089e-36
2.81121e-36
2.90956e-36
3.00305e-36
3.09085e-36
3.17232e-36
3.24698e-36
3.31453e-36
3.37487e-36
3.42809e-36
3.47442e-36
3.51424e-36
3.54801e-36
3.5763e-36
3.59969e-36
3.61878e-36
3.63417e-36
3.64643e-36
3.65606e-36
3.66355e-36
3.6693e-36
3.67366e-36
3.67694e-36
3.67936e-36
3.68114e-36
3.68243e-36
3.68335e-36
3.68401e-36
3.68447e-36
3.6848e-36
3.68502e-36
3.68518e-36
3.68528e-36
3.68536e-36
3.68541e-36
3.68545e-36
3.68547e-36
3.6855e-36
3.68552e-36
3.68553e-36
3.68555e-36
3.68557e-36
3.68558e-36
3.6856e-36
3.68562e-36
3.68564e-36
3.68566e-36
3.68568e-36
3.68571e-36
3.68574e-36
3.68576e-36
3.68579e-36
3.68582e-36
3.68586e-36
3.68589e-36
3.68593e-36
3.68597e-36
3.68601e-36
3.68605e-36
3.6861e-36
3.68615e-36
3.6862e-36
3.68625e-36
3.68631e-36
3.68636e-36
3.68643e-36
3.68649e-36
3.68656e-36
3.68663e-36
3.6867e-36
3.68677e-36
3.68685e-36
3.68694e-36
3.68702e-36
3.68711e-36
3.6872e-36
3.6873e-36
3.6874e-36
3.6875e-36
3.68761e-36
3.68772e-36
3.68783e-36
3.68795e-36
3.68807e-36
3.6882e-36
3.68833e-36
3.68846e-36
3.6886e-36
3.68874e-36
3.68887e-36
3.68895e-36
3.68884e-36
3.68794e-36
3.6839e-36
3.67589e-36
3.67628e-36
3.67681e-36
3.6775e-36
3.67839e-36
3.67949e-36
3.68077e-36
3.6822e-36
3.68368e-36
3.68513e-36
3.68645e-36
3.68756e-36
3.68838e-36
3.68891e-36
3.68913e-36
3.68908e-36
3.6888e-36
3.68837e-36
3.68784e-36
3.68728e-36
3.68675e-36
3.6863e-36
3.68596e-36
3.68577e-36
3.68574e-36
3.68587e-36
3.68617e-36
3.68661e-36
3.68719e-36
3.68788e-36
3.68866e-36
3.68951e-36
3.69039e-36
3.69129e-36
3.69219e-36
3.69306e-36
3.69391e-36
3.6947e-36
3.69544e-36
3.69613e-36
3.69675e-36
3.69732e-36
3.69782e-36
3.69827e-36
3.69867e-36
3.69903e-36
3.69934e-36
3.69962e-36
3.69986e-36
3.70008e-36
3.70026e-36
3.70043e-36
3.70057e-36
3.70069e-36
3.70079e-36
3.70088e-36
3.70094e-36
3.70098e-36
3.70101e-36
3.70101e-36
3.70099e-36
3.70095e-36
3.70089e-36
3.70081e-36
3.70069e-36
3.70056e-36
3.70039e-36
3.7002e-36
3.69998e-36
3.69973e-36
3.69945e-36
3.69913e-36
3.69878e-36
3.6984e-36
3.69797e-36
3.69751e-36
3.69702e-36
3.69648e-36
3.69589e-36
3.69527e-36
3.6946e-36
3.69389e-36
3.69313e-36
3.69232e-36
3.69146e-36
3.69055e-36
3.68959e-36
3.68858e-36
3.68752e-36
3.6864e-36
3.68523e-36
3.68404e-36
3.68293e-36
3.68232e-36
3.68399e-36
3.69517e-36
3.74516e-36
3.95159e-36
4.78263e-36
8.08532e-36
2.10865e-35
7.1839e-35
2.68438e-34
1.02465e-33
3.91543e-33
1.49095e-32
5.65661e-32
2.14088e-31
8.09816e-31
3.06862e-30
1.1679e-29
4.47707e-29
1.73341e-28
6.79467e-28
2.70117e-27
1.08998e-26
4.46367e-26
1.8531e-25
7.78482e-25
3.30198e-24
1.41076e-23
6.05785e-23
2.60923e-22
1.12546e-21
4.85544e-21
2.09319e-20
9.08953e-20
3.92014e-19
1.68251e-18
7.20304e-18
3.0776e-17
1.31262e-16
5.58944e-16
2.37666e-15
1.00927e-14
4.28108e-14
1.81414e-13
7.68103e-13
3.24973e-12
1.37402e-11
5.80612e-11
2.45209e-10
1.03497e-09
4.36532e-09
1.83953e-08
7.73853e-08
3.24444e-07
1.34913e-06
5.51239e-06
2.17071e-05
7.86105e-05
0.000235179
0.000461749
0.000517623
0.000440166
0.000327399
0.00023168
0.000162372
0.000113571
7.96173e-05
5.69347e-05
3.95157e-05
2.98857e-05
2.3705e-05
1.96467e-05
1.68903e-05
1.49397e-05
1.34982e-05
1.23884e-05
1.15021e-05
1.07726e-05
1.0157e-05
9.6273e-06
9.16437e-06
8.75479e-06
8.38883e-06
8.0592e-06
7.76031e-06
7.48775e-06
7.23801e-06
7.00822e-06
6.79599e-06
6.59934e-06
6.41661e-06
6.24639e-06
6.08749e-06
5.93898e-06
5.80423e-06
5.67907e-06
5.56035e-06
5.44758e-06
5.34031e-06
5.23814e-06
5.1407e-06
5.04768e-06
4.95876e-06
4.87368e-06
4.7922e-06
4.71408e-06
4.63913e-06
4.56715e-06
4.49796e-06
4.43141e-06
4.36736e-06
4.30566e-06
4.24619e-06
4.18883e-06
4.13348e-06
4.08003e-06
4.02839e-06
3.97848e-06
3.93022e-06
3.88352e-06
3.83833e-06
3.79456e-06
3.75217e-06
3.71108e-06
3.67125e-06
3.63262e-06
3.59515e-06
3.55877e-06
3.52346e-06
3.48917e-06
3.45585e-06
3.42347e-06
3.392e-06
3.36139e-06
3.33161e-06
3.30263e-06
3.27442e-06
3.24696e-06
3.22021e-06
3.19414e-06
3.16873e-06
3.14397e-06
3.11981e-06
3.09624e-06
3.07325e-06
3.0508e-06
3.02889e-06
3.00748e-06
2.98657e-06
2.96613e-06
2.94614e-06
2.9266e-06
2.90747e-06
2.88875e-06
2.87041e-06
2.85244e-06
2.8348e-06
2.81747e-06
2.80048e-06
2.78388e-06
2.76761e-06
2.75164e-06
2.73597e-06
2.72058e-06
2.70546e-06
2.69061e-06
2.67601e-06
2.66165e-06
2.64751e-06
2.63358e-06
2.61987e-06
2.60636e-06
2.59306e-06
2.5799e-06
2.56684e-06
2.55399e-06
2.54103e-06
2.52594e-06
2.51396e-06
2.50172e-06
2.48937e-06
2.47697e-06
2.46454e-06
2.45208e-06
2.43961e-06
2.42709e-06
2.41452e-06
2.40189e-06
2.38918e-06
2.37638e-06
2.36346e-06
2.35041e-06
2.33722e-06
2.32386e-06
2.31031e-06
2.29658e-06
2.28263e-06
2.26846e-06
2.25405e-06
2.23938e-06
2.22446e-06
2.20927e-06
2.19379e-06
2.17803e-06
2.16198e-06
2.14565e-06
2.12902e-06
2.1121e-06
2.09491e-06
2.07744e-06
2.05971e-06
2.04173e-06
2.02352e-06
2.0051e-06
1.98649e-06
1.96772e-06
1.94881e-06
1.92979e-06
1.91071e-06
1.89159e-06
1.87248e-06
1.85341e-06
1.83442e-06
1.81557e-06
1.79689e-06
1.77844e-06
1.76026e-06
1.74239e-06
1.72489e-06
1.7078e-06
1.69118e-06
1.67506e-06
1.65949e-06
1.64452e-06
1.63018e-06
1.61653e-06
1.60358e-06
1.59138e-06
1.57996e-06
1.56933e-06
1.55954e-06
1.55059e-06
1.5425e-06
1.53527e-06
1.52893e-06
1.52346e-06
1.51886e-06
1.51513e-06
1.51225e-06
1.5102e-06
1.50896e-06
1.50851e-06
1.50882e-06
1.50985e-06
1.51156e-06
1.51391e-06
1.51687e-06
1.52038e-06
1.52441e-06
1.52889e-06
1.53378e-06
1.53904e-06
1.54461e-06
1.55045e-06
1.55651e-06
1.56273e-06
1.56909e-06
1.57554e-06
1.58203e-06
1.58854e-06
1.59502e-06
1.60145e-06
1.60779e-06
1.61401e-06
1.6201e-06
1.62601e-06
1.63172e-06
1.63717e-06
1.6423e-06
1.64697e-06
1.65093e-06
1.65358e-06
)
;

boundaryField
{
    boundary
    {
        type            empty;
    }
    inlet
    {
        type            fixedValue;
        value           uniform 0;
    }
    outlet
    {
        type            zeroGradient;
    }
}


// ************************************************************************* //
