/*--------------------------------*- C++ -*----------------------------------*\
  =========                 |
  \\      /  F ield         | OpenFOAM: The Open Source CFD Toolbox
   \\    /   O peration     | Website:  https://openfoam.org
    \\  /    A nd           | Version:  7
     \\/     M anipulation  |
\*---------------------------------------------------------------------------*/
FoamFile
{
    version     2.0;
    format      ascii;
    class       volScalarField;
    location    "0.00047";
    object      N2;
}
// * * * * * * * * * * * * * * * * * * * * * * * * * * * * * * * * * * * * * //

dimensions      [0 0 0 0 0 0 0];

internalField   nonuniform List<scalar> 
500
(
0.745219
0.745219
0.745219
0.745219
0.745219
0.745219
0.745219
0.745219
0.745219
0.745219
0.745219
0.745219
0.745219
0.745219
0.745219
0.745219
0.745219
0.745219
0.745219
0.745219
0.745219
0.745219
0.745219
0.745219
0.745219
0.745219
0.745219
0.745219
0.745219
0.745219
0.745219
0.74522
0.74522
0.74522
0.74522
0.74522
0.74522
0.74522
0.74522
0.74522
0.74522
0.74522
0.74522
0.74522
0.74522
0.74522
0.74522
0.74522
0.74522
0.74522
0.74522
0.74522
0.74522
0.74522
0.74522
0.74522
0.74522
0.74522
0.74522
0.74522
0.74522
0.74522
0.74522
0.74522
0.74522
0.74522
0.74522
0.74522
0.74522
0.74522
0.74522
0.74522
0.74522
0.74522
0.74522
0.74522
0.74522
0.74522
0.74522
0.74522
0.74522
0.74522
0.74522
0.74522
0.74522
0.74522
0.74522
0.74522
0.74522
0.74522
0.74522
0.74522
0.74522
0.74522
0.74522
0.74522
0.74522
0.74522
0.74522
0.74522
0.74522
0.74522
0.74522
0.74522
0.74522
0.74522
0.74522
0.74522
0.74522
0.74522
0.74522
0.74522
0.74522
0.74522
0.74522
0.74522
0.74522
0.74522
0.74522
0.74522
0.74522
0.74522
0.74522
0.74522
0.74522
0.74522
0.74522
0.74522
0.74522
0.74522
0.74522
0.74522
0.74522
0.74522
0.74522
0.74522
0.74522
0.74522
0.74522
0.74522
0.74522
0.74522
0.74522
0.74522
0.74522
0.74522
0.74522
0.74522
0.74522
0.74522
0.74522
0.74522
0.74522
0.74522
0.74522
0.74522
0.74522
0.74522
0.74522
0.74522
0.74522
0.74522
0.74522
0.74522
0.74522
0.74522
0.74522
0.74522
0.74522
0.74522
0.74522
0.74522
0.74522
0.74522
0.74522
0.74522
0.74522
0.74522
0.74522
0.74522
0.74522
0.74522
0.74522
0.74522
0.74522
0.74522
0.74522
0.74522
0.74522
0.74522
0.74522
0.74522
0.74522
0.74522
0.74522
0.74522
0.74522
0.74522
0.74522
0.74522
0.74522
0.74522
0.74522
0.74522
0.74522
0.74522
0.74522
0.74522
0.74522
0.74522
0.74522
0.74522
0.74522
0.74522
0.74522
0.74522
0.74522
0.74522
0.74522
0.74522
0.74522
0.74522
0.74522
0.74522
0.74522
0.74522
0.74522
0.74522
0.74522
0.74522
0.74522
0.74522
0.74522
0.74522
0.74522
0.74522
0.74522
0.74522
0.74522
0.74522
0.74522
0.74522
0.74522
0.74522
0.74522
0.74522
0.74522
0.74522
0.74522
0.74522
0.74522
0.74522
0.74522
0.74522
0.74522
0.74522
0.74522
0.74522
0.74522
0.74522
0.74522
0.74522
0.74522
0.74522
0.74522
0.74522
0.74522
0.745221
0.745222
0.745224
0.745228
0.745238
0.745256
0.745293
0.745362
0.745472
0.745596
0.745607
0.745387
0.745003
0.744482
0.743933
0.743624
0.743694
0.743982
0.744161
0.744754
0.744968
0.745119
0.745215
0.745274
0.74531
0.745331
0.745342
0.745348
0.745351
0.745351
0.74535
0.745348
0.745346
0.745343
0.74534
0.745337
0.745334
0.745331
0.745328
0.745324
0.745321
0.745317
0.745314
0.745311
0.745308
0.745304
0.745301
0.745299
0.745296
0.745293
0.74529
0.745288
0.745285
0.745283
0.745281
0.745279
0.745277
0.745275
0.745274
0.745272
0.745271
0.74527
0.745269
0.745268
0.745267
0.745266
0.745265
0.745265
0.745264
0.745263
0.745263
0.745262
0.745262
0.745261
0.745261
0.74526
0.74526
0.745259
0.745259
0.745258
0.745257
0.745257
0.745256
0.745256
0.745255
0.745254
0.745254
0.745253
0.745252
0.745252
0.745251
0.74525
0.745249
0.745249
0.745248
0.745247
0.745247
0.745246
0.745245
0.745244
0.745243
0.745243
0.745242
0.745241
0.745239
0.745238
0.745237
0.745235
0.745234
0.745232
0.745231
0.745229
0.745228
0.745226
0.745224
0.745222
0.74522
0.745218
0.745216
0.745214
0.745212
0.745209
0.745207
0.745204
0.745201
0.745198
0.745195
0.745192
0.745188
0.745185
0.745182
0.745179
0.745176
0.745172
0.745169
0.745166
0.745163
0.745159
0.745156
0.745154
0.745151
0.745148
0.745146
0.745144
0.745143
0.745141
0.74514
0.74514
0.745139
0.74514
0.745141
0.745142
0.745144
0.745146
0.745149
0.745153
0.745157
0.745163
0.745168
0.745175
0.745182
0.745191
0.7452
0.745209
0.74522
0.745231
0.745243
0.745256
0.74527
0.745284
0.745299
0.745314
0.745329
0.745346
0.745362
0.745378
0.745395
0.745412
0.745428
0.745444
0.74546
0.745475
0.745489
0.745503
0.745516
0.745528
0.745538
0.745548
0.745556
0.745562
0.745567
0.74557
0.745572
0.745572
0.74557
0.745566
0.745561
0.745553
0.745544
0.745534
0.745521
0.745508
0.745492
0.745475
0.745457
0.745438
0.745418
0.745397
0.745376
0.745353
0.745331
0.745308
0.745285
0.745262
0.745239
0.745217
0.745196
0.745174
0.745154
0.745135
0.745116
0.745099
0.745082
0.745067
0.745052
0.745039
0.745027
0.745015
0.745004
0.744994
0.744983
0.744974
0.744967
)
;

boundaryField
{
    boundary
    {
        type            empty;
    }
    inlet
    {
        type            fixedValue;
        value           uniform 0.74522;
    }
    outlet
    {
        type            zeroGradient;
    }
}


// ************************************************************************* //
