/*--------------------------------*- C++ -*----------------------------------*\
  =========                 |
  \\      /  F ield         | OpenFOAM: The Open Source CFD Toolbox
   \\    /   O peration     | Website:  https://openfoam.org
    \\  /    A nd           | Version:  7
     \\/     M anipulation  |
\*---------------------------------------------------------------------------*/
FoamFile
{
    version     2.0;
    format      ascii;
    class       volScalarField;
    location    "0.00047";
    object      O;
}
// * * * * * * * * * * * * * * * * * * * * * * * * * * * * * * * * * * * * * //

dimensions      [0 0 0 0 0 0 0];

internalField   nonuniform List<scalar> 
500
(
1.5809e-47
3.77509e-47
5.98556e-47
8.20153e-47
1.04211e-46
1.26447e-46
1.48732e-46
1.71085e-46
1.9353e-46
2.161e-46
2.38837e-46
2.61793e-46
2.85031e-46
3.08628e-46
3.3267e-46
3.57256e-46
3.82493e-46
4.08495e-46
4.35377e-46
4.63251e-46
4.92218e-46
5.2236e-46
5.53735e-46
5.86364e-46
6.20226e-46
6.55253e-46
6.91325e-46
7.28268e-46
7.65855e-46
8.03812e-46
8.41826e-46
8.79553e-46
9.16634e-46
9.52711e-46
9.87435e-46
1.02049e-45
1.05159e-45
1.08053e-45
1.10712e-45
1.13126e-45
1.15292e-45
1.17211e-45
1.18891e-45
1.20344e-45
1.21584e-45
1.2263e-45
1.23502e-45
1.2422e-45
1.24804e-45
1.25273e-45
1.25646e-45
1.25939e-45
1.26167e-45
1.26341e-45
1.26474e-45
1.26573e-45
1.26647e-45
1.26701e-45
1.2674e-45
1.26769e-45
1.26789e-45
1.26803e-45
1.26814e-45
1.26821e-45
1.26826e-45
1.26829e-45
1.26831e-45
1.26833e-45
1.26835e-45
1.26836e-45
1.26837e-45
1.26837e-45
1.26838e-45
1.26839e-45
1.2684e-45
1.26841e-45
1.26841e-45
1.26842e-45
1.26843e-45
1.26844e-45
1.26846e-45
1.26847e-45
1.26848e-45
1.26849e-45
1.26851e-45
1.26852e-45
1.26854e-45
1.26856e-45
1.26857e-45
1.26859e-45
1.26861e-45
1.26863e-45
1.26866e-45
1.26868e-45
1.2687e-45
1.26873e-45
1.26876e-45
1.26879e-45
1.26881e-45
1.26885e-45
1.26888e-45
1.26891e-45
1.26895e-45
1.26898e-45
1.26902e-45
1.26906e-45
1.2691e-45
1.26914e-45
1.26919e-45
1.26923e-45
1.26928e-45
1.26933e-45
1.26938e-45
1.26943e-45
1.26949e-45
1.26954e-45
1.2696e-45
1.26966e-45
1.26972e-45
1.26978e-45
1.26983e-45
1.26985e-45
1.26976e-45
1.2693e-45
1.26767e-45
1.26531e-45
1.26595e-45
1.26671e-45
1.26755e-45
1.26838e-45
1.26914e-45
1.26976e-45
1.27023e-45
1.27056e-45
1.27077e-45
1.2709e-45
1.27097e-45
1.27102e-45
1.27107e-45
1.2711e-45
1.27114e-45
1.27119e-45
1.27123e-45
1.27127e-45
1.2713e-45
1.27134e-45
1.27137e-45
1.27141e-45
1.27145e-45
1.27149e-45
1.27154e-45
1.27161e-45
1.27168e-45
1.27177e-45
1.27187e-45
1.27199e-45
1.27212e-45
1.27227e-45
1.27242e-45
1.27259e-45
1.27277e-45
1.27294e-45
1.27312e-45
1.2733e-45
1.27348e-45
1.27365e-45
1.27382e-45
1.27397e-45
1.27412e-45
1.27426e-45
1.27439e-45
1.2745e-45
1.27461e-45
1.27471e-45
1.2748e-45
1.27488e-45
1.27495e-45
1.27501e-45
1.27506e-45
1.2751e-45
1.27514e-45
1.27516e-45
1.27518e-45
1.27519e-45
1.27519e-45
1.27518e-45
1.27516e-45
1.27513e-45
1.27509e-45
1.27504e-45
1.27498e-45
1.2749e-45
1.27481e-45
1.27471e-45
1.27459e-45
1.27446e-45
1.27432e-45
1.27416e-45
1.27399e-45
1.27383e-45
1.27377e-45
1.27424e-45
1.2773e-45
1.29262e-45
1.36517e-45
1.70241e-45
3.25309e-45
1.03183e-44
4.22258e-44
1.85063e-43
8.18858e-43
3.60618e-42
1.57549e-41
6.8229e-41
2.92829e-40
1.2454e-39
5.24831e-39
2.19142e-38
9.06572e-38
3.7156e-37
1.50864e-36
6.06814e-36
2.41781e-35
9.54277e-35
3.73079e-34
1.44476e-33
5.54187e-33
2.10564e-32
7.92475e-32
2.95442e-31
1.09109e-30
3.99186e-30
1.44692e-29
5.19647e-29
1.8493e-28
6.52213e-28
2.27987e-27
7.89996e-27
2.71389e-26
9.24432e-26
3.12274e-25
1.04628e-24
3.47777e-24
1.14712e-23
3.75601e-23
1.22136e-22
3.94625e-22
1.26764e-21
4.05064e-21
1.28821e-20
4.07913e-20
1.29571e-19
4.08797e-19
1.28148e-18
4.00131e-18
1.24567e-17
3.8685e-17
1.1989e-16
3.70909e-16
1.14584e-15
3.53561e-15
1.08992e-14
3.35739e-14
1.03364e-13
3.18107e-13
9.78744e-13
3.011e-12
9.26264e-12
2.84946e-11
8.76589e-11
2.69669e-10
8.29697e-10
2.55544e-09
7.91494e-09
2.5126e-08
8.7367e-08
3.87392e-07
2.42071e-06
1.65045e-05
8.4319e-05
0.000339646
0.00102512
0.0021952
0.00356468
0.00477159
0.00563459
0.00616201
0.0063881
0.00644383
0.00639467
0.00628449
0.00614145
0.00598285
0.00581902
0.00565595
0.00549697
0.00534383
0.00519735
0.00505779
0.0049251
0.00479906
0.00467937
0.00456566
0.00445758
0.00435477
0.00425688
0.0041636
0.00407463
0.00398967
0.00390849
0.00383086
0.00375659
0.00368767
0.00362262
0.00355981
0.00349911
0.00344038
0.00338354
0.00332848
0.0032751
0.00322334
0.00317311
0.00312433
0.00307695
0.00303089
0.00298611
0.00294254
0.00290013
0.00285884
0.00281861
0.00277942
0.00274121
0.00270395
0.00266761
0.00263216
0.00259755
0.00256377
0.00253078
0.00249855
0.00246707
0.00243631
0.00240623
0.00237683
0.00234809
0.00231996
0.00229245
0.00226553
0.00223919
0.00221339
0.00218814
0.0021634
0.00213917
0.00211543
0.00209216
0.00206935
0.00204699
0.00202507
0.00200356
0.00198246
0.00196176
0.00194145
0.00192151
0.00190193
0.00188271
0.00186384
0.0018453
0.00182709
0.00180919
0.0017916
0.00177432
0.00175732
0.00174061
0.00172417
0.00170799
0.00169207
0.00167639
0.00166094
0.00164572
0.00163074
0.001616
0.00160147
0.00158717
0.00157307
0.00155918
0.00154548
0.00153197
0.00151865
0.00150551
0.00149255
0.00147976
0.00146714
0.00145465
0.00144231
0.00143017
0.00141807
0.00140426
0.00139283
0.00138129
0.00136974
0.00135822
0.00134675
0.00133533
0.00132397
0.00131265
0.00130138
0.00129015
0.00127895
0.00126778
0.00125663
0.00124548
0.00123434
0.00122319
0.00121204
0.00120086
0.00118967
0.00117844
0.00116717
0.00115586
0.00114451
0.0011331
0.00112164
0.00111012
0.00109854
0.0010869
0.0010752
0.00106344
0.00105162
0.00103974
0.0010278
0.00101582
0.00100379
0.000991729
0.000979634
0.000967517
0.000955388
0.000943255
0.000931131
0.000919027
0.000906955
0.000894928
0.000882958
0.00087106
0.000859247
0.000847533
0.000835932
0.000824457
0.000813122
0.00080194
0.000790922
0.000780081
0.000769428
0.000758973
0.000748726
0.000738694
0.000728886
0.000719307
0.000709963
0.000700857
0.000691993
0.000683372
0.000674994
0.000666859
0.000658966
0.00065131
0.00064389
0.000636699
0.000629733
0.000622985
0.000616448
0.000610115
0.000603976
0.000598025
0.000592251
0.000586646
0.000581201
0.000575906
0.000570752
0.000565731
0.000560833
0.000556051
0.000551376
0.000546802
0.000542321
0.000537929
0.000533621
0.000529393
0.000525243
0.000521172
0.000517181
0.000513275
0.000509463
0.000505757
0.000502177
0.00049875
0.000495512
0.000492514
0.000489825
0.000487534
0.000485766
0.000484705
)
;

boundaryField
{
    boundary
    {
        type            empty;
    }
    inlet
    {
        type            fixedValue;
        value           uniform 0;
    }
    outlet
    {
        type            zeroGradient;
    }
}


// ************************************************************************* //
