/*--------------------------------*- C++ -*----------------------------------*\
  =========                 |
  \\      /  F ield         | OpenFOAM: The Open Source CFD Toolbox
   \\    /   O peration     | Website:  https://openfoam.org
    \\  /    A nd           | Version:  7
     \\/     M anipulation  |
\*---------------------------------------------------------------------------*/
FoamFile
{
    version     2.0;
    format      ascii;
    class       volScalarField;
    location    "0.00047";
    object      O2;
}
// * * * * * * * * * * * * * * * * * * * * * * * * * * * * * * * * * * * * * //

dimensions      [0 0 0 0 0 0 0];

internalField   nonuniform List<scalar> 
500
(
0.226269
0.226269
0.226269
0.226269
0.226269
0.226269
0.226269
0.226269
0.226269
0.226269
0.226269
0.226269
0.226269
0.226269
0.226269
0.226269
0.226269
0.226269
0.226269
0.226269
0.226269
0.226269
0.226269
0.226269
0.226269
0.226269
0.226269
0.226269
0.226269
0.226269
0.226269
0.226269
0.226269
0.226269
0.226269
0.226269
0.226269
0.226269
0.226269
0.226269
0.226269
0.226269
0.226269
0.226269
0.226269
0.226269
0.226269
0.226269
0.226269
0.226269
0.226269
0.226269
0.226269
0.226269
0.226269
0.226269
0.226269
0.226269
0.226269
0.226269
0.226269
0.226269
0.226269
0.226269
0.226269
0.226269
0.226269
0.226269
0.226269
0.226269
0.226269
0.226269
0.226269
0.226269
0.226269
0.226269
0.226269
0.226269
0.226269
0.226269
0.226269
0.226269
0.226269
0.226269
0.226269
0.226269
0.226269
0.226269
0.226269
0.226269
0.226269
0.226269
0.226269
0.226269
0.226269
0.226269
0.226269
0.226269
0.226269
0.226269
0.226269
0.226269
0.226269
0.226269
0.226269
0.226269
0.226269
0.226269
0.226269
0.226269
0.226269
0.226269
0.226269
0.226269
0.226269
0.226269
0.226269
0.226269
0.226269
0.226269
0.226269
0.226269
0.226269
0.226269
0.226269
0.226269
0.226269
0.226269
0.226269
0.226269
0.226269
0.226269
0.226269
0.226269
0.226269
0.226269
0.226269
0.226269
0.226269
0.226269
0.226269
0.226269
0.226269
0.226269
0.226269
0.226269
0.226269
0.226269
0.226269
0.226269
0.226269
0.226269
0.226269
0.226269
0.226269
0.226269
0.226269
0.226269
0.226269
0.226269
0.226269
0.226269
0.226269
0.226269
0.226269
0.226269
0.226269
0.226269
0.226269
0.226269
0.226269
0.226269
0.226269
0.226269
0.226269
0.226269
0.226269
0.226269
0.226269
0.226269
0.226269
0.226269
0.226269
0.226269
0.226269
0.226269
0.226269
0.226269
0.226269
0.226269
0.226269
0.226269
0.226269
0.226269
0.226269
0.226269
0.226269
0.226269
0.226269
0.226269
0.226269
0.226269
0.226269
0.226269
0.226269
0.226269
0.226269
0.226269
0.226269
0.226269
0.226269
0.226269
0.226269
0.226269
0.226269
0.226269
0.226269
0.226269
0.226269
0.226269
0.226269
0.226269
0.226269
0.226269
0.226269
0.226269
0.226269
0.226269
0.226269
0.226269
0.226269
0.226269
0.226269
0.226269
0.226269
0.226269
0.226269
0.226269
0.226269
0.226269
0.226269
0.226269
0.226269
0.226269
0.226269
0.226269
0.226269
0.226269
0.226269
0.226269
0.226269
0.226269
0.226269
0.226269
0.226269
0.226269
0.226269
0.226269
0.226269
0.226269
0.226269
0.226269
0.226269
0.226269
0.226269
0.226269
0.226269
0.226269
0.22627
0.22627
0.226272
0.226274
0.226277
0.226276
0.226244
0.226065
0.22534
0.223041
0.217303
0.206884
0.192989
0.1754
0.153045
0.127385
0.102718
0.0829857
0.0651159
0.0545589
0.047417
0.0425805
0.0392431
0.0368657
0.0351032
0.0337387
0.0326372
0.0317143
0.0309169
0.0302111
0.0295748
0.0289932
0.0284563
0.0279567
0.0274893
0.02705
0.0266355
0.0262434
0.0258714
0.0255179
0.0251811
0.02486
0.0245533
0.0242604
0.0239891
0.0237319
0.0234832
0.0232424
0.023009
0.0227827
0.022563
0.0223494
0.0221418
0.0219397
0.0217427
0.0215508
0.0213636
0.0211808
0.0210023
0.0208278
0.0206573
0.0204904
0.0203272
0.0201673
0.0200108
0.0198575
0.0197072
0.0195599
0.0194155
0.019274
0.0191351
0.0189988
0.0188652
0.018734
0.0186052
0.0184788
0.0183547
0.0182327
0.018113
0.0179953
0.0178797
0.0177661
0.0176543
0.0175445
0.0174364
0.0173301
0.0172254
0.0171224
0.017021
0.0169212
0.0168228
0.0167259
0.0166304
0.0165362
0.0164433
0.0163517
0.0162613
0.0161721
0.016084
0.015997
0.015911
0.015826
0.015742
0.0156588
0.0155764
0.0154947
0.0154135
0.0153327
0.0152528
0.0151743
0.0150966
0.0150196
0.0149433
0.0148675
0.0147924
0.0147177
0.0146435
0.0145698
0.0144965
0.0144234
0.0143508
0.0142785
0.0142065
0.0141346
0.0140623
0.0139904
0.0139165
0.0138303
0.0137612
0.0136899
0.0136171
0.0135434
0.0134687
0.0133932
0.0133168
0.0132396
0.0131614
0.0130821
0.0130018
0.0129203
0.0128375
0.0127533
0.0126678
0.0125807
0.012492
0.0124017
0.0123096
0.0122158
0.0121201
0.0120225
0.0119229
0.0118214
0.0117179
0.0116124
0.0115049
0.0113954
0.0112839
0.0111705
0.0110553
0.0109383
0.0108195
0.0106992
0.0105773
0.0104541
0.0103297
0.0102042
0.0100779
0.0099508
0.00982323
0.00969536
0.00956741
0.0094396
0.00931216
0.00918533
0.00905933
0.00893441
0.0088108
0.00868873
0.00856844
0.00845016
0.00833409
0.00822044
0.00810942
0.00800121
0.00789599
0.00779391
0.00769514
0.00759978
0.00750798
0.00741983
0.00733541
0.00725481
0.00717807
0.00710524
0.00703634
0.00697139
0.00691039
0.00685332
0.00680016
0.00675086
0.00670538
0.00666366
0.00662563
0.0065912
0.00656031
0.00653284
0.00650871
0.00648781
0.00647003
0.00645526
0.00644338
0.00643427
0.00642781
0.00642388
0.00642235
0.0064231
0.006426
0.00643091
0.00643772
0.00644629
0.00645649
0.00646818
0.0064812
0.00649542
0.00651065
0.0065267
0.00654333
0.00656022
0.00657693
0.00659279
0.0066066
0.00661607
)
;

boundaryField
{
    boundary
    {
        type            empty;
    }
    inlet
    {
        type            fixedValue;
        value           uniform 0.226269;
    }
    outlet
    {
        type            zeroGradient;
    }
}


// ************************************************************************* //
