/*--------------------------------*- C++ -*----------------------------------*\
  =========                 |
  \\      /  F ield         | OpenFOAM: The Open Source CFD Toolbox
   \\    /   O peration     | Website:  https://openfoam.org
    \\  /    A nd           | Version:  7
     \\/     M anipulation  |
\*---------------------------------------------------------------------------*/
FoamFile
{
    version     2.0;
    format      ascii;
    class       volScalarField;
    location    "0.00047";
    object      OH;
}
// * * * * * * * * * * * * * * * * * * * * * * * * * * * * * * * * * * * * * //

dimensions      [0 0 0 0 0 0 0];

internalField   nonuniform List<scalar> 
500
(
9.39808e-48
1.83292e-47
2.44519e-47
2.86159e-47
3.14498e-47
3.33881e-47
3.47258e-47
3.5662e-47
3.63313e-47
3.68253e-47
3.72068e-47
3.75194e-47
3.77942e-47
3.80539e-47
3.83158e-47
3.85939e-47
3.89002e-47
3.9245e-47
3.96381e-47
4.00884e-47
4.06039e-47
4.11921e-47
4.18592e-47
4.26099e-47
4.34475e-47
4.4373e-47
4.5385e-47
4.64798e-47
4.76507e-47
4.88882e-47
5.01803e-47
5.15127e-47
5.2869e-47
5.42316e-47
5.55823e-47
5.69032e-47
5.81772e-47
5.93889e-47
6.05254e-47
6.15766e-47
6.25353e-47
6.33975e-47
6.41623e-47
6.48316e-47
6.54093e-47
6.59015e-47
6.63153e-47
6.66587e-47
6.69402e-47
6.71681e-47
6.73504e-47
6.74944e-47
6.76069e-47
6.76938e-47
6.77602e-47
6.78103e-47
6.78478e-47
6.78755e-47
6.78959e-47
6.79106e-47
6.79213e-47
6.79289e-47
6.79344e-47
6.79383e-47
6.7941e-47
6.79431e-47
6.79446e-47
6.79457e-47
6.79466e-47
6.79474e-47
6.79481e-47
6.79487e-47
6.79493e-47
6.79499e-47
6.79506e-47
6.79512e-47
6.79519e-47
6.79526e-47
6.79533e-47
6.79541e-47
6.79549e-47
6.79557e-47
6.79566e-47
6.79575e-47
6.79585e-47
6.79595e-47
6.79606e-47
6.79617e-47
6.79629e-47
6.79642e-47
6.79654e-47
6.79668e-47
6.79682e-47
6.79697e-47
6.79712e-47
6.79728e-47
6.79745e-47
6.79762e-47
6.7978e-47
6.79799e-47
6.79818e-47
6.79838e-47
6.79859e-47
6.79881e-47
6.79903e-47
6.79927e-47
6.79951e-47
6.79976e-47
6.80002e-47
6.80028e-47
6.80056e-47
6.80084e-47
6.80114e-47
6.80144e-47
6.80175e-47
6.80207e-47
6.8024e-47
6.80274e-47
6.80309e-47
6.80345e-47
6.80381e-47
6.80418e-47
6.80452e-47
6.80473e-47
6.80449e-47
6.80397e-47
6.80477e-47
6.80559e-47
6.80638e-47
6.8071e-47
6.80776e-47
6.80835e-47
6.8089e-47
6.80941e-47
6.80991e-47
6.81039e-47
6.81088e-47
6.81137e-47
6.81186e-47
6.81236e-47
6.81286e-47
6.81337e-47
6.81388e-47
6.81439e-47
6.8149e-47
6.81542e-47
6.81594e-47
6.81647e-47
6.817e-47
6.81754e-47
6.81809e-47
6.81866e-47
6.81923e-47
6.81982e-47
6.82042e-47
6.82104e-47
6.82166e-47
6.8223e-47
6.82294e-47
6.82358e-47
6.82423e-47
6.82488e-47
6.82552e-47
6.82615e-47
6.82678e-47
6.82739e-47
6.82798e-47
6.82856e-47
6.82912e-47
6.82965e-47
6.83017e-47
6.83065e-47
6.83112e-47
6.83155e-47
6.83196e-47
6.83233e-47
6.83268e-47
6.83299e-47
6.83327e-47
6.83351e-47
6.83372e-47
6.83388e-47
6.83401e-47
6.83409e-47
6.83412e-47
6.83411e-47
6.83405e-47
6.83394e-47
6.83377e-47
6.83354e-47
6.83326e-47
6.83291e-47
6.83249e-47
6.83201e-47
6.83146e-47
6.83083e-47
6.83013e-47
6.82935e-47
6.82848e-47
6.82754e-47
6.82653e-47
6.82552e-47
6.82487e-47
6.82624e-47
6.83738e-47
6.89409e-47
7.16022e-47
8.37898e-47
1.38924e-46
3.85954e-46
1.48283e-45
6.30979e-45
2.73615e-44
1.18347e-43
5.08026e-43
2.16173e-42
9.11523e-42
3.80833e-41
1.57642e-40
6.46486e-40
2.62649e-39
1.05707e-38
4.21432e-38
1.66432e-37
6.51061e-37
2.52276e-36
9.68278e-36
3.68125e-35
1.38634e-34
5.17181e-34
1.91131e-33
6.99788e-33
2.53856e-32
9.1252e-32
3.25081e-31
1.14791e-30
4.01859e-30
1.39507e-29
4.80389e-29
1.64143e-28
5.5677e-28
1.87592e-27
6.28331e-27
2.09456e-26
6.95999e-26
2.31028e-25
7.68234e-25
2.56851e-24
8.67311e-24
2.97336e-23
1.04079e-22
3.7673e-22
1.40067e-21
5.37086e-21
2.12884e-20
8.70702e-20
3.66023e-19
1.57374e-18
6.88665e-18
3.05377e-17
1.36732e-16
6.16471e-16
2.79303e-15
1.26974e-14
5.78582e-14
2.64057e-13
1.20635e-12
5.51462e-12
2.52174e-11
1.1533e-10
5.33277e-10
2.49133e-09
1.17183e-08
5.5633e-08
2.72554e-07
1.46531e-06
9.30223e-06
6.32602e-05
0.000303131
0.000660072
0.000848509
0.00104299
0.00153391
0.00246312
0.00373577
0.00511931
0.00657093
0.00768316
0.00857272
0.00927006
0.00981289
0.0102366
0.0105698
0.0108342
0.0110458
0.0112164
0.0113546
0.011467
0.0115582
0.0116321
0.0116916
0.0117389
0.011776
0.0118043
0.0118251
0.0118393
0.011848
0.0118517
0.0118511
0.0118468
0.0118391
0.0118285
0.0118158
0.0118014
0.0117852
0.0117673
0.011748
0.0117272
0.0117052
0.011682
0.0116578
0.0116327
0.0116067
0.0115799
0.0115524
0.0115243
0.0114956
0.0114663
0.0114366
0.0114065
0.011376
0.0113451
0.0113139
0.0112825
0.0112509
0.0112191
0.0111871
0.011155
0.0111227
0.0110904
0.0110581
0.0110257
0.0109932
0.0109608
0.0109284
0.010896
0.0108636
0.0108313
0.0107991
0.0107669
0.0107348
0.0107028
0.0106709
0.0106391
0.0106074
0.0105758
0.0105444
0.010513
0.0104818
0.0104507
0.0104197
0.0103889
0.0103582
0.0103276
0.0102972
0.0102669
0.0102368
0.0102068
0.010177
0.0101473
0.0101178
0.0100884
0.0100591
0.0100299
0.0100009
0.00997188
0.00994303
0.00991432
0.00988578
0.00985738
0.00982911
0.00980096
0.00977292
0.009745
0.00971718
0.00968946
0.00966183
0.00963429
0.00960682
0.00957942
0.00955206
0.00952477
0.00949753
0.00947045
0.0094433
0.00941171
0.00938522
0.00935817
0.00933079
0.00930317
0.00927533
0.00924728
0.00921902
0.00919052
0.00916176
0.00913272
0.00910337
0.0090737
0.00904366
0.00901324
0.00898241
0.00895113
0.00891939
0.00888715
0.0088544
0.0088211
0.00878724
0.00875279
0.00871775
0.00868209
0.0086458
0.00860888
0.00857131
0.00853311
0.00849427
0.00845481
0.00841473
0.00837405
0.0083328
0.00829101
0.00824871
0.00820594
0.00816274
0.00811917
0.00807528
0.00803113
0.00798678
0.00794231
0.00789779
0.00785329
0.00780889
0.00776467
0.00772072
0.00767711
0.00763393
0.00759125
0.00754917
0.00750776
0.00746708
0.00742722
0.00738823
0.00735017
0.00731311
0.00727708
0.00724212
0.00720827
0.00717555
0.00714398
0.00711356
0.0070843
0.00705617
0.00702917
0.00700327
0.00697843
0.00695461
0.00693176
0.00690984
0.00688877
0.0068685
0.00684895
0.00683005
0.00681172
0.0067939
0.0067765
0.00675944
0.00674264
0.00672605
0.00670957
0.00669315
0.00667673
0.00666024
0.00664364
0.00662687
0.00660992
0.00659274
0.00657533
0.00655769
0.00653981
0.00652174
0.00650352
0.00648522
0.00646696
0.00644887
0.00643116
0.00641411
0.00639806
0.00638348
0.00637096
0.00636127
0.00635545
)
;

boundaryField
{
    boundary
    {
        type            empty;
    }
    inlet
    {
        type            fixedValue;
        value           uniform 0;
    }
    outlet
    {
        type            zeroGradient;
    }
}


// ************************************************************************* //
