/*--------------------------------*- C++ -*----------------------------------*\
  =========                 |
  \\      /  F ield         | OpenFOAM: The Open Source CFD Toolbox
   \\    /   O peration     | Website:  https://openfoam.org
    \\  /    A nd           | Version:  7
     \\/     M anipulation  |
\*---------------------------------------------------------------------------*/
FoamFile
{
    version     2.0;
    format      ascii;
    class       volScalarField;
    location    "0.00047";
    object      Qdot;
}
// * * * * * * * * * * * * * * * * * * * * * * * * * * * * * * * * * * * * * //

dimensions      [1 -1 -3 0 0 0 0];

internalField   nonuniform List<scalar> 
500
(
-2.45623e-27
-1.86865e-27
-1.74377e-27
-1.71863e-27
-1.71503e-27
-1.71614e-27
-1.71835e-27
-1.72089e-27
-1.72367e-27
-1.72672e-27
-1.73013e-27
-1.73403e-27
-1.73856e-27
-1.74388e-27
-1.75018e-27
-1.75767e-27
-1.76656e-27
-1.7771e-27
-1.78953e-27
-1.8041e-27
-1.82106e-27
-1.84061e-27
-1.86294e-27
-1.8882e-27
-1.91645e-27
-1.9477e-27
-1.98189e-27
-2.01885e-27
-2.05833e-27
-2.09999e-27
-2.14338e-27
-2.18801e-27
-2.23332e-27
-2.27869e-27
-2.32353e-27
-2.36722e-27
-2.40922e-27
-2.44902e-27
-2.48621e-27
-2.52048e-27
-2.55162e-27
-2.57952e-27
-2.60419e-27
-2.62569e-27
-2.64419e-27
-2.65989e-27
-2.67306e-27
-2.68395e-27
-2.69284e-27
-2.70003e-27
-2.70576e-27
-2.71027e-27
-2.71379e-27
-2.7165e-27
-2.71857e-27
-2.72012e-27
-2.72129e-27
-2.72214e-27
-2.72277e-27
-2.72323e-27
-2.72355e-27
-2.72379e-27
-2.72396e-27
-2.72408e-27
-2.72416e-27
-2.72423e-27
-2.72427e-27
-2.72431e-27
-2.72434e-27
-2.72436e-27
-2.72438e-27
-2.7244e-27
-2.72442e-27
-2.72445e-27
-2.72447e-27
-2.72449e-27
-2.72451e-27
-2.72453e-27
-2.72456e-27
-2.72458e-27
-2.72461e-27
-2.72464e-27
-2.72467e-27
-2.7247e-27
-2.72473e-27
-2.72476e-27
-2.7248e-27
-2.72483e-27
-2.72487e-27
-2.72491e-27
-2.72496e-27
-2.725e-27
-2.72505e-27
-2.72509e-27
-2.72514e-27
-2.7252e-27
-2.72525e-27
-2.72531e-27
-2.72536e-27
-2.72543e-27
-2.72549e-27
-2.72555e-27
-2.72562e-27
-2.72569e-27
-2.72577e-27
-2.72584e-27
-2.72592e-27
-2.726e-27
-2.72609e-27
-2.72617e-27
-2.72626e-27
-2.72635e-27
-2.72645e-27
-2.72655e-27
-2.72665e-27
-2.72675e-27
-2.72686e-27
-2.72697e-27
-2.72708e-27
-2.7272e-27
-2.72732e-27
-2.72744e-27
-2.72756e-27
-2.72766e-27
-2.72762e-27
-2.72751e-27
-2.72786e-27
-2.72813e-27
-2.72835e-27
-2.72854e-27
-2.7287e-27
-2.72885e-27
-2.729e-27
-2.72915e-27
-2.7293e-27
-2.72945e-27
-2.72961e-27
-2.72977e-27
-2.72993e-27
-2.73009e-27
-2.73026e-27
-2.73042e-27
-2.73059e-27
-2.73076e-27
-2.73092e-27
-2.73109e-27
-2.73127e-27
-2.73144e-27
-2.73161e-27
-2.73179e-27
-2.73197e-27
-2.73216e-27
-2.73235e-27
-2.73254e-27
-2.73273e-27
-2.73293e-27
-2.73313e-27
-2.73333e-27
-2.73353e-27
-2.73374e-27
-2.73394e-27
-2.73415e-27
-2.73435e-27
-2.73455e-27
-2.73475e-27
-2.73494e-27
-2.73513e-27
-2.73531e-27
-2.73549e-27
-2.73566e-27
-2.73582e-27
-2.73597e-27
-2.73612e-27
-2.73626e-27
-2.73639e-27
-2.73651e-27
-2.73662e-27
-2.73672e-27
-2.7368e-27
-2.73688e-27
-2.73695e-27
-2.737e-27
-2.73704e-27
-2.73706e-27
-2.73708e-27
-2.73707e-27
-2.73705e-27
-2.73701e-27
-2.73696e-27
-2.73689e-27
-2.73679e-27
-2.73668e-27
-2.73655e-27
-2.73639e-27
-2.73621e-27
-2.73601e-27
-2.73578e-27
-2.73553e-27
-2.73525e-27
-2.73495e-27
-2.73461e-27
-2.73425e-27
-2.73386e-27
-2.73343e-27
-2.73298e-27
-2.73249e-27
-2.73196e-27
-2.73141e-27
-2.73081e-27
-2.73018e-27
-2.72952e-27
-2.72881e-27
-2.72804e-27
-2.72715e-27
-2.72585e-27
-2.72301e-27
-2.71377e-27
-2.67814e-27
-2.53415e-27
-1.94907e-27
4.15284e-28
9.88931e-27
4.75037e-26
1.95441e-25
7.71776e-25
2.99578e-24
1.14965e-23
4.36807e-23
1.64378e-22
6.12754e-22
2.26279e-21
8.27844e-21
3.00077e-20
1.07781e-19
3.83643e-19
1.35347e-18
4.73344e-18
1.64133e-17
5.64414e-17
1.92528e-16
6.51667e-16
2.18961e-15
7.30734e-15
2.424e-14
8.00106e-14
2.63169e-13
8.64249e-13
2.841e-12
9.37894e-12
3.12221e-11
1.05333e-10
3.64077e-10
1.28529e-09
4.6618e-09
1.74746e-08
6.78385e-08
2.72485e-07
1.12862e-06
4.79768e-06
2.08235e-05
9.18459e-05
0.000410068
0.00184788
0.00838831
0.038321
0.176173
0.815839
3.81402
18.0674
92.2624
517.7
3493.15
26338.2
219501
2.027e+06
1.93593e+07
1.7636e+08
1.2755e+09
5.26937e+09
1.09058e+10
1.35139e+10
1.38977e+10
1.39367e+10
1.37474e+10
1.28259e+10
1.10855e+10
9.05121e+09
7.34792e+09
6.06307e+09
5.0789e+09
4.3298e+09
3.75206e+09
3.29797e+09
2.93384e+09
2.63624e+09
2.3888e+09
2.17999e+09
2.00149e+09
1.84722e+09
1.71262e+09
1.59422e+09
1.48932e+09
1.39578e+09
1.31193e+09
1.23636e+09
1.16798e+09
1.10582e+09
1.04913e+09
9.97235e+08
9.49601e+08
9.05772e+08
8.65417e+08
8.29156e+08
7.96008e+08
7.64871e+08
7.35682e+08
7.08247e+08
6.82414e+08
6.58059e+08
6.35054e+08
6.13299e+08
5.92703e+08
5.73177e+08
5.54645e+08
5.37037e+08
5.20291e+08
5.04348e+08
4.89154e+08
4.74661e+08
4.60825e+08
4.47604e+08
4.34961e+08
4.22862e+08
4.11274e+08
4.00168e+08
3.89516e+08
3.79293e+08
3.69476e+08
3.60042e+08
3.50971e+08
3.42245e+08
3.33844e+08
3.25753e+08
3.17956e+08
3.10439e+08
3.03188e+08
2.96189e+08
2.89432e+08
2.82904e+08
2.76595e+08
2.70496e+08
2.64595e+08
2.58886e+08
2.53358e+08
2.48005e+08
2.42819e+08
2.37792e+08
2.32918e+08
2.28191e+08
2.23604e+08
2.19153e+08
2.14831e+08
2.10633e+08
2.06556e+08
2.02593e+08
1.98742e+08
1.94997e+08
1.91354e+08
1.87812e+08
1.84364e+08
1.8101e+08
1.77745e+08
1.74569e+08
1.7148e+08
1.68485e+08
1.65593e+08
1.62757e+08
1.59908e+08
1.57148e+08
1.54467e+08
1.51855e+08
1.4931e+08
1.46826e+08
1.44402e+08
1.42036e+08
1.39726e+08
1.37469e+08
1.35265e+08
1.33115e+08
1.31024e+08
1.28994e+08
1.27e+08
1.25045e+08
1.23393e+08
1.20655e+08
1.19025e+08
1.17318e+08
1.15596e+08
1.13884e+08
1.12194e+08
1.10531e+08
1.08897e+08
1.07294e+08
1.0572e+08
1.04175e+08
1.02659e+08
1.01171e+08
9.97096e+07
9.82739e+07
9.6863e+07
9.54759e+07
9.41113e+07
9.27689e+07
9.14472e+07
9.01454e+07
8.88625e+07
8.75974e+07
8.63493e+07
8.5117e+07
8.38997e+07
8.26963e+07
8.15058e+07
8.03273e+07
7.91597e+07
7.80028e+07
7.68542e+07
7.57139e+07
7.45809e+07
7.34542e+07
7.23329e+07
7.12162e+07
7.01033e+07
6.89933e+07
6.78857e+07
6.67796e+07
6.56744e+07
6.45696e+07
6.34648e+07
6.23583e+07
6.12521e+07
6.01443e+07
5.90349e+07
5.79237e+07
5.68106e+07
5.56957e+07
5.4579e+07
5.34606e+07
5.23406e+07
5.12195e+07
5.00974e+07
4.89747e+07
4.7852e+07
4.67296e+07
4.56084e+07
4.44876e+07
4.33695e+07
4.2254e+07
4.11416e+07
4.00332e+07
3.89292e+07
3.78305e+07
3.67377e+07
3.56515e+07
3.45726e+07
3.35018e+07
3.24397e+07
3.13871e+07
3.03447e+07
2.93133e+07
2.82937e+07
2.72866e+07
2.62929e+07
2.53133e+07
2.43487e+07
2.33999e+07
2.24675e+07
2.15524e+07
2.06555e+07
1.97774e+07
1.89189e+07
1.80806e+07
1.7263e+07
1.64668e+07
1.56924e+07
1.49401e+07
1.42103e+07
1.35031e+07
1.28182e+07
1.21559e+07
1.15156e+07
1.0897e+07
1.02995e+07
9.72131e+06
9.16184e+06
8.61898e+06
8.09063e+06
7.57482e+06
7.07297e+06
6.59942e+06
6.23348e+06
)
;

boundaryField
{
    boundary
    {
        type            empty;
    }
    inlet
    {
        type            calculated;
        value           uniform 0;
    }
    outlet
    {
        type            calculated;
        value           uniform 0;
    }
}


// ************************************************************************* //
