/*--------------------------------*- C++ -*----------------------------------*\
  =========                 |
  \\      /  F ield         | OpenFOAM: The Open Source CFD Toolbox
   \\    /   O peration     | Website:  https://openfoam.org
    \\  /    A nd           | Version:  7
     \\/     M anipulation  |
\*---------------------------------------------------------------------------*/
FoamFile
{
    version     2.0;
    format      ascii;
    class       volScalarField;
    location    "0.00047";
    object      T;
}
// * * * * * * * * * * * * * * * * * * * * * * * * * * * * * * * * * * * * * //

dimensions      [0 0 0 1 0 0 0];

internalField   nonuniform List<scalar> 
500
(
300.003
300.008
300.012
300.017
300.021
300.026
300.031
300.036
300.041
300.047
300.054
300.061
300.07
300.08
300.092
300.106
300.123
300.142
300.166
300.192
300.223
300.259
300.299
300.344
300.393
300.446
300.504
300.566
300.63
300.697
300.765
300.834
300.902
300.969
301.035
301.097
301.156
301.211
301.262
301.308
301.35
301.387
301.419
301.447
301.471
301.491
301.508
301.522
301.534
301.543
301.55
301.556
301.56
301.564
301.567
301.569
301.57
301.571
301.572
301.573
301.573
301.573
301.574
301.574
301.574
301.574
301.574
301.574
301.574
301.574
301.574
301.574
301.574
301.574
301.574
301.574
301.574
301.574
301.574
301.574
301.574
301.574
301.575
301.575
301.575
301.575
301.575
301.575
301.575
301.575
301.575
301.575
301.575
301.575
301.575
301.575
301.575
301.575
301.575
301.575
301.576
301.576
301.576
301.576
301.576
301.576
301.576
301.576
301.576
301.576
301.577
301.577
301.577
301.577
301.577
301.577
301.577
301.577
301.578
301.578
301.578
301.578
301.578
301.578
301.578
301.578
301.578
301.579
301.579
301.579
301.58
301.58
301.58
301.58
301.58
301.58
301.581
301.581
301.581
301.581
301.581
301.582
301.582
301.582
301.582
301.582
301.583
301.583
301.583
301.583
301.584
301.584
301.584
301.584
301.584
301.585
301.585
301.585
301.585
301.586
301.586
301.586
301.586
301.587
301.587
301.587
301.587
301.588
301.588
301.588
301.588
301.588
301.589
301.589
301.589
301.589
301.589
301.589
301.59
301.59
301.59
301.59
301.59
301.59
301.59
301.59
301.59
301.59
301.59
301.59
301.59
301.589
301.589
301.589
301.589
301.589
301.588
301.588
301.588
301.587
301.587
301.586
301.586
301.585
301.585
301.584
301.584
301.583
301.582
301.581
301.581
301.58
301.579
301.578
301.577
301.576
301.575
301.573
301.572
301.571
301.57
301.568
301.567
301.565
301.564
301.562
301.561
301.559
301.557
301.555
301.553
301.551
301.549
301.547
301.545
301.543
301.541
301.538
301.536
301.534
301.531
301.529
301.526
301.524
301.521
301.518
301.516
301.513
301.51
301.507
301.504
301.501
301.498
301.495
301.492
301.489
301.486
301.483
301.48
301.477
301.474
301.47
301.467
301.464
301.461
301.458
301.455
301.453
301.456
301.468
301.508
301.629
301.981
302.99
305.878
314.087
336.64
391.553
495.683
639.907
795.482
945.751
1086.54
1213.76
1320.91
1412.18
1489.36
1550.69
1599.47
1640.92
1676.62
1707.84
1735.5
1760.27
1782.66
1803.04
1821.72
1838.94
1854.88
1869.71
1883.54
1896.5
1908.67
1920.14
1930.96
1941.2
1950.92
1960.14
1968.92
1977.29
1985.27
1992.88
1999.95
2006.59
2013.03
2019.24
2025.25
2031.07
2036.71
2042.17
2047.47
2052.61
2057.6
2062.46
2067.18
2071.77
2076.23
2080.59
2084.83
2088.96
2092.99
2096.92
2100.76
2104.51
2108.17
2111.75
2115.25
2118.67
2122.02
2125.3
2128.5
2131.65
2134.73
2137.74
2140.7
2143.6
2146.44
2149.24
2151.97
2154.66
2157.3
2159.89
2162.44
2164.94
2167.4
2169.82
2172.2
2174.53
2176.83
2179.09
2181.32
2183.51
2185.66
2187.78
2189.87
2191.93
2193.96
2195.95
2197.92
2199.86
2201.77
2203.65
2205.51
2207.33
2209.13
2210.9
2212.65
2214.38
2216.09
2217.78
2219.45
2221.09
2222.71
2224.31
2225.89
2227.45
2228.98
2230.5
2231.99
2233.46
2234.9
2236.33
2237.73
2239.15
2240.51
2242.08
2243.35
2244.62
2245.89
2247.14
2248.37
2249.59
2250.78
2251.95
2253.1
2254.22
2255.32
2256.39
2257.43
2258.45
2259.44
2260.41
2261.35
2262.26
2263.14
2264
2264.83
2265.63
2266.41
2267.17
2267.9
2268.61
2269.31
2269.98
2270.64
2271.28
2271.92
2272.54
2273.17
2273.79
2274.42
2275.05
2275.69
2276.36
2277.04
2277.75
2278.49
2279.27
2280.1
2280.97
2281.89
2282.88
2283.93
2285.05
2286.24
2287.52
2288.88
2290.32
2291.86
2293.49
2295.22
2297.04
2298.96
2300.98
2303.09
2305.31
2307.61
2310
2312.48
2315.04
2317.68
2320.38
2323.14
2325.96
2328.82
2331.71
2334.64
2337.58
2340.52
2343.47
2346.4
2349.3
2352.18
2355.01
2357.78
2360.5
2363.15
2365.71
2368.2
2370.59
2372.88
2375.08
2377.16
2379.14
2381.01
2382.76
2384.4
2385.92
2387.33
2388.62
2389.81
2390.89
2391.86
2392.73
2393.51
2394.19
2394.78
2395.28
2395.68
2395.91
)
;

boundaryField
{
    boundary
    {
        type            empty;
    }
    inlet
    {
        type            fixedValue;
        value           uniform 300;
    }
    outlet
    {
        type            zeroGradient;
    }
}


// ************************************************************************* //
