/*--------------------------------*- C++ -*----------------------------------*\
  =========                 |
  \\      /  F ield         | OpenFOAM: The Open Source CFD Toolbox
   \\    /   O peration     | Website:  https://openfoam.org
    \\  /    A nd           | Version:  7
     \\/     M anipulation  |
\*---------------------------------------------------------------------------*/
FoamFile
{
    version     2.0;
    format      ascii;
    class       volVectorField;
    location    "0.00047";
    object      U;
}
// * * * * * * * * * * * * * * * * * * * * * * * * * * * * * * * * * * * * * //

dimensions      [0 1 -1 0 0 0 0];

internalField   nonuniform List<vector> 
500
(
(2.34891 0 0)
(2.34879 0 0)
(2.34867 0 0)
(2.34856 0 0)
(2.34845 0 0)
(2.34834 0 0)
(2.34823 0 0)
(2.34813 0 0)
(2.34802 0 0)
(2.34792 0 0)
(2.34782 0 0)
(2.34772 0 0)
(2.34762 0 0)
(2.34752 0 0)
(2.34743 0 0)
(2.34734 0 0)
(2.34726 0 0)
(2.34718 0 0)
(2.3471 0 0)
(2.34703 0 0)
(2.34695 0 0)
(2.34688 0 0)
(2.34681 0 0)
(2.34675 0 0)
(2.34668 0 0)
(2.34661 0 0)
(2.34653 0 0)
(2.34645 0 0)
(2.34636 0 0)
(2.34627 0 0)
(2.34617 0 0)
(2.34607 0 0)
(2.34595 0 0)
(2.34583 0 0)
(2.3457 0 0)
(2.34557 0 0)
(2.34543 0 0)
(2.34528 0 0)
(2.34514 0 0)
(2.34499 0 0)
(2.34484 0 0)
(2.34469 0 0)
(2.34455 0 0)
(2.34441 0 0)
(2.34426 0 0)
(2.34413 0 0)
(2.34399 0 0)
(2.34386 0 0)
(2.34374 0 0)
(2.34361 0 0)
(2.34349 0 0)
(2.34337 0 0)
(2.34325 0 0)
(2.34314 0 0)
(2.34303 0 0)
(2.34292 0 0)
(2.34281 0 0)
(2.3427 0 0)
(2.34259 0 0)
(2.34248 0 0)
(2.34237 0 0)
(2.34227 0 0)
(2.34216 0 0)
(2.34205 0 0)
(2.34195 0 0)
(2.34184 0 0)
(2.34174 0 0)
(2.34163 0 0)
(2.34153 0 0)
(2.34142 0 0)
(2.34132 0 0)
(2.34121 0 0)
(2.34111 0 0)
(2.341 0 0)
(2.3409 0 0)
(2.34079 0 0)
(2.34069 0 0)
(2.34058 0 0)
(2.34048 0 0)
(2.34038 0 0)
(2.34027 0 0)
(2.34017 0 0)
(2.34006 0 0)
(2.33996 0 0)
(2.33986 0 0)
(2.33975 0 0)
(2.33965 0 0)
(2.33955 0 0)
(2.33944 0 0)
(2.33934 0 0)
(2.33924 0 0)
(2.33914 0 0)
(2.33903 0 0)
(2.33893 0 0)
(2.33883 0 0)
(2.33873 0 0)
(2.33862 0 0)
(2.33852 0 0)
(2.33842 0 0)
(2.33832 0 0)
(2.33822 0 0)
(2.33812 0 0)
(2.33802 0 0)
(2.33791 0 0)
(2.33781 0 0)
(2.33771 0 0)
(2.33761 0 0)
(2.33751 0 0)
(2.33741 0 0)
(2.33731 0 0)
(2.33721 0 0)
(2.33711 0 0)
(2.33701 0 0)
(2.33691 0 0)
(2.33681 0 0)
(2.33671 0 0)
(2.33661 0 0)
(2.33651 0 0)
(2.33641 0 0)
(2.33631 0 0)
(2.33621 0 0)
(2.33611 0 0)
(2.33602 0 0)
(2.33592 0 0)
(2.33581 0 0)
(2.33571 0 0)
(2.33562 0 0)
(2.33552 0 0)
(2.33542 0 0)
(2.33532 0 0)
(2.33523 0 0)
(2.33513 0 0)
(2.33503 0 0)
(2.33493 0 0)
(2.33484 0 0)
(2.33474 0 0)
(2.33464 0 0)
(2.33455 0 0)
(2.33445 0 0)
(2.33435 0 0)
(2.33426 0 0)
(2.33416 0 0)
(2.33407 0 0)
(2.33397 0 0)
(2.33387 0 0)
(2.33378 0 0)
(2.33368 0 0)
(2.33359 0 0)
(2.33349 0 0)
(2.3334 0 0)
(2.3333 0 0)
(2.33321 0 0)
(2.33311 0 0)
(2.33302 0 0)
(2.33293 0 0)
(2.33283 0 0)
(2.33274 0 0)
(2.33264 0 0)
(2.33255 0 0)
(2.33246 0 0)
(2.33236 0 0)
(2.33227 0 0)
(2.33217 0 0)
(2.33208 0 0)
(2.33199 0 0)
(2.3319 0 0)
(2.3318 0 0)
(2.33171 0 0)
(2.33162 0 0)
(2.33152 0 0)
(2.33143 0 0)
(2.33134 0 0)
(2.33125 0 0)
(2.33116 0 0)
(2.33106 0 0)
(2.33097 0 0)
(2.33088 0 0)
(2.33079 0 0)
(2.3307 0 0)
(2.33061 0 0)
(2.33051 0 0)
(2.33042 0 0)
(2.33033 0 0)
(2.33024 0 0)
(2.33015 0 0)
(2.33006 0 0)
(2.32997 0 0)
(2.32988 0 0)
(2.32979 0 0)
(2.3297 0 0)
(2.32961 0 0)
(2.32952 0 0)
(2.32943 0 0)
(2.32934 0 0)
(2.32925 0 0)
(2.32916 0 0)
(2.32907 0 0)
(2.32898 0 0)
(2.32889 0 0)
(2.3288 0 0)
(2.32871 0 0)
(2.32862 0 0)
(2.32853 0 0)
(2.32844 0 0)
(2.32836 0 0)
(2.32827 0 0)
(2.32818 0 0)
(2.32809 0 0)
(2.328 0 0)
(2.32791 0 0)
(2.32782 0 0)
(2.32774 0 0)
(2.32765 0 0)
(2.32756 0 0)
(2.32747 0 0)
(2.32738 0 0)
(2.3273 0 0)
(2.32721 0 0)
(2.32712 0 0)
(2.32703 0 0)
(2.32694 0 0)
(2.32686 0 0)
(2.32677 0 0)
(2.32668 0 0)
(2.32659 0 0)
(2.32651 0 0)
(2.32642 0 0)
(2.32633 0 0)
(2.32625 0 0)
(2.32616 0 0)
(2.32607 0 0)
(2.32599 0 0)
(2.3259 0 0)
(2.32581 0 0)
(2.32573 0 0)
(2.32564 0 0)
(2.32555 0 0)
(2.32547 0 0)
(2.32538 0 0)
(2.3253 0 0)
(2.32521 0 0)
(2.32512 0 0)
(2.32504 0 0)
(2.32495 0 0)
(2.32487 0 0)
(2.32478 0 0)
(2.3247 0 0)
(2.32461 0 0)
(2.32453 0 0)
(2.32444 0 0)
(2.32435 0 0)
(2.32426 0 0)
(2.32418 0 0)
(2.3241 0 0)
(2.32401 0 0)
(2.32393 0 0)
(2.32384 0 0)
(2.32376 0 0)
(2.32368 0 0)
(2.32359 0 0)
(2.32351 0 0)
(2.32343 0 0)
(2.32334 0 0)
(2.32326 0 0)
(2.32317 0 0)
(2.32309 0 0)
(2.323 0 0)
(2.32293 0 0)
(2.32284 0 0)
(2.32284 0 0)
(2.323 0 0)
(2.32378 0 0)
(2.32649 0 0)
(2.33482 0 0)
(2.35796 0 0)
(2.41634 0 0)
(2.55448 0 0)
(2.86309 0 0)
(3.50324 0 0)
(4.53769 0 0)
(5.76576 0 0)
(6.97114 0 0)
(8.0553 0 0)
(8.99536 0 0)
(9.78837 0 0)
(10.4503 0 0)
(11.0003 0 0)
(11.4431 0 0)
(11.7925 0 0)
(12.0775 0 0)
(12.3204 0 0)
(12.5322 0 0)
(12.719 0 0)
(12.8851 0 0)
(13.0343 0 0)
(13.1694 0 0)
(13.2926 0 0)
(13.4057 0 0)
(13.51 0 0)
(13.6066 0 0)
(13.6965 0 0)
(13.7804 0 0)
(13.8589 0 0)
(13.9327 0 0)
(14.0021 0 0)
(14.0677 0 0)
(14.1297 0 0)
(14.1884 0 0)
(14.2442 0 0)
(14.2972 0 0)
(14.3476 0 0)
(14.3956 0 0)
(14.4402 0 0)
(14.4819 0 0)
(14.5222 0 0)
(14.5612 0 0)
(14.5988 0 0)
(14.6352 0 0)
(14.6703 0 0)
(14.7044 0 0)
(14.7373 0 0)
(14.7693 0 0)
(14.8002 0 0)
(14.8303 0 0)
(14.8595 0 0)
(14.8879 0 0)
(14.9155 0 0)
(14.9423 0 0)
(14.9685 0 0)
(14.9939 0 0)
(15.0187 0 0)
(15.0429 0 0)
(15.0664 0 0)
(15.0894 0 0)
(15.1118 0 0)
(15.1337 0 0)
(15.1551 0 0)
(15.176 0 0)
(15.1965 0 0)
(15.2165 0 0)
(15.236 0 0)
(15.2551 0 0)
(15.2738 0 0)
(15.2922 0 0)
(15.3101 0 0)
(15.3277 0 0)
(15.3449 0 0)
(15.3618 0 0)
(15.3784 0 0)
(15.3947 0 0)
(15.4106 0 0)
(15.4262 0 0)
(15.4416 0 0)
(15.4567 0 0)
(15.4715 0 0)
(15.486 0 0)
(15.5003 0 0)
(15.5143 0 0)
(15.5281 0 0)
(15.5417 0 0)
(15.555 0 0)
(15.5681 0 0)
(15.5811 0 0)
(15.5938 0 0)
(15.6062 0 0)
(15.6186 0 0)
(15.6307 0 0)
(15.6426 0 0)
(15.6543 0 0)
(15.6659 0 0)
(15.6773 0 0)
(15.6886 0 0)
(15.6996 0 0)
(15.7105 0 0)
(15.7213 0 0)
(15.7319 0 0)
(15.7423 0 0)
(15.7525 0 0)
(15.7626 0 0)
(15.7727 0 0)
(15.7826 0 0)
(15.7923 0 0)
(15.8019 0 0)
(15.8114 0 0)
(15.8208 0 0)
(15.83 0 0)
(15.8391 0 0)
(15.8481 0 0)
(15.8569 0 0)
(15.8656 0 0)
(15.8743 0 0)
(15.8829 0 0)
(15.8912 0 0)
(15.8997 0 0)
(15.9069 0 0)
(15.9144 0 0)
(15.9234 0 0)
(15.9318 0 0)
(15.9397 0 0)
(15.9475 0 0)
(15.9552 0 0)
(15.9627 0 0)
(15.9702 0 0)
(15.9776 0 0)
(15.9848 0 0)
(15.992 0 0)
(15.9991 0 0)
(16.0061 0 0)
(16.0131 0 0)
(16.0199 0 0)
(16.0267 0 0)
(16.0334 0 0)
(16.04 0 0)
(16.0465 0 0)
(16.053 0 0)
(16.0594 0 0)
(16.0658 0 0)
(16.072 0 0)
(16.0783 0 0)
(16.0844 0 0)
(16.0905 0 0)
(16.0965 0 0)
(16.1025 0 0)
(16.1085 0 0)
(16.1144 0 0)
(16.1202 0 0)
(16.126 0 0)
(16.1318 0 0)
(16.1375 0 0)
(16.1432 0 0)
(16.1489 0 0)
(16.1545 0 0)
(16.1601 0 0)
(16.1657 0 0)
(16.1712 0 0)
(16.1768 0 0)
(16.1823 0 0)
(16.1877 0 0)
(16.1932 0 0)
(16.1986 0 0)
(16.2039 0 0)
(16.2093 0 0)
(16.2146 0 0)
(16.2198 0 0)
(16.2251 0 0)
(16.2302 0 0)
(16.2353 0 0)
(16.2404 0 0)
(16.2453 0 0)
(16.2502 0 0)
(16.2551 0 0)
(16.2598 0 0)
(16.2644 0 0)
(16.2689 0 0)
(16.2733 0 0)
(16.2776 0 0)
(16.2817 0 0)
(16.2857 0 0)
(16.2896 0 0)
(16.2933 0 0)
(16.2968 0 0)
(16.3002 0 0)
(16.3033 0 0)
(16.3063 0 0)
(16.3092 0 0)
(16.3118 0 0)
(16.3143 0 0)
(16.3165 0 0)
(16.3186 0 0)
(16.3205 0 0)
(16.3222 0 0)
(16.3237 0 0)
(16.325 0 0)
(16.3262 0 0)
(16.3272 0 0)
(16.3281 0 0)
(16.3288 0 0)
(16.3294 0 0)
(16.3299 0 0)
(16.3302 0 0)
(16.3305 0 0)
(16.3306 0 0)
(16.3307 0 0)
(16.3307 0 0)
(16.3307 0 0)
(16.3306 0 0)
(16.3305 0 0)
(16.3304 0 0)
(16.3303 0 0)
(16.3302 0 0)
(16.3302 0 0)
(16.3302 0 0)
(16.3303 0 0)
(16.3306 0 0)
(16.331 0 0)
(16.3317 0 0)
(16.3326 0 0)
(16.3339 0 0)
(16.3356 0 0)
(16.338 0 0)
)
;

boundaryField
{
    boundary
    {
        type            empty;
    }
    inlet
    {
        type            fixedValue;
        value           uniform (2.34893 0 0);
    }
    outlet
    {
        type            zeroGradient;
    }
}


// ************************************************************************* //
