/*--------------------------------*- C++ -*----------------------------------*\
  =========                 |
  \\      /  F ield         | OpenFOAM: The Open Source CFD Toolbox
   \\    /   O peration     | Website:  https://openfoam.org
    \\  /    A nd           | Version:  7
     \\/     M anipulation  |
\*---------------------------------------------------------------------------*/
FoamFile
{
    version     2.0;
    format      ascii;
    class       volScalarField;
    location    "0.0004";
    object      H;
}
// * * * * * * * * * * * * * * * * * * * * * * * * * * * * * * * * * * * * * //

dimensions      [0 0 0 0 0 0 0];

internalField   nonuniform List<scalar> 
500
(
1.4872e-41
2.01654e-41
2.13294e-41
2.16045e-41
2.16902e-41
2.17383e-41
2.17826e-41
2.18318e-41
2.18893e-41
2.19578e-41
2.20403e-41
2.21398e-41
2.226e-41
2.24049e-41
2.25786e-41
2.27852e-41
2.30288e-41
2.33129e-41
2.36406e-41
2.40139e-41
2.44337e-41
2.48998e-41
2.54102e-41
2.59612e-41
2.65477e-41
2.71628e-41
2.77983e-41
2.84448e-41
2.90923e-41
2.97305e-41
3.03496e-41
3.09405e-41
3.14952e-41
3.20075e-41
3.2473e-41
3.28891e-41
3.32552e-41
3.35722e-41
3.38424e-41
3.40692e-41
3.42567e-41
3.44095e-41
3.45322e-41
3.46294e-41
3.47053e-41
3.47637e-41
3.48082e-41
3.48416e-41
3.48663e-41
3.48844e-41
3.48975e-41
3.49069e-41
3.49136e-41
3.49183e-41
3.49215e-41
3.49238e-41
3.49254e-41
3.49265e-41
3.49273e-41
3.49279e-41
3.49283e-41
3.49287e-41
3.4929e-41
3.49293e-41
3.49296e-41
3.49298e-41
3.49301e-41
3.49303e-41
3.49306e-41
3.49309e-41
3.49312e-41
3.49315e-41
3.49319e-41
3.49322e-41
3.49326e-41
3.4933e-41
3.49334e-41
3.49338e-41
3.49342e-41
3.49347e-41
3.49352e-41
3.49357e-41
3.49362e-41
3.49367e-41
3.49373e-41
3.49379e-41
3.49385e-41
3.49392e-41
3.49398e-41
3.49405e-41
3.49413e-41
3.4942e-41
3.49428e-41
3.49436e-41
3.49444e-41
3.49453e-41
3.49462e-41
3.49472e-41
3.49481e-41
3.49491e-41
3.49502e-41
3.49512e-41
3.49523e-41
3.49535e-41
3.49547e-41
3.49559e-41
3.49571e-41
3.49584e-41
3.49598e-41
3.49611e-41
3.49625e-41
3.4964e-41
3.49655e-41
3.4967e-41
3.49686e-41
3.49702e-41
3.49718e-41
3.49735e-41
3.49753e-41
3.4977e-41
3.49789e-41
3.49807e-41
3.49826e-41
3.49846e-41
3.49868e-41
3.49891e-41
3.49908e-41
3.49927e-41
3.49946e-41
3.49967e-41
3.49989e-41
3.5001e-41
3.50032e-41
3.50055e-41
3.50077e-41
3.50099e-41
3.50121e-41
3.50144e-41
3.50166e-41
3.50189e-41
3.50211e-41
3.50234e-41
3.50257e-41
3.5028e-41
3.50304e-41
3.50327e-41
3.50352e-41
3.50377e-41
3.50402e-41
3.50429e-41
3.50455e-41
3.50482e-41
3.5051e-41
3.50538e-41
3.50566e-41
3.50594e-41
3.50622e-41
3.5065e-41
3.50677e-41
3.50704e-41
3.50731e-41
3.50757e-41
3.50781e-41
3.50805e-41
3.50829e-41
3.50851e-41
3.50872e-41
3.50892e-41
3.50911e-41
3.50929e-41
3.50945e-41
3.50961e-41
3.50974e-41
3.50987e-41
3.50998e-41
3.51007e-41
3.51015e-41
3.51021e-41
3.51025e-41
3.51028e-41
3.51028e-41
3.51026e-41
3.51022e-41
3.51016e-41
3.51007e-41
3.50996e-41
3.50982e-41
3.50965e-41
3.50945e-41
3.50922e-41
3.50896e-41
3.50867e-41
3.50835e-41
3.50798e-41
3.50759e-41
3.50715e-41
3.50668e-41
3.50617e-41
3.50561e-41
3.50501e-41
3.50437e-41
3.50368e-41
3.50295e-41
3.50217e-41
3.50134e-41
3.50046e-41
3.49953e-41
3.49855e-41
3.49752e-41
3.49643e-41
3.49528e-41
3.49409e-41
3.49283e-41
3.49152e-41
3.49015e-41
3.48874e-41
3.48733e-41
3.48615e-41
3.48622e-41
3.49205e-41
3.52344e-41
3.66641e-41
4.2908e-41
6.97028e-41
1.83307e-40
6.59762e-40
2.6369e-39
1.07548e-38
4.37333e-38
1.76282e-37
7.03344e-37
2.77676e-36
1.08462e-35
4.19161e-35
1.60274e-34
6.06383e-34
2.27027e-33
8.41228e-33
3.08562e-32
1.12068e-31
4.03174e-31
1.43743e-30
5.08224e-30
1.78349e-29
6.21915e-29
2.15811e-28
7.46648e-28
2.58164e-27
8.94781e-27
3.12017e-26
1.09951e-25
3.94161e-25
1.44486e-24
5.43879e-24
2.10812e-23
8.41977e-23
3.46023e-22
1.45873e-21
6.28341e-21
2.75435e-20
1.22442e-19
5.50558e-19
2.50025e-18
1.14647e-17
5.31406e-17
2.49657e-16
1.19414e-15
5.85173e-15
2.96069e-14
1.55916e-13
8.82907e-13
5.88811e-12
5.14824e-11
5.01049e-10
4.67641e-09
4.36896e-08
3.95809e-07
3.24302e-06
2.13108e-05
9.53102e-05
0.000265743
0.000528306
0.000862287
0.00122599
0.00154982
0.00177657
0.00189673
0.00192873
0.0019047
0.00184916
0.00177858
0.00170286
0.00162751
0.00155537
0.00148769
0.00142487
0.00136684
0.00131334
0.001264
0.00121843
0.00117626
0.00113713
0.00110075
0.00106682
0.00103511
0.00100541
0.00097752
0.00095128
0.000926542
0.000903178
0.000881074
0.000860128
0.000840833
0.000822884
0.000805683
0.000789184
0.000773342
0.000758119
0.000743477
0.000729382
0.000715803
0.000702711
0.000690079
0.000677883
0.000666099
0.000654705
0.000643684
0.000633014
0.000622681
0.000612666
0.000602956
0.000593537
0.000584394
0.000575516
0.000566892
0.00055851
0.000550359
0.000542432
0.000534717
0.000527208
0.000519895
0.000512771
0.000505829
0.000499062
0.000492463
0.000486027
0.000479747
0.000473619
0.000467636
0.000461794
0.000456088
0.000450515
0.000445068
0.000439746
0.000434543
0.000429456
0.000424481
0.000419616
0.000414857
0.000410202
0.000405647
0.00040119
0.000396829
0.000392561
0.000388385
0.000384297
0.000380297
0.000376383
0.000372552
0.000368805
0.000365138
0.000361551
0.000358041
0.000354605
0.00035124
0.000347939
0.00034469
0.000341489
0.000338343
0.000335253
0.000332218
0.00032924
0.000326316
0.000323447
0.00032063
0.000317866
0.000315152
0.000312487
0.000309871
0.000307301
0.000304776
0.000302295
0.000299856
0.000297458
0.000295099
0.000292778
0.000290493
0.000288242
0.000286024
0.000283838
0.00028168
0.00027955
0.000277445
0.000275364
0.000273306
0.000271267
0.000269246
0.000267242
0.000265251
0.000263273
0.000261305
0.000259346
0.000257393
0.000255444
0.000253499
0.000251553
0.000249607
0.000247658
0.000245704
0.000243744
0.000241776
0.000239798
0.000237809
0.000235809
0.000233794
0.000231765
0.00022972
0.000227659
0.00022558
0.000223483
0.000221367
0.000219233
0.000217078
0.000214904
0.000212711
0.000210497
0.000208264
0.000206012
0.000203741
0.000201451
0.000199144
0.00019682
0.000194479
0.000192123
0.000189752
0.000187368
0.000184972
0.000182564
0.000180147
0.000177721
0.000175288
0.000172849
0.000170406
0.000167961
0.000165515
0.00016307
0.000160627
0.00015819
0.000155758
0.000153336
0.000150924
0.000148525
0.00014614
0.000143773
0.000141425
0.000139098
0.000136795
0.000134518
0.000132269
0.00013005
0.000127864
0.000125712
0.000123598
0.000121522
0.000119487
0.000117494
0.000115546
0.000113644
0.000111789
0.000109984
0.000108228
0.000106525
0.000104874
0.000103277
0.000101734
0.000100246
9.88144e-05
9.74397e-05
9.61228e-05
9.48647e-05
9.36671e-05
9.25321e-05
9.1463e-05
9.04645e-05
8.95436e-05
8.87105e-05
8.798e-05
8.73737e-05
8.69224e-05
8.66689e-05
)
;

boundaryField
{
    boundary
    {
        type            empty;
    }
    inlet
    {
        type            fixedValue;
        value           uniform 0;
    }
    outlet
    {
        type            zeroGradient;
    }
}


// ************************************************************************* //
