/*--------------------------------*- C++ -*----------------------------------*\
  =========                 |
  \\      /  F ield         | OpenFOAM: The Open Source CFD Toolbox
   \\    /   O peration     | Website:  https://openfoam.org
    \\  /    A nd           | Version:  7
     \\/     M anipulation  |
\*---------------------------------------------------------------------------*/
FoamFile
{
    version     2.0;
    format      ascii;
    class       volScalarField;
    location    "0.0004";
    object      H2;
}
// * * * * * * * * * * * * * * * * * * * * * * * * * * * * * * * * * * * * * //

dimensions      [0 0 0 0 0 0 0];

internalField   nonuniform List<scalar> 
500
(
0.0285116
0.0285116
0.0285116
0.0285116
0.0285116
0.0285116
0.0285116
0.0285116
0.0285116
0.0285116
0.0285116
0.0285116
0.0285116
0.0285116
0.0285116
0.0285116
0.0285116
0.0285116
0.0285116
0.0285116
0.0285116
0.0285116
0.0285116
0.0285116
0.0285116
0.0285116
0.0285116
0.0285116
0.0285116
0.0285116
0.0285116
0.0285116
0.0285116
0.0285116
0.0285116
0.0285116
0.0285116
0.0285116
0.0285116
0.0285116
0.0285116
0.0285116
0.0285116
0.0285116
0.0285116
0.0285116
0.0285116
0.0285116
0.0285116
0.0285116
0.0285116
0.0285116
0.0285116
0.0285116
0.0285116
0.0285116
0.0285116
0.0285116
0.0285116
0.0285116
0.0285116
0.0285116
0.0285116
0.0285116
0.0285116
0.0285116
0.0285116
0.0285116
0.0285116
0.0285116
0.0285116
0.0285116
0.0285116
0.0285116
0.0285116
0.0285116
0.0285116
0.0285116
0.0285116
0.0285116
0.0285116
0.0285116
0.0285116
0.0285116
0.0285116
0.0285116
0.0285116
0.0285116
0.0285116
0.0285116
0.0285116
0.0285116
0.0285116
0.0285116
0.0285116
0.0285116
0.0285116
0.0285116
0.0285116
0.0285116
0.0285116
0.0285116
0.0285116
0.0285116
0.0285116
0.0285116
0.0285116
0.0285116
0.0285116
0.0285116
0.0285116
0.0285116
0.0285116
0.0285116
0.0285116
0.0285116
0.0285116
0.0285116
0.0285116
0.0285116
0.0285116
0.0285116
0.0285116
0.0285116
0.0285116
0.0285116
0.0285116
0.0285116
0.0285116
0.0285116
0.0285116
0.0285116
0.0285116
0.0285116
0.0285116
0.0285116
0.0285116
0.0285116
0.0285116
0.0285116
0.0285116
0.0285116
0.0285116
0.0285116
0.0285116
0.0285116
0.0285116
0.0285116
0.0285116
0.0285116
0.0285116
0.0285116
0.0285116
0.0285116
0.0285116
0.0285116
0.0285116
0.0285116
0.0285116
0.0285116
0.0285116
0.0285116
0.0285116
0.0285116
0.0285116
0.0285116
0.0285116
0.0285116
0.0285116
0.0285116
0.0285116
0.0285116
0.0285116
0.0285116
0.0285116
0.0285116
0.0285116
0.0285116
0.0285116
0.0285116
0.0285116
0.0285116
0.0285116
0.0285116
0.0285116
0.0285116
0.0285116
0.0285116
0.0285116
0.0285116
0.0285116
0.0285116
0.0285116
0.0285116
0.0285116
0.0285116
0.0285116
0.0285116
0.0285116
0.0285116
0.0285116
0.0285116
0.0285116
0.0285116
0.0285116
0.0285116
0.0285116
0.0285116
0.0285116
0.0285116
0.0285116
0.0285116
0.0285116
0.0285116
0.0285116
0.0285116
0.0285116
0.0285116
0.0285116
0.0285116
0.0285116
0.0285116
0.0285116
0.0285116
0.0285116
0.0285116
0.0285116
0.0285116
0.0285116
0.0285116
0.0285116
0.0285116
0.0285116
0.0285116
0.0285116
0.0285116
0.0285116
0.0285116
0.0285116
0.0285116
0.0285116
0.0285116
0.0285116
0.0285116
0.0285116
0.0285116
0.0285116
0.0285116
0.0285116
0.0285116
0.0285116
0.0285116
0.0285116
0.0285116
0.0285116
0.0285116
0.0285116
0.0285116
0.0285116
0.0285116
0.0285116
0.0285116
0.0285116
0.0285115
0.0285115
0.0285114
0.0285111
0.0285106
0.0285094
0.0285071
0.0285022
0.028492
0.0284707
0.0284262
0.0283339
0.0281437
0.0277615
0.0270355
0.0257894
0.023925
0.0215514
0.018825
0.0158294
0.0127657
0.00999952
0.00782869
0.00626484
0.00526791
0.00464185
0.00425551
0.00401721
0.00386793
0.00377131
0.0037055
0.00365755
0.0036199
0.00358812
0.00355968
0.00353312
0.00350765
0.00348282
0.0034584
0.00343429
0.00341043
0.00338683
0.0033635
0.00334045
0.0033177
0.00329528
0.00327318
0.00325144
0.00323005
0.00320966
0.00319008
0.00317078
0.00315173
0.00313296
0.00311444
0.00309618
0.00307818
0.00306044
0.00304294
0.00302569
0.00300868
0.00299192
0.00297539
0.00295908
0.00294301
0.00292716
0.00291153
0.00289612
0.00288092
0.00286592
0.00285113
0.00283655
0.00282215
0.00280796
0.00279395
0.00278013
0.00276649
0.00275304
0.00273976
0.00272666
0.00271374
0.00270098
0.00268839
0.00267597
0.00266371
0.00265161
0.00263967
0.0026279
0.00261628
0.00260481
0.00259351
0.00258235
0.00257135
0.00256051
0.00254982
0.00253929
0.00252891
0.00251869
0.00250862
0.00249872
0.00248898
0.00247941
0.00247001
0.00246079
0.00245176
0.00244291
0.00243428
0.00242586
0.00241768
0.00240976
0.00240214
0.00239485
0.00238796
0.00238093
0.00237354
0.00236636
0.00235939
0.00235263
0.00234607
0.00233971
0.00233356
0.00232763
0.00232191
0.00231642
0.00231114
0.0023061
0.00230129
0.00229672
0.00229239
0.00228831
0.00228447
0.00228089
0.00227757
0.0022745
0.0022717
0.00226915
0.00226687
0.00226484
0.00226307
0.00226156
0.00226029
0.00225928
0.0022585
0.00225795
0.00225763
0.00225751
0.0022576
0.00225787
0.00225832
0.00225892
0.00225966
0.00226053
0.00226149
0.00226253
0.00226362
0.00226474
0.00226587
0.00226697
0.00226802
0.002269
0.00226986
0.00227057
0.00227112
0.00227145
0.00227155
0.00227138
0.0022709
0.00227008
0.00226889
0.00226731
0.00226528
0.0022628
0.00225982
0.00225632
0.00225228
0.00224768
0.00224248
0.00223667
0.00223023
0.00222315
0.00221542
0.00220702
0.00219795
0.00218821
0.00217779
0.0021667
0.00215494
0.00214252
0.00212944
0.00211573
0.0021014
0.00208647
0.00207096
0.00205489
0.0020383
0.00202121
0.00200364
0.00198565
0.00196725
0.00194849
0.0019294
0.00191003
0.00189041
0.00187059
0.0018506
0.0018305
0.00181031
0.00179009
0.00176988
0.00174972
0.00172965
0.0017097
0.00168993
0.00167037
0.00165105
0.00163201
0.00161329
0.00159491
0.00157691
0.00155932
0.00154216
0.00152545
0.00150922
0.0014935
0.0014783
0.00146364
0.00144956
0.00143608
0.00142323
0.00141105
0.00139962
0.00138901
0.00137935
0.0013708
0.00136364
0.00135823
0.00135512
)
;

boundaryField
{
    boundary
    {
        type            empty;
    }
    inlet
    {
        type            fixedValue;
        value           uniform 0.0285116;
    }
    outlet
    {
        type            zeroGradient;
    }
}


// ************************************************************************* //
