/*--------------------------------*- C++ -*----------------------------------*\
  =========                 |
  \\      /  F ield         | OpenFOAM: The Open Source CFD Toolbox
   \\    /   O peration     | Website:  https://openfoam.org
    \\  /    A nd           | Version:  7
     \\/     M anipulation  |
\*---------------------------------------------------------------------------*/
FoamFile
{
    version     2.0;
    format      ascii;
    class       volScalarField;
    location    "0.0004";
    object      H2O;
}
// * * * * * * * * * * * * * * * * * * * * * * * * * * * * * * * * * * * * * //

dimensions      [0 0 0 0 0 0 0];

internalField   nonuniform List<scalar> 
500
(
7.90428e-48
2.28597e-47
4.11662e-47
6.17665e-47
8.39564e-47
1.07275e-46
1.31431e-46
1.56251e-46
1.81647e-46
2.07598e-46
2.34132e-46
2.61317e-46
2.89253e-46
3.18064e-46
3.47888e-46
3.78865e-46
4.11127e-46
4.44784e-46
4.79904e-46
5.16505e-46
5.54537e-46
5.93874e-46
6.34307e-46
6.75545e-46
7.17223e-46
7.58911e-46
8.00139e-46
8.40413e-46
8.79246e-46
9.16184e-46
9.50826e-46
9.82846e-46
1.01201e-45
1.03817e-45
1.06129e-45
1.08142e-45
1.09867e-45
1.11323e-45
1.12534e-45
1.13526e-45
1.14327e-45
1.14963e-45
1.15462e-45
1.15848e-45
1.16142e-45
1.16362e-45
1.16526e-45
1.16645e-45
1.16731e-45
1.16793e-45
1.16836e-45
1.16866e-45
1.16886e-45
1.169e-45
1.1691e-45
1.16916e-45
1.1692e-45
1.16923e-45
1.16924e-45
1.16926e-45
1.16927e-45
1.16927e-45
1.16928e-45
1.16928e-45
1.16929e-45
1.16929e-45
1.16929e-45
1.1693e-45
1.1693e-45
1.16931e-45
1.16932e-45
1.16932e-45
1.16933e-45
1.16934e-45
1.16935e-45
1.16936e-45
1.16937e-45
1.16938e-45
1.16939e-45
1.1694e-45
1.16941e-45
1.16943e-45
1.16944e-45
1.16946e-45
1.16947e-45
1.16949e-45
1.16951e-45
1.16953e-45
1.16955e-45
1.16957e-45
1.16959e-45
1.16961e-45
1.16964e-45
1.16966e-45
1.16969e-45
1.16972e-45
1.16975e-45
1.16978e-45
1.16981e-45
1.16984e-45
1.16988e-45
1.16992e-45
1.16995e-45
1.16999e-45
1.17003e-45
1.17008e-45
1.17012e-45
1.17016e-45
1.17021e-45
1.17026e-45
1.17031e-45
1.17036e-45
1.17041e-45
1.17047e-45
1.17053e-45
1.17058e-45
1.17064e-45
1.1707e-45
1.17077e-45
1.17083e-45
1.1709e-45
1.17095e-45
1.17096e-45
1.17071e-45
1.16932e-45
1.16667e-45
1.16765e-45
1.16877e-45
1.16989e-45
1.17085e-45
1.17158e-45
1.17208e-45
1.17239e-45
1.17254e-45
1.17259e-45
1.17258e-45
1.17251e-45
1.1724e-45
1.17227e-45
1.17211e-45
1.17194e-45
1.17176e-45
1.17158e-45
1.17142e-45
1.17128e-45
1.17118e-45
1.17112e-45
1.17111e-45
1.17115e-45
1.17125e-45
1.17139e-45
1.17158e-45
1.1718e-45
1.17205e-45
1.17232e-45
1.1726e-45
1.17288e-45
1.17316e-45
1.17342e-45
1.17366e-45
1.17389e-45
1.1741e-45
1.17428e-45
1.17445e-45
1.1746e-45
1.17473e-45
1.17485e-45
1.17495e-45
1.17504e-45
1.17512e-45
1.17519e-45
1.17525e-45
1.17531e-45
1.17535e-45
1.17539e-45
1.17542e-45
1.17545e-45
1.17546e-45
1.17547e-45
1.17547e-45
1.17546e-45
1.17544e-45
1.17542e-45
1.17538e-45
1.17533e-45
1.17528e-45
1.17521e-45
1.17513e-45
1.17504e-45
1.17493e-45
1.17481e-45
1.17468e-45
1.17453e-45
1.17437e-45
1.1742e-45
1.17401e-45
1.1738e-45
1.17357e-45
1.17333e-45
1.17307e-45
1.1728e-45
1.1725e-45
1.17218e-45
1.17185e-45
1.17149e-45
1.17113e-45
1.17078e-45
1.17062e-45
1.17151e-45
1.17781e-45
1.2113e-45
1.38008e-45
2.21631e-45
6.32012e-45
2.63076e-44
1.23013e-43
5.8825e-43
2.81627e-42
1.34531e-41
6.41656e-41
3.06125e-40
1.46414e-39
7.03738e-39
3.4075e-38
1.6656e-37
8.2315e-37
4.11572e-36
2.0813e-35
1.06315e-34
5.47446e-34
2.83456e-33
1.47181e-32
7.64349e-32
3.96052e-31
2.04323e-30
1.04766e-29
5.33127e-29
2.68932e-28
1.34355e-27
6.64264e-27
3.24824e-26
1.57025e-25
7.50125e-25
3.54018e-24
1.65036e-23
7.59997e-23
3.45813e-22
1.55558e-21
6.9226e-21
3.04992e-20
1.33105e-19
5.83344e-19
2.51177e-18
1.06713e-17
4.49124e-17
1.87482e-16
7.76822e-16
3.19699e-15
1.3077e-14
5.31999e-14
2.15391e-13
8.68411e-13
3.48864e-12
1.39717e-11
5.58104e-11
2.22454e-10
8.85092e-10
3.51642e-09
1.39539e-08
5.53187e-08
2.19123e-07
8.67274e-07
3.42925e-06
1.35363e-05
5.32174e-05
0.000206983
0.000781531
0.00273343
0.00810678
0.0187928
0.0340592
0.0527846
0.0753829
0.101139
0.126649
0.14807
0.165051
0.176306
0.183892
0.189004
0.192522
0.195037
0.196922
0.198408
0.199638
0.200698
0.20164
0.202496
0.203287
0.204026
0.204722
0.205382
0.206008
0.206606
0.207177
0.207724
0.208248
0.208752
0.209237
0.209704
0.210153
0.210587
0.210992
0.211378
0.211754
0.21212
0.212477
0.212825
0.213164
0.213496
0.21382
0.214137
0.214446
0.214749
0.215045
0.215335
0.21562
0.215898
0.216171
0.216439
0.216701
0.216959
0.217211
0.217459
0.217703
0.217942
0.218177
0.218409
0.218636
0.218859
0.219079
0.219295
0.219508
0.219718
0.219924
0.220127
0.220328
0.220525
0.220719
0.220911
0.2211
0.221287
0.221471
0.221653
0.221832
0.222009
0.222184
0.222357
0.222528
0.222698
0.222865
0.223031
0.223195
0.223358
0.223519
0.223679
0.223838
0.223997
0.224154
0.22431
0.224467
0.224623
0.22478
0.224938
0.225098
0.225262
0.225424
0.225579
0.225734
0.22589
0.226045
0.2262
0.226356
0.226513
0.22667
0.226828
0.226986
0.227146
0.227307
0.22747
0.227633
0.227799
0.227966
0.228135
0.228305
0.228478
0.228652
0.228829
0.229007
0.229188
0.22937
0.229554
0.229741
0.229929
0.230118
0.230309
0.230502
0.230695
0.23089
0.231085
0.231281
0.231478
0.231674
0.231871
0.232067
0.232263
0.232458
0.232651
0.232844
0.233035
0.233225
0.233412
0.233598
0.233781
0.233962
0.23414
0.234315
0.234488
0.234658
0.234824
0.234988
0.235148
0.235306
0.23546
0.235611
0.235759
0.235904
0.236047
0.236186
0.236322
0.236455
0.236586
0.236713
0.236839
0.236961
0.237082
0.237199
0.237315
0.237428
0.237539
0.237647
0.237754
0.237858
0.23796
0.238059
0.238157
0.238252
0.238345
0.238435
0.238523
0.238609
0.238692
0.238773
0.238851
0.238926
0.238999
0.239069
0.239137
0.239201
0.239263
0.239322
0.239379
0.239432
0.239483
0.23953
0.239576
0.239618
0.239658
0.239695
0.23973
0.239762
0.239792
0.239819
0.239845
0.239868
0.239889
0.239909
0.239926
0.239942
0.239956
0.239969
0.239981
0.239991
0.239999
0.240007
0.240013
0.240017
0.240021
0.240023
0.240023
)
;

boundaryField
{
    boundary
    {
        type            empty;
    }
    inlet
    {
        type            fixedValue;
        value           uniform 0;
    }
    outlet
    {
        type            zeroGradient;
    }
}


// ************************************************************************* //
