/*--------------------------------*- C++ -*----------------------------------*\
  =========                 |
  \\      /  F ield         | OpenFOAM: The Open Source CFD Toolbox
   \\    /   O peration     | Website:  https://openfoam.org
    \\  /    A nd           | Version:  7
     \\/     M anipulation  |
\*---------------------------------------------------------------------------*/
FoamFile
{
    version     2.0;
    format      ascii;
    class       volScalarField;
    location    "0.0004";
    object      H2O2;
}
// * * * * * * * * * * * * * * * * * * * * * * * * * * * * * * * * * * * * * //

dimensions      [0 0 0 0 0 0 0];

internalField   nonuniform List<scalar> 
500
(
1.99969e-52
6.43086e-52
1.27992e-51
2.1117e-51
3.14009e-51
4.36735e-51
5.79665e-51
7.43229e-51
9.28e-51
1.13472e-50
1.36433e-50
1.61797e-50
1.89696e-50
2.20277e-50
2.53696e-50
2.90103e-50
3.29627e-50
3.72363e-50
4.18341e-50
4.67514e-50
5.19731e-50
5.74724e-50
6.32099e-50
6.91333e-50
7.51788e-50
8.12728e-50
8.73351e-50
9.32826e-50
9.90335e-50
1.04512e-49
1.09651e-49
1.14397e-49
1.18711e-49
1.2257e-49
1.25967e-49
1.28911e-49
1.3142e-49
1.33525e-49
1.35264e-49
1.36677e-49
1.37809e-49
1.38702e-49
1.39395e-49
1.39926e-49
1.40326e-49
1.40624e-49
1.40843e-49
1.41e-49
1.41113e-49
1.41193e-49
1.41248e-49
1.41286e-49
1.41312e-49
1.41329e-49
1.4134e-49
1.41348e-49
1.41353e-49
1.41356e-49
1.41358e-49
1.4136e-49
1.41361e-49
1.41362e-49
1.41362e-49
1.41363e-49
1.41363e-49
1.41364e-49
1.41365e-49
1.41365e-49
1.41366e-49
1.41367e-49
1.41368e-49
1.41369e-49
1.4137e-49
1.41371e-49
1.41372e-49
1.41373e-49
1.41375e-49
1.41376e-49
1.41378e-49
1.41379e-49
1.41381e-49
1.41383e-49
1.41385e-49
1.41387e-49
1.41389e-49
1.41391e-49
1.41394e-49
1.41396e-49
1.41399e-49
1.41402e-49
1.41405e-49
1.41408e-49
1.41412e-49
1.41415e-49
1.41419e-49
1.41422e-49
1.41426e-49
1.41431e-49
1.41435e-49
1.41439e-49
1.41444e-49
1.41449e-49
1.41454e-49
1.41459e-49
1.41465e-49
1.4147e-49
1.41476e-49
1.41482e-49
1.41488e-49
1.41495e-49
1.41502e-49
1.41509e-49
1.41516e-49
1.41523e-49
1.4153e-49
1.41538e-49
1.41546e-49
1.41554e-49
1.41563e-49
1.41571e-49
1.41579e-49
1.41585e-49
1.41576e-49
1.41504e-49
1.41169e-49
1.40499e-49
1.40599e-49
1.40735e-49
1.409e-49
1.41078e-49
1.4125e-49
1.41397e-49
1.41507e-49
1.41574e-49
1.416e-49
1.41593e-49
1.41559e-49
1.41508e-49
1.41447e-49
1.41383e-49
1.41321e-49
1.41265e-49
1.41219e-49
1.41185e-49
1.41164e-49
1.41157e-49
1.41165e-49
1.41186e-49
1.4122e-49
1.41265e-49
1.41319e-49
1.4138e-49
1.41446e-49
1.41514e-49
1.41583e-49
1.41651e-49
1.41715e-49
1.41776e-49
1.41832e-49
1.41883e-49
1.41928e-49
1.41968e-49
1.42003e-49
1.42033e-49
1.42059e-49
1.42081e-49
1.421e-49
1.42116e-49
1.4213e-49
1.42142e-49
1.42153e-49
1.42162e-49
1.4217e-49
1.42176e-49
1.42182e-49
1.42186e-49
1.4219e-49
1.42192e-49
1.42193e-49
1.42194e-49
1.42193e-49
1.42191e-49
1.42187e-49
1.42183e-49
1.42177e-49
1.4217e-49
1.42161e-49
1.4215e-49
1.42139e-49
1.42125e-49
1.4211e-49
1.42093e-49
1.42074e-49
1.42053e-49
1.4203e-49
1.42005e-49
1.41978e-49
1.41948e-49
1.41917e-49
1.41883e-49
1.41846e-49
1.41807e-49
1.41766e-49
1.41722e-49
1.41675e-49
1.41626e-49
1.41573e-49
1.41518e-49
1.41461e-49
1.4141e-49
1.4142e-49
1.41904e-49
1.45927e-49
1.75901e-49
3.94139e-49
1.96403e-48
1.31369e-47
9.18144e-47
6.39946e-46
4.41747e-45
3.01662e-44
2.03733e-43
1.36058e-42
8.98349e-42
5.86347e-41
3.78256e-40
2.41141e-39
1.51894e-38
9.45201e-38
5.80966e-37
3.52654e-36
2.11372e-35
1.25075e-34
7.30554e-34
4.21128e-33
2.39545e-32
1.34431e-31
7.44198e-31
4.06348e-30
2.18824e-29
1.16217e-28
6.08765e-28
3.14567e-27
1.60392e-26
8.07285e-26
4.01267e-25
1.97058e-24
9.56496e-24
4.59032e-23
2.17868e-22
1.02295e-21
4.817e-21
2.22544e-20
1.01406e-19
4.57659e-19
2.04852e-18
9.10197e-18
4.01759e-17
1.76303e-16
7.69717e-16
3.34566e-15
1.44874e-14
6.25332e-14
2.69197e-13
1.1563e-12
4.95785e-12
2.12269e-11
9.07791e-11
3.87884e-10
1.65624e-09
7.06811e-09
3.0146e-08
1.28433e-07
5.4537e-07
2.28923e-06
9.22783e-06
3.26169e-05
8.11955e-05
0.000118328
0.000118066
7.3933e-05
3.32128e-05
1.32646e-05
6.26881e-06
4.52542e-06
4.59316e-06
5.21155e-06
5.82904e-06
6.30421e-06
6.60551e-06
6.75408e-06
6.78502e-06
6.7317e-06
6.62099e-06
6.47299e-06
6.30195e-06
6.11811e-06
5.92844e-06
5.73772e-06
5.54917e-06
5.36491e-06
5.18631e-06
5.01416e-06
4.84891e-06
4.69073e-06
4.53964e-06
4.39552e-06
4.25817e-06
4.12735e-06
4.00282e-06
3.88433e-06
3.77169e-06
3.66792e-06
3.57037e-06
3.47681e-06
3.38704e-06
3.30087e-06
3.21812e-06
3.13862e-06
3.06222e-06
2.98877e-06
2.91812e-06
2.85013e-06
2.78469e-06
2.72166e-06
2.66094e-06
2.6024e-06
2.54595e-06
2.49149e-06
2.43893e-06
2.38818e-06
2.33915e-06
2.29177e-06
2.24596e-06
2.20165e-06
2.15878e-06
2.11728e-06
2.0771e-06
2.03817e-06
2.00045e-06
1.96387e-06
1.9284e-06
1.89399e-06
1.86059e-06
1.82817e-06
1.79668e-06
1.76609e-06
1.73636e-06
1.70745e-06
1.67935e-06
1.65201e-06
1.6254e-06
1.59951e-06
1.57429e-06
1.54974e-06
1.52581e-06
1.5025e-06
1.47978e-06
1.45762e-06
1.43601e-06
1.41493e-06
1.39436e-06
1.37428e-06
1.35467e-06
1.33552e-06
1.31682e-06
1.29854e-06
1.28067e-06
1.26319e-06
1.2461e-06
1.22936e-06
1.21297e-06
1.19688e-06
1.18109e-06
1.16554e-06
1.15022e-06
1.13519e-06
1.12058e-06
1.10628e-06
1.09227e-06
1.07851e-06
1.065e-06
1.05173e-06
1.03869e-06
1.02587e-06
1.01326e-06
1.00085e-06
9.88635e-07
9.76601e-07
9.6474e-07
9.53042e-07
9.41497e-07
9.30095e-07
9.18825e-07
9.07678e-07
8.96643e-07
8.8571e-07
8.74868e-07
8.64106e-07
8.53416e-07
8.42786e-07
8.32208e-07
8.21672e-07
8.11169e-07
8.0069e-07
7.90227e-07
7.79772e-07
7.69317e-07
7.58855e-07
7.48381e-07
7.37888e-07
7.27372e-07
7.16828e-07
7.06253e-07
6.95645e-07
6.85001e-07
6.74321e-07
6.63606e-07
6.52856e-07
6.42075e-07
6.31266e-07
6.20433e-07
6.09584e-07
5.98724e-07
5.87863e-07
5.77009e-07
5.66172e-07
5.55363e-07
5.44594e-07
5.33878e-07
5.23227e-07
5.12655e-07
5.02176e-07
4.91803e-07
4.81551e-07
4.71433e-07
4.61461e-07
4.5165e-07
4.42011e-07
4.32557e-07
4.23297e-07
4.14242e-07
4.054e-07
3.9678e-07
3.88388e-07
3.8023e-07
3.72311e-07
3.64634e-07
3.572e-07
3.50012e-07
3.4307e-07
3.36373e-07
3.29919e-07
3.23706e-07
3.1773e-07
3.11987e-07
3.06472e-07
3.01181e-07
2.96107e-07
2.91244e-07
2.86586e-07
2.82126e-07
2.77857e-07
2.73772e-07
2.69864e-07
2.66126e-07
2.6255e-07
2.5913e-07
2.55858e-07
2.52729e-07
2.49735e-07
2.4687e-07
2.44128e-07
2.41503e-07
2.3899e-07
2.36583e-07
2.34278e-07
2.32069e-07
2.29953e-07
2.27925e-07
2.25982e-07
2.2412e-07
2.22336e-07
2.20627e-07
2.1899e-07
2.17424e-07
2.15925e-07
2.14493e-07
2.13127e-07
2.11825e-07
2.10588e-07
2.09417e-07
2.08313e-07
2.07281e-07
2.06327e-07
2.05459e-07
2.04691e-07
2.04043e-07
2.03544e-07
2.03243e-07
)
;

boundaryField
{
    boundary
    {
        type            empty;
    }
    inlet
    {
        type            fixedValue;
        value           uniform 0;
    }
    outlet
    {
        type            zeroGradient;
    }
}


// ************************************************************************* //
