/*--------------------------------*- C++ -*----------------------------------*\
  =========                 |
  \\      /  F ield         | OpenFOAM: The Open Source CFD Toolbox
   \\    /   O peration     | Website:  https://openfoam.org
    \\  /    A nd           | Version:  7
     \\/     M anipulation  |
\*---------------------------------------------------------------------------*/
FoamFile
{
    version     2.0;
    format      ascii;
    class       volScalarField;
    location    "0.0004";
    object      N2;
}
// * * * * * * * * * * * * * * * * * * * * * * * * * * * * * * * * * * * * * //

dimensions      [0 0 0 0 0 0 0];

internalField   nonuniform List<scalar> 
500
(
0.745219
0.745219
0.745219
0.745219
0.745219
0.745219
0.745219
0.745219
0.745219
0.745219
0.745219
0.745219
0.745219
0.745219
0.745219
0.745219
0.745219
0.745219
0.745219
0.745219
0.745219
0.745219
0.745219
0.745219
0.745219
0.745219
0.745219
0.74522
0.74522
0.74522
0.74522
0.74522
0.74522
0.74522
0.74522
0.74522
0.74522
0.74522
0.74522
0.74522
0.74522
0.74522
0.74522
0.74522
0.74522
0.74522
0.74522
0.74522
0.74522
0.74522
0.74522
0.74522
0.74522
0.74522
0.74522
0.74522
0.74522
0.74522
0.74522
0.74522
0.74522
0.74522
0.74522
0.74522
0.74522
0.74522
0.74522
0.74522
0.74522
0.74522
0.74522
0.74522
0.74522
0.74522
0.74522
0.74522
0.74522
0.74522
0.74522
0.74522
0.74522
0.74522
0.74522
0.74522
0.74522
0.74522
0.74522
0.74522
0.74522
0.74522
0.74522
0.74522
0.74522
0.74522
0.74522
0.74522
0.74522
0.74522
0.74522
0.74522
0.74522
0.74522
0.74522
0.74522
0.74522
0.74522
0.74522
0.74522
0.74522
0.74522
0.74522
0.74522
0.74522
0.74522
0.74522
0.74522
0.74522
0.74522
0.74522
0.74522
0.74522
0.74522
0.74522
0.74522
0.74522
0.74522
0.74522
0.74522
0.74522
0.74522
0.74522
0.74522
0.74522
0.74522
0.74522
0.74522
0.74522
0.74522
0.74522
0.74522
0.74522
0.74522
0.74522
0.74522
0.74522
0.74522
0.74522
0.74522
0.74522
0.74522
0.74522
0.74522
0.74522
0.74522
0.74522
0.74522
0.74522
0.74522
0.74522
0.74522
0.74522
0.74522
0.74522
0.74522
0.74522
0.74522
0.74522
0.74522
0.74522
0.74522
0.74522
0.74522
0.74522
0.74522
0.74522
0.74522
0.74522
0.74522
0.74522
0.74522
0.74522
0.74522
0.74522
0.74522
0.74522
0.74522
0.74522
0.74522
0.74522
0.74522
0.74522
0.74522
0.74522
0.74522
0.74522
0.74522
0.74522
0.74522
0.74522
0.74522
0.74522
0.74522
0.74522
0.74522
0.74522
0.74522
0.74522
0.74522
0.74522
0.74522
0.74522
0.74522
0.74522
0.74522
0.74522
0.74522
0.74522
0.74522
0.74522
0.74522
0.74522
0.74522
0.74522
0.74522
0.74522
0.74522
0.74522
0.74522
0.74522
0.74522
0.74522
0.74522
0.74522
0.74522
0.74522
0.74522
0.74522
0.74522
0.74522
0.74522
0.74522
0.74522
0.74522
0.74522
0.74522
0.74522
0.74522
0.74522
0.74522
0.74522
0.74522
0.74522
0.74522
0.74522
0.74522
0.74522
0.74522
0.74522
0.74522
0.74522
0.74522
0.74522
0.74522
0.74522
0.74522
0.74522
0.74522
0.74522
0.745221
0.745223
0.745226
0.745234
0.745249
0.745278
0.745334
0.74543
0.745559
0.745627
0.745485
0.745146
0.744669
0.744099
0.743677
0.743626
0.743894
0.744223
0.744651
0.744898
0.745066
0.745172
0.745237
0.745276
0.745299
0.745313
0.745321
0.745326
0.745329
0.745331
0.745332
0.745331
0.74533
0.745329
0.745327
0.745324
0.745322
0.745319
0.745317
0.745314
0.745311
0.745309
0.745306
0.745304
0.745302
0.745299
0.745297
0.745295
0.745293
0.745292
0.74529
0.745288
0.745286
0.745285
0.745283
0.745282
0.74528
0.745279
0.745278
0.745276
0.745275
0.745274
0.745273
0.745272
0.74527
0.745269
0.745268
0.745267
0.745266
0.745265
0.745264
0.745263
0.745262
0.745261
0.74526
0.74526
0.745259
0.745258
0.745257
0.745256
0.745254
0.745253
0.745252
0.745251
0.74525
0.745248
0.745247
0.745245
0.745244
0.745242
0.74524
0.745239
0.745237
0.745234
0.745232
0.74523
0.745227
0.745224
0.745221
0.745218
0.745215
0.745212
0.745208
0.745204
0.745199
0.745194
0.745188
0.745181
0.745175
0.74517
0.745166
0.745162
0.745159
0.745155
0.745152
0.745149
0.745146
0.745144
0.745142
0.74514
0.745138
0.745137
0.745136
0.745136
0.745136
0.745136
0.745137
0.745138
0.745139
0.745142
0.745144
0.745147
0.745151
0.745156
0.745161
0.745167
0.745174
0.745182
0.745191
0.745201
0.745211
0.745223
0.745236
0.745249
0.745263
0.745278
0.745294
0.745311
0.745328
0.745346
0.745364
0.745383
0.745402
0.745421
0.745439
0.745458
0.745476
0.745494
0.745511
0.745528
0.745543
0.745557
0.745571
0.745582
0.745593
0.745602
0.745609
0.745614
0.745617
0.745619
0.745618
0.745616
0.745611
0.745605
0.745596
0.745585
0.745573
0.745558
0.745542
0.745525
0.745505
0.745485
0.745463
0.74544
0.745416
0.745391
0.745366
0.74534
0.745315
0.745289
0.745263
0.745238
0.745213
0.745189
0.745165
0.745143
0.745121
0.745101
0.745082
0.745065
0.745049
0.745034
0.745021
0.745009
0.744999
0.744991
0.744984
0.744978
0.744974
0.744971
0.74497
0.74497
0.744971
0.744973
0.744976
0.744981
0.744986
0.744991
0.744998
0.745005
0.745012
0.74502
0.745028
0.745036
0.745044
0.745052
0.74506
0.745067
0.745074
0.745079
0.745083
0.745085
)
;

boundaryField
{
    boundary
    {
        type            empty;
    }
    inlet
    {
        type            fixedValue;
        value           uniform 0.74522;
    }
    outlet
    {
        type            zeroGradient;
    }
}


// ************************************************************************* //
