/*--------------------------------*- C++ -*----------------------------------*\
  =========                 |
  \\      /  F ield         | OpenFOAM: The Open Source CFD Toolbox
   \\    /   O peration     | Website:  https://openfoam.org
    \\  /    A nd           | Version:  7
     \\/     M anipulation  |
\*---------------------------------------------------------------------------*/
FoamFile
{
    version     2.0;
    format      ascii;
    class       volScalarField;
    location    "0.0004";
    object      O;
}
// * * * * * * * * * * * * * * * * * * * * * * * * * * * * * * * * * * * * * //

dimensions      [0 0 0 0 0 0 0];

internalField   nonuniform List<scalar> 
500
(
1.58097e-47
3.77592e-47
5.9883e-47
8.20832e-47
1.04356e-46
1.26722e-46
1.49217e-46
1.71886e-46
1.94788e-46
2.17993e-46
2.41589e-46
2.65674e-46
2.90361e-46
3.15768e-46
3.42019e-46
3.69233e-46
3.97515e-46
4.26949e-46
4.57584e-46
4.89425e-46
5.22428e-46
5.56485e-46
5.91428e-46
6.27024e-46
6.62985e-46
6.98971e-46
7.34611e-46
7.69511e-46
8.03281e-46
8.35549e-46
8.65981e-46
8.94298e-46
9.20287e-46
9.43805e-46
9.64788e-46
9.83243e-46
9.99243e-46
1.01292e-45
1.02444e-45
1.034e-45
1.04184e-45
1.04816e-45
1.0532e-45
1.05715e-45
1.06022e-45
1.06256e-45
1.06432e-45
1.06564e-45
1.06661e-45
1.06731e-45
1.06781e-45
1.06817e-45
1.06842e-45
1.06859e-45
1.06871e-45
1.06879e-45
1.06884e-45
1.06888e-45
1.0689e-45
1.06892e-45
1.06893e-45
1.06894e-45
1.06894e-45
1.06895e-45
1.06895e-45
1.06896e-45
1.06896e-45
1.06897e-45
1.06897e-45
1.06898e-45
1.06898e-45
1.06899e-45
1.069e-45
1.069e-45
1.06901e-45
1.06902e-45
1.06903e-45
1.06904e-45
1.06905e-45
1.06906e-45
1.06907e-45
1.06909e-45
1.0691e-45
1.06912e-45
1.06913e-45
1.06915e-45
1.06916e-45
1.06918e-45
1.0692e-45
1.06922e-45
1.06924e-45
1.06926e-45
1.06928e-45
1.06931e-45
1.06933e-45
1.06936e-45
1.06939e-45
1.06942e-45
1.06944e-45
1.06948e-45
1.06951e-45
1.06954e-45
1.06958e-45
1.06961e-45
1.06965e-45
1.06969e-45
1.06973e-45
1.06977e-45
1.06981e-45
1.06986e-45
1.0699e-45
1.06995e-45
1.07e-45
1.07005e-45
1.0701e-45
1.07015e-45
1.07021e-45
1.07027e-45
1.07032e-45
1.07038e-45
1.07044e-45
1.07051e-45
1.0706e-45
1.07076e-45
1.07114e-45
1.07177e-45
1.07174e-45
1.07152e-45
1.07129e-45
1.07113e-45
1.07104e-45
1.07102e-45
1.07104e-45
1.07108e-45
1.07113e-45
1.07118e-45
1.07122e-45
1.07125e-45
1.07128e-45
1.07129e-45
1.07131e-45
1.07131e-45
1.07132e-45
1.07133e-45
1.07134e-45
1.07136e-45
1.07139e-45
1.07143e-45
1.0715e-45
1.07158e-45
1.07168e-45
1.0718e-45
1.07193e-45
1.07208e-45
1.07225e-45
1.07242e-45
1.07259e-45
1.07277e-45
1.07295e-45
1.07312e-45
1.07328e-45
1.07343e-45
1.07358e-45
1.07371e-45
1.07383e-45
1.07395e-45
1.07405e-45
1.07414e-45
1.07422e-45
1.07429e-45
1.07436e-45
1.07442e-45
1.07447e-45
1.07451e-45
1.07455e-45
1.07457e-45
1.0746e-45
1.07461e-45
1.07462e-45
1.07462e-45
1.07461e-45
1.07459e-45
1.07457e-45
1.07454e-45
1.07449e-45
1.07444e-45
1.07438e-45
1.0743e-45
1.07422e-45
1.07412e-45
1.07402e-45
1.0739e-45
1.07376e-45
1.07362e-45
1.07346e-45
1.07328e-45
1.07309e-45
1.07289e-45
1.07267e-45
1.07243e-45
1.07218e-45
1.07192e-45
1.07166e-45
1.07153e-45
1.07208e-45
1.0763e-45
1.09921e-45
1.21674e-45
1.8082e-45
4.75137e-45
1.92555e-44
9.00581e-44
4.32416e-43
2.07206e-42
9.8491e-42
4.63779e-41
2.16269e-40
9.98573e-40
4.56484e-39
2.0658e-38
9.254e-38
4.10308e-37
1.80049e-36
7.8187e-36
3.35975e-35
1.42848e-34
6.00897e-34
2.50068e-33
1.02948e-32
4.19231e-32
1.68867e-31
6.72776e-31
2.65105e-30
1.03319e-29
3.98241e-29
1.51818e-28
5.72428e-28
2.13478e-27
7.87495e-27
2.8737e-26
1.03749e-25
3.70628e-25
1.31035e-24
4.58599e-24
1.58925e-23
5.455e-23
1.85513e-22
6.25246e-22
2.08893e-21
6.91885e-21
2.27133e-20
7.38483e-20
2.38708e-19
7.67101e-19
2.45072e-18
7.78646e-18
2.4615e-17
7.74621e-17
2.42788e-16
7.58271e-16
2.36091e-15
7.33133e-15
2.27148e-14
7.02461e-14
2.16904e-13
6.68923e-13
2.06093e-12
6.3449e-12
1.95228e-11
6.00461e-11
1.84634e-10
5.67709e-10
1.74677e-09
5.39404e-09
1.692e-08
5.63902e-08
2.26004e-07
1.26856e-06
8.8577e-06
5.05674e-05
0.000218649
0.000738081
0.00176658
0.00311614
0.00440905
0.00538729
0.00601578
0.00633218
0.00644712
0.00643439
0.00634548
0.00621391
0.00606057
0.0058981
0.00573398
0.00557249
0.00541604
0.00526584
0.00512243
0.00498593
0.00485622
0.00473305
0.00461609
0.00450498
0.00439936
0.00429887
0.00420317
0.00411193
0.00402486
0.00394169
0.0038622
0.00378617
0.00371566
0.00364912
0.00358489
0.00352284
0.00346285
0.00340479
0.00334859
0.00329414
0.00324136
0.00319018
0.00314052
0.0030923
0.00304548
0.00299997
0.00295574
0.00291272
0.00287086
0.00283012
0.00279045
0.00275181
0.00271415
0.00267744
0.00264165
0.00260673
0.00257265
0.00253939
0.00250692
0.0024752
0.00244421
0.00241392
0.00238432
0.00235537
0.00232706
0.00229936
0.00227225
0.00224572
0.00221975
0.00219431
0.0021694
0.00214499
0.00212107
0.00209762
0.00207463
0.00205209
0.00202998
0.00200828
0.00198699
0.00196609
0.00194557
0.00192542
0.00190562
0.00188616
0.00186703
0.00184822
0.00182971
0.0018115
0.00179357
0.0017759
0.00175847
0.00174127
0.00172426
0.00170741
0.00169068
0.00167404
0.0016576
0.00164144
0.0016255
0.00160972
0.00159409
0.00157858
0.00156319
0.00154791
0.00153271
0.0015176
0.00150256
0.00148759
0.00147266
0.00145777
0.00144292
0.00142808
0.00141326
0.00139844
0.00138361
0.00136877
0.00135391
0.00133902
0.00132409
0.00130913
0.00129412
0.00127907
0.00126397
0.00124882
0.00123364
0.0012184
0.00120313
0.00118783
0.0011725
0.00115715
0.00114179
0.00112643
0.00111107
0.00109575
0.00108045
0.00106521
0.00105003
0.00103492
0.00101991
0.00100501
0.000990228
0.000975587
0.000961099
0.000946781
0.000932645
0.000918705
0.000904975
0.000891466
0.00087819
0.000865157
0.000852374
0.000839851
0.000827594
0.000815607
0.000803896
0.000792461
0.000781306
0.000770428
0.000759829
0.000749504
0.000739451
0.000729665
0.00072014
0.000710871
0.00070185
0.000693069
0.000684519
0.000676193
0.000668081
0.000660174
0.000652462
0.000644936
0.000637587
0.000630404
0.000623381
0.000616507
0.000609774
0.000603176
0.000596704
0.000590353
0.000584116
0.000577988
0.000571965
0.000566043
0.000560218
0.000554487
0.00054885
0.000543305
0.00053785
0.000532487
0.000527214
0.000522034
0.000516947
0.000511954
0.000507059
0.000502262
0.000497566
0.000492974
0.000488487
0.00048411
0.000479843
0.00047569
0.000471654
0.000467736
0.000463939
0.000460265
0.000456717
0.000453297
0.000450009
0.000446855
0.000443841
0.000440972
0.000438256
0.000435707
0.00043334
0.000431181
0.000429263
0.000427639
0.000426385
0.00042563
)
;

boundaryField
{
    boundary
    {
        type            empty;
    }
    inlet
    {
        type            fixedValue;
        value           uniform 0;
    }
    outlet
    {
        type            zeroGradient;
    }
}


// ************************************************************************* //
