/*--------------------------------*- C++ -*----------------------------------*\
  =========                 |
  \\      /  F ield         | OpenFOAM: The Open Source CFD Toolbox
   \\    /   O peration     | Website:  https://openfoam.org
    \\  /    A nd           | Version:  7
     \\/     M anipulation  |
\*---------------------------------------------------------------------------*/
FoamFile
{
    version     2.0;
    format      ascii;
    class       surfaceScalarField;
    location    "0.0004";
    object      phi;
}
// * * * * * * * * * * * * * * * * * * * * * * * * * * * * * * * * * * * * * //

dimensions      [1 0 -1 0 0 0 0];

internalField   nonuniform List<scalar> 
499
(
6.933e-06
6.93259e-06
6.93219e-06
6.93178e-06
6.93137e-06
6.93095e-06
6.93051e-06
6.93006e-06
6.92958e-06
6.92907e-06
6.92852e-06
6.92792e-06
6.92726e-06
6.92653e-06
6.92572e-06
6.9248e-06
6.92378e-06
6.92265e-06
6.92138e-06
6.91999e-06
6.91847e-06
6.91683e-06
6.91507e-06
6.91322e-06
6.91128e-06
6.90929e-06
6.90727e-06
6.90523e-06
6.90322e-06
6.90126e-06
6.89937e-06
6.89757e-06
6.89587e-06
6.89429e-06
6.89284e-06
6.89152e-06
6.89032e-06
6.88925e-06
6.88829e-06
6.88743e-06
6.88667e-06
6.886e-06
6.88539e-06
6.88485e-06
6.88436e-06
6.88391e-06
6.88349e-06
6.8831e-06
6.88273e-06
6.88238e-06
6.88204e-06
6.88171e-06
6.88138e-06
6.88106e-06
6.88075e-06
6.88043e-06
6.88012e-06
6.87981e-06
6.8795e-06
6.87919e-06
6.87889e-06
6.87858e-06
6.87827e-06
6.87797e-06
6.87766e-06
6.87736e-06
6.87705e-06
6.87675e-06
6.87644e-06
6.87614e-06
6.87583e-06
6.87553e-06
6.87523e-06
6.87493e-06
6.87463e-06
6.87433e-06
6.87402e-06
6.87373e-06
6.87343e-06
6.87313e-06
6.87283e-06
6.87253e-06
6.87223e-06
6.87194e-06
6.87164e-06
6.87135e-06
6.87105e-06
6.87076e-06
6.87046e-06
6.87017e-06
6.86988e-06
6.86959e-06
6.8693e-06
6.86901e-06
6.86872e-06
6.86843e-06
6.86814e-06
6.86785e-06
6.86756e-06
6.86727e-06
6.86698e-06
6.8667e-06
6.86641e-06
6.86612e-06
6.86584e-06
6.86555e-06
6.86527e-06
6.86498e-06
6.8647e-06
6.86441e-06
6.86413e-06
6.86384e-06
6.86356e-06
6.86327e-06
6.86299e-06
6.8627e-06
6.86242e-06
6.86213e-06
6.86185e-06
6.86157e-06
6.86128e-06
6.861e-06
6.86071e-06
6.86043e-06
6.86014e-06
6.85986e-06
6.85957e-06
6.85929e-06
6.859e-06
6.85871e-06
6.85843e-06
6.85814e-06
6.85785e-06
6.85757e-06
6.85728e-06
6.85699e-06
6.8567e-06
6.85641e-06
6.85612e-06
6.85583e-06
6.85554e-06
6.85525e-06
6.85496e-06
6.85467e-06
6.85438e-06
6.85409e-06
6.8538e-06
6.85351e-06
6.85321e-06
6.85292e-06
6.85263e-06
6.85234e-06
6.85204e-06
6.85175e-06
6.85146e-06
6.85117e-06
6.85087e-06
6.85058e-06
6.85029e-06
6.85e-06
6.84971e-06
6.84941e-06
6.84912e-06
6.84883e-06
6.84854e-06
6.84826e-06
6.84797e-06
6.84768e-06
6.84739e-06
6.84711e-06
6.84682e-06
6.84654e-06
6.84626e-06
6.84598e-06
6.8457e-06
6.84542e-06
6.84514e-06
6.84486e-06
6.84459e-06
6.84431e-06
6.84404e-06
6.84377e-06
6.8435e-06
6.84323e-06
6.84296e-06
6.84269e-06
6.84243e-06
6.84217e-06
6.84191e-06
6.84165e-06
6.84139e-06
6.84113e-06
6.84088e-06
6.84062e-06
6.84037e-06
6.84012e-06
6.83987e-06
6.83963e-06
6.83938e-06
6.83914e-06
6.8389e-06
6.83866e-06
6.83842e-06
6.83819e-06
6.83795e-06
6.83772e-06
6.83749e-06
6.83726e-06
6.83704e-06
6.83681e-06
6.83659e-06
6.83637e-06
6.83615e-06
6.83593e-06
6.83571e-06
6.8355e-06
6.83529e-06
6.83508e-06
6.83487e-06
6.83466e-06
6.83446e-06
6.83425e-06
6.83405e-06
6.83385e-06
6.83366e-06
6.83346e-06
6.83327e-06
6.83307e-06
6.83288e-06
6.83269e-06
6.8325e-06
6.83232e-06
6.83213e-06
6.83195e-06
6.83177e-06
6.83159e-06
6.83141e-06
6.83123e-06
6.83106e-06
6.83088e-06
6.83071e-06
6.83054e-06
6.83037e-06
6.8302e-06
6.83003e-06
6.82987e-06
6.8297e-06
6.82954e-06
6.82938e-06
6.82921e-06
6.82905e-06
6.8289e-06
6.82874e-06
6.82858e-06
6.82842e-06
6.82827e-06
6.82811e-06
6.82796e-06
6.8278e-06
6.82765e-06
6.8275e-06
6.82734e-06
6.82719e-06
6.82704e-06
6.82689e-06
6.82674e-06
6.8266e-06
6.82645e-06
6.82631e-06
6.82617e-06
6.82607e-06
6.82608e-06
6.82642e-06
6.82774e-06
6.83196e-06
6.84426e-06
6.87603e-06
6.93818e-06
7.01461e-06
7.07577e-06
7.1159e-06
7.14225e-06
7.16044e-06
7.17299e-06
7.1806e-06
7.18594e-06
7.19123e-06
7.19584e-06
7.19941e-06
7.20229e-06
7.20464e-06
7.20657e-06
7.20814e-06
7.2094e-06
7.21041e-06
7.2112e-06
7.21181e-06
7.21228e-06
7.21265e-06
7.21295e-06
7.2132e-06
7.21342e-06
7.21363e-06
7.21384e-06
7.21404e-06
7.21424e-06
7.21445e-06
7.21466e-06
7.21486e-06
7.21506e-06
7.21526e-06
7.21545e-06
7.21562e-06
7.21579e-06
7.21595e-06
7.2161e-06
7.21624e-06
7.21638e-06
7.2165e-06
7.21663e-06
7.21674e-06
7.21685e-06
7.21695e-06
7.21705e-06
7.21714e-06
7.21722e-06
7.21731e-06
7.21738e-06
7.21745e-06
7.21752e-06
7.21759e-06
7.21765e-06
7.2177e-06
7.21776e-06
7.21781e-06
7.21785e-06
7.2179e-06
7.21794e-06
7.21797e-06
7.21801e-06
7.21804e-06
7.21807e-06
7.21809e-06
7.21811e-06
7.21813e-06
7.21814e-06
7.21815e-06
7.21816e-06
7.21816e-06
7.21816e-06
7.21816e-06
7.21815e-06
7.21814e-06
7.21812e-06
7.2181e-06
7.21808e-06
7.21805e-06
7.21802e-06
7.21799e-06
7.21795e-06
7.2179e-06
7.21786e-06
7.21781e-06
7.21775e-06
7.2177e-06
7.21764e-06
7.21758e-06
7.21753e-06
7.21747e-06
7.21741e-06
7.21735e-06
7.21729e-06
7.21724e-06
7.21719e-06
7.21714e-06
7.21708e-06
7.21702e-06
7.21698e-06
7.21694e-06
7.21692e-06
7.21692e-06
7.21694e-06
7.21699e-06
7.21706e-06
7.21716e-06
7.21729e-06
7.21745e-06
7.21764e-06
7.21787e-06
7.21813e-06
7.21843e-06
7.21877e-06
7.21914e-06
7.21954e-06
7.21998e-06
7.22045e-06
7.22095e-06
7.22147e-06
7.22202e-06
7.22258e-06
7.22315e-06
7.22373e-06
7.22431e-06
7.22488e-06
7.22543e-06
7.22596e-06
7.22645e-06
7.2269e-06
7.22729e-06
7.2276e-06
7.22783e-06
7.22795e-06
7.22796e-06
7.22784e-06
7.22756e-06
7.22711e-06
7.22648e-06
7.22564e-06
7.22457e-06
7.22326e-06
7.22169e-06
7.21984e-06
7.21769e-06
7.21523e-06
7.21244e-06
7.20931e-06
7.20584e-06
7.20201e-06
7.19781e-06
7.19325e-06
7.18831e-06
7.18301e-06
7.17735e-06
7.17133e-06
7.16496e-06
7.15827e-06
7.15126e-06
7.14396e-06
7.13639e-06
7.12857e-06
7.12053e-06
7.11231e-06
7.10393e-06
7.09543e-06
7.08685e-06
7.07821e-06
7.06956e-06
7.06093e-06
7.05236e-06
7.04389e-06
7.03555e-06
7.02738e-06
7.01941e-06
7.01167e-06
7.00419e-06
6.99699e-06
6.99011e-06
6.98357e-06
6.97738e-06
6.97156e-06
6.96612e-06
6.96107e-06
6.95643e-06
6.95219e-06
6.94836e-06
6.94493e-06
6.9419e-06
6.93927e-06
6.93702e-06
6.93514e-06
6.93363e-06
6.93246e-06
6.93161e-06
6.93108e-06
6.93083e-06
6.93085e-06
6.93112e-06
6.93162e-06
6.93233e-06
6.93322e-06
6.93427e-06
6.93546e-06
6.93677e-06
6.93819e-06
6.93969e-06
6.94125e-06
6.94286e-06
6.94451e-06
6.94617e-06
6.94784e-06
6.94951e-06
6.95115e-06
6.95277e-06
6.95436e-06
6.95592e-06
6.95743e-06
6.9589e-06
6.96033e-06
6.96173e-06
)
;

boundaryField
{
    boundary
    {
        type            empty;
        value           nonuniform 0();
    }
    inlet
    {
        type            calculated;
        value           uniform -6.93341e-06;
    }
    outlet
    {
        type            calculated;
        value           uniform 6.96312e-06;
    }
}


// ************************************************************************* //
