/*--------------------------------*- C++ -*----------------------------------*\
  =========                 |
  \\      /  F ield         | OpenFOAM: The Open Source CFD Toolbox
   \\    /   O peration     | Website:  https://openfoam.org
    \\  /    A nd           | Version:  7
     \\/     M anipulation  |
\*---------------------------------------------------------------------------*/
FoamFile
{
    version     2.0;
    format      ascii;
    class       volScalarField;
    location    "0.0004";
    object      rho;
}
// * * * * * * * * * * * * * * * * * * * * * * * * * * * * * * * * * * * * * //

dimensions      [1 -3 0 0 0 0 0];

internalField   nonuniform List<scalar> 
500
(
0.865073
0.865061
0.865048
0.865035
0.865021
0.865006
0.864988
0.864968
0.864944
0.864915
0.864881
0.864839
0.86479
0.86473
0.864659
0.864575
0.864477
0.864364
0.864236
0.864091
0.863932
0.863757
0.86357
0.863372
0.863165
0.862954
0.86274
0.862528
0.862319
0.862119
0.861928
0.86175
0.861586
0.861437
0.861304
0.861186
0.861084
0.860997
0.860923
0.860862
0.860811
0.86077
0.860738
0.860712
0.860692
0.860677
0.860665
0.860656
0.86065
0.860645
0.860642
0.860639
0.860638
0.860637
0.860636
0.860635
0.860635
0.860635
0.860634
0.860634
0.860634
0.860634
0.860634
0.860634
0.860634
0.860634
0.860634
0.860634
0.860634
0.860634
0.860634
0.860634
0.860634
0.860634
0.860634
0.860634
0.860634
0.860634
0.860634
0.860633
0.860633
0.860633
0.860633
0.860633
0.860633
0.860633
0.860633
0.860633
0.860633
0.860632
0.860632
0.860632
0.860632
0.860632
0.860632
0.860631
0.860631
0.860631
0.860631
0.860631
0.86063
0.86063
0.86063
0.86063
0.860629
0.860629
0.860629
0.860628
0.860628
0.860628
0.860627
0.860627
0.860627
0.860626
0.860626
0.860626
0.860625
0.860625
0.860624
0.860624
0.860623
0.860623
0.860623
0.860622
0.860622
0.860621
0.860621
0.86062
0.86062
0.860619
0.860619
0.860618
0.860617
0.860617
0.860616
0.860616
0.860615
0.860615
0.860614
0.860614
0.860613
0.860612
0.860612
0.860611
0.860611
0.86061
0.86061
0.860609
0.860608
0.860608
0.860607
0.860606
0.860606
0.860605
0.860604
0.860604
0.860603
0.860602
0.860601
0.860601
0.8606
0.8606
0.860599
0.860598
0.860598
0.860597
0.860597
0.860596
0.860596
0.860595
0.860595
0.860595
0.860594
0.860594
0.860594
0.860593
0.860593
0.860593
0.860593
0.860593
0.860593
0.860593
0.860593
0.860593
0.860594
0.860594
0.860594
0.860595
0.860595
0.860596
0.860597
0.860598
0.860598
0.860599
0.860601
0.860602
0.860603
0.860604
0.860606
0.860607
0.860609
0.860611
0.860613
0.860615
0.860617
0.860619
0.860622
0.860625
0.860627
0.86063
0.860633
0.860636
0.86064
0.860643
0.860647
0.860651
0.860655
0.860659
0.860663
0.860667
0.860672
0.860677
0.860682
0.860687
0.860692
0.860697
0.860703
0.860709
0.860715
0.860721
0.860727
0.860733
0.86074
0.860747
0.860753
0.86076
0.860768
0.860775
0.860782
0.86079
0.860798
0.860805
0.860813
0.860821
0.86083
0.860838
0.860846
0.860855
0.860863
0.860872
0.860881
0.860889
0.860898
0.860907
0.860916
0.860926
0.860935
0.860944
0.860953
0.860963
0.860972
0.860982
0.860991
0.861001
0.861011
0.861021
0.861032
0.861043
0.861051
0.861049
0.861012
0.860857
0.860332
0.858686
0.853723
0.839311
0.800511
0.71439
0.583148
0.455746
0.36532
0.306605
0.266887
0.238739
0.218738
0.204404
0.193852
0.186229
0.180497
0.175977
0.172315
0.169273
0.166695
0.164472
0.162529
0.160812
0.159279
0.1579
0.156651
0.155513
0.15447
0.153511
0.152625
0.151803
0.151039
0.150325
0.149657
0.14903
0.14844
0.147885
0.14736
0.146865
0.146409
0.145984
0.145575
0.145184
0.144807
0.144446
0.144098
0.143763
0.14344
0.143128
0.142827
0.142536
0.142255
0.141983
0.141719
0.141464
0.141216
0.140975
0.140742
0.140515
0.140294
0.14008
0.139871
0.139668
0.13947
0.139277
0.139089
0.138906
0.138727
0.138552
0.138382
0.138215
0.138052
0.137893
0.137737
0.137585
0.137435
0.137289
0.137146
0.137006
0.136869
0.136734
0.136602
0.136472
0.136345
0.13622
0.136097
0.135977
0.135859
0.135742
0.135628
0.135516
0.135406
0.135297
0.13519
0.135085
0.134982
0.13488
0.13478
0.134681
0.134583
0.134487
0.134391
0.134296
0.134203
0.134114
0.134027
0.133942
0.133858
0.133776
0.133695
0.133616
0.133539
0.133464
0.13339
0.133318
0.133248
0.13318
0.133113
0.133048
0.132984
0.132922
0.132862
0.132802
0.132745
0.132688
0.132633
0.132579
0.132526
0.132473
0.132422
0.132371
0.13232
0.13227
0.132219
0.132168
0.132117
0.132065
0.132012
0.131958
0.131902
0.131845
0.131785
0.131723
0.131657
0.131589
0.131517
0.131442
0.131362
0.131278
0.131189
0.131095
0.130997
0.130893
0.130783
0.130668
0.130548
0.130421
0.13029
0.130152
0.13001
0.129862
0.12971
0.129552
0.129391
0.129226
0.129057
0.128886
0.128712
0.128536
0.128359
0.128182
0.128004
0.127827
0.127652
0.127478
0.127307
0.127139
0.126975
0.126815
0.12666
0.126511
0.126367
0.12623
0.126099
0.125975
0.125858
0.125749
0.125647
0.125553
0.125466
0.125387
0.125316
0.125253
0.125197
0.125148
0.125106
0.125071
0.125042
0.12502
0.125003
0.124992
0.124986
0.124984
0.124987
0.124994
0.125005
0.125018
0.125035
0.125053
0.125074
0.125097
0.125121
0.125146
0.125172
0.125198
0.125225
0.125252
0.125278
0.125304
0.125329
0.125354
0.125377
0.125399
0.125419
0.125436
0.12545
0.125458
)
;

boundaryField
{
    boundary
    {
        type            empty;
    }
    inlet
    {
        type            calculated;
        value           uniform 0.865082;
    }
    outlet
    {
        type            calculated;
        value           uniform 0.125458;
    }
}


// ************************************************************************* //
