/*--------------------------------*- C++ -*----------------------------------*\
  =========                 |
  \\      /  F ield         | OpenFOAM: The Open Source CFD Toolbox
   \\    /   O peration     | Website:  https://openfoam.org
    \\  /    A nd           | Version:  7
     \\/     M anipulation  |
\*---------------------------------------------------------------------------*/
FoamFile
{
    version     2.0;
    format      ascii;
    class       volVectorField;
    location    "0.0004";
    object      U;
}
// * * * * * * * * * * * * * * * * * * * * * * * * * * * * * * * * * * * * * //

dimensions      [0 1 -1 0 0 0 0];

internalField   nonuniform List<vector> 
500
(
(2.34891 0 0)
(2.3488 0 0)
(2.34868 0 0)
(2.34858 0 0)
(2.34848 0 0)
(2.34838 0 0)
(2.34828 0 0)
(2.34819 0 0)
(2.3481 0 0)
(2.34801 0 0)
(2.34792 0 0)
(2.34784 0 0)
(2.34776 0 0)
(2.34769 0 0)
(2.34762 0 0)
(2.34756 0 0)
(2.3475 0 0)
(2.34744 0 0)
(2.34738 0 0)
(2.34732 0 0)
(2.34726 0 0)
(2.3472 0 0)
(2.34713 0 0)
(2.34706 0 0)
(2.34697 0 0)
(2.34688 0 0)
(2.34677 0 0)
(2.34666 0 0)
(2.34654 0 0)
(2.34641 0 0)
(2.34627 0 0)
(2.34612 0 0)
(2.34597 0 0)
(2.34582 0 0)
(2.34567 0 0)
(2.34552 0 0)
(2.34537 0 0)
(2.34522 0 0)
(2.34507 0 0)
(2.34493 0 0)
(2.3448 0 0)
(2.34467 0 0)
(2.34454 0 0)
(2.34441 0 0)
(2.34429 0 0)
(2.34417 0 0)
(2.34406 0 0)
(2.34395 0 0)
(2.34383 0 0)
(2.34372 0 0)
(2.34362 0 0)
(2.34351 0 0)
(2.3434 0 0)
(2.34329 0 0)
(2.34319 0 0)
(2.34308 0 0)
(2.34298 0 0)
(2.34287 0 0)
(2.34277 0 0)
(2.34266 0 0)
(2.34256 0 0)
(2.34245 0 0)
(2.34235 0 0)
(2.34224 0 0)
(2.34214 0 0)
(2.34204 0 0)
(2.34193 0 0)
(2.34183 0 0)
(2.34173 0 0)
(2.34162 0 0)
(2.34152 0 0)
(2.34142 0 0)
(2.34131 0 0)
(2.34121 0 0)
(2.34111 0 0)
(2.341 0 0)
(2.3409 0 0)
(2.3408 0 0)
(2.3407 0 0)
(2.3406 0 0)
(2.3405 0 0)
(2.34039 0 0)
(2.34029 0 0)
(2.34019 0 0)
(2.34009 0 0)
(2.33999 0 0)
(2.33989 0 0)
(2.33979 0 0)
(2.33969 0 0)
(2.33959 0 0)
(2.33949 0 0)
(2.33939 0 0)
(2.3393 0 0)
(2.3392 0 0)
(2.3391 0 0)
(2.339 0 0)
(2.3389 0 0)
(2.3388 0 0)
(2.33871 0 0)
(2.33861 0 0)
(2.33851 0 0)
(2.33841 0 0)
(2.33832 0 0)
(2.33822 0 0)
(2.33812 0 0)
(2.33803 0 0)
(2.33793 0 0)
(2.33783 0 0)
(2.33774 0 0)
(2.33764 0 0)
(2.33755 0 0)
(2.33745 0 0)
(2.33735 0 0)
(2.33726 0 0)
(2.33716 0 0)
(2.33707 0 0)
(2.33697 0 0)
(2.33687 0 0)
(2.33678 0 0)
(2.33668 0 0)
(2.33659 0 0)
(2.33649 0 0)
(2.3364 0 0)
(2.3363 0 0)
(2.3362 0 0)
(2.33611 0 0)
(2.33602 0 0)
(2.33592 0 0)
(2.33582 0 0)
(2.33573 0 0)
(2.33563 0 0)
(2.33553 0 0)
(2.33544 0 0)
(2.33534 0 0)
(2.33524 0 0)
(2.33515 0 0)
(2.33505 0 0)
(2.33495 0 0)
(2.33486 0 0)
(2.33476 0 0)
(2.33466 0 0)
(2.33457 0 0)
(2.33447 0 0)
(2.33437 0 0)
(2.33427 0 0)
(2.33418 0 0)
(2.33408 0 0)
(2.33398 0 0)
(2.33388 0 0)
(2.33379 0 0)
(2.33369 0 0)
(2.33359 0 0)
(2.33349 0 0)
(2.33339 0 0)
(2.3333 0 0)
(2.3332 0 0)
(2.3331 0 0)
(2.333 0 0)
(2.33291 0 0)
(2.33281 0 0)
(2.33271 0 0)
(2.33261 0 0)
(2.33252 0 0)
(2.33242 0 0)
(2.33232 0 0)
(2.33222 0 0)
(2.33213 0 0)
(2.33203 0 0)
(2.33193 0 0)
(2.33184 0 0)
(2.33174 0 0)
(2.33165 0 0)
(2.33155 0 0)
(2.33146 0 0)
(2.33136 0 0)
(2.33127 0 0)
(2.33117 0 0)
(2.33108 0 0)
(2.33098 0 0)
(2.33089 0 0)
(2.3308 0 0)
(2.3307 0 0)
(2.33061 0 0)
(2.33052 0 0)
(2.33043 0 0)
(2.33033 0 0)
(2.33024 0 0)
(2.33015 0 0)
(2.33006 0 0)
(2.32997 0 0)
(2.32988 0 0)
(2.32979 0 0)
(2.3297 0 0)
(2.32961 0 0)
(2.32952 0 0)
(2.32944 0 0)
(2.32935 0 0)
(2.32926 0 0)
(2.32917 0 0)
(2.32908 0 0)
(2.329 0 0)
(2.32891 0 0)
(2.32882 0 0)
(2.32874 0 0)
(2.32865 0 0)
(2.32857 0 0)
(2.32848 0 0)
(2.3284 0 0)
(2.32831 0 0)
(2.32823 0 0)
(2.32814 0 0)
(2.32806 0 0)
(2.32797 0 0)
(2.32789 0 0)
(2.32781 0 0)
(2.32772 0 0)
(2.32764 0 0)
(2.32756 0 0)
(2.32747 0 0)
(2.32739 0 0)
(2.32731 0 0)
(2.32723 0 0)
(2.32714 0 0)
(2.32706 0 0)
(2.32698 0 0)
(2.3269 0 0)
(2.32682 0 0)
(2.32674 0 0)
(2.32665 0 0)
(2.32657 0 0)
(2.32649 0 0)
(2.32641 0 0)
(2.32633 0 0)
(2.32625 0 0)
(2.32617 0 0)
(2.32609 0 0)
(2.32601 0 0)
(2.32593 0 0)
(2.32585 0 0)
(2.32577 0 0)
(2.32569 0 0)
(2.32561 0 0)
(2.32553 0 0)
(2.32545 0 0)
(2.32537 0 0)
(2.32529 0 0)
(2.32521 0 0)
(2.32513 0 0)
(2.32505 0 0)
(2.32497 0 0)
(2.32489 0 0)
(2.32482 0 0)
(2.32474 0 0)
(2.32466 0 0)
(2.32458 0 0)
(2.32451 0 0)
(2.32443 0 0)
(2.32435 0 0)
(2.32427 0 0)
(2.3242 0 0)
(2.32412 0 0)
(2.32404 0 0)
(2.32396 0 0)
(2.32389 0 0)
(2.32381 0 0)
(2.32373 0 0)
(2.32365 0 0)
(2.32357 0 0)
(2.3235 0 0)
(2.32346 0 0)
(2.32355 0 0)
(2.32404 0 0)
(2.32585 0 0)
(2.33163 0 0)
(2.3482 0 0)
(2.39134 0 0)
(2.49528 0 0)
(2.73377 0 0)
(3.24088 0 0)
(4.15999 0 0)
(5.35357 0 0)
(6.58748 0 0)
(7.72079 0 0)
(8.71587 0 0)
(9.56606 0 0)
(10.2736 0 0)
(10.8509 0 0)
(11.3143 0 0)
(11.6859 0 0)
(11.9917 0 0)
(12.2508 0 0)
(12.4748 0 0)
(12.6711 0 0)
(12.845 0 0)
(13.0007 0 0)
(13.1412 0 0)
(13.269 0 0)
(13.3859 0 0)
(13.4935 0 0)
(13.5929 0 0)
(13.6852 0 0)
(13.7712 0 0)
(13.8516 0 0)
(13.9269 0 0)
(13.9979 0 0)
(14.0647 0 0)
(14.1279 0 0)
(14.1878 0 0)
(14.2445 0 0)
(14.2985 0 0)
(14.3497 0 0)
(14.3985 0 0)
(14.4438 0 0)
(14.4862 0 0)
(14.5271 0 0)
(14.5667 0 0)
(14.6048 0 0)
(14.6417 0 0)
(14.6773 0 0)
(14.7118 0 0)
(14.7451 0 0)
(14.7775 0 0)
(14.8088 0 0)
(14.8392 0 0)
(14.8688 0 0)
(14.8975 0 0)
(14.9254 0 0)
(14.9525 0 0)
(14.9789 0 0)
(15.0046 0 0)
(15.0296 0 0)
(15.054 0 0)
(15.0778 0 0)
(15.101 0 0)
(15.1236 0 0)
(15.1457 0 0)
(15.1673 0 0)
(15.1884 0 0)
(15.209 0 0)
(15.2292 0 0)
(15.2489 0 0)
(15.2682 0 0)
(15.2871 0 0)
(15.3055 0 0)
(15.3236 0 0)
(15.3414 0 0)
(15.3588 0 0)
(15.3758 0 0)
(15.3925 0 0)
(15.4089 0 0)
(15.425 0 0)
(15.4407 0 0)
(15.4562 0 0)
(15.4714 0 0)
(15.4863 0 0)
(15.501 0 0)
(15.5154 0 0)
(15.5296 0 0)
(15.5435 0 0)
(15.5572 0 0)
(15.5706 0 0)
(15.5839 0 0)
(15.5969 0 0)
(15.6097 0 0)
(15.6223 0 0)
(15.6347 0 0)
(15.647 0 0)
(15.659 0 0)
(15.6709 0 0)
(15.6826 0 0)
(15.6941 0 0)
(15.7055 0 0)
(15.7168 0 0)
(15.728 0 0)
(15.739 0 0)
(15.75 0 0)
(15.7608 0 0)
(15.7711 0 0)
(15.7813 0 0)
(15.7913 0 0)
(15.8012 0 0)
(15.8109 0 0)
(15.8205 0 0)
(15.83 0 0)
(15.8393 0 0)
(15.8485 0 0)
(15.8575 0 0)
(15.8665 0 0)
(15.8753 0 0)
(15.884 0 0)
(15.8926 0 0)
(15.9011 0 0)
(15.9095 0 0)
(15.9177 0 0)
(15.9259 0 0)
(15.934 0 0)
(15.942 0 0)
(15.9499 0 0)
(15.9577 0 0)
(15.9655 0 0)
(15.9731 0 0)
(15.9807 0 0)
(15.9882 0 0)
(15.9957 0 0)
(16.003 0 0)
(16.0104 0 0)
(16.0176 0 0)
(16.0248 0 0)
(16.0319 0 0)
(16.039 0 0)
(16.0461 0 0)
(16.0531 0 0)
(16.06 0 0)
(16.0669 0 0)
(16.0738 0 0)
(16.0806 0 0)
(16.0873 0 0)
(16.0941 0 0)
(16.1007 0 0)
(16.1074 0 0)
(16.1139 0 0)
(16.1204 0 0)
(16.1269 0 0)
(16.1333 0 0)
(16.1396 0 0)
(16.1458 0 0)
(16.1519 0 0)
(16.1579 0 0)
(16.1638 0 0)
(16.1696 0 0)
(16.1753 0 0)
(16.1808 0 0)
(16.1862 0 0)
(16.1914 0 0)
(16.1965 0 0)
(16.2013 0 0)
(16.206 0 0)
(16.2105 0 0)
(16.2148 0 0)
(16.2189 0 0)
(16.2227 0 0)
(16.2263 0 0)
(16.2297 0 0)
(16.2329 0 0)
(16.2358 0 0)
(16.2385 0 0)
(16.241 0 0)
(16.2432 0 0)
(16.2452 0 0)
(16.247 0 0)
(16.2486 0 0)
(16.25 0 0)
(16.2511 0 0)
(16.2521 0 0)
(16.253 0 0)
(16.2536 0 0)
(16.2541 0 0)
(16.2545 0 0)
(16.2547 0 0)
(16.2548 0 0)
(16.2549 0 0)
(16.2548 0 0)
(16.2547 0 0)
(16.2545 0 0)
(16.2543 0 0)
(16.2541 0 0)
(16.2538 0 0)
(16.2535 0 0)
(16.2533 0 0)
(16.253 0 0)
(16.2528 0 0)
(16.2525 0 0)
(16.2523 0 0)
(16.2522 0 0)
(16.2521 0 0)
(16.252 0 0)
(16.252 0 0)
(16.252 0 0)
(16.2521 0 0)
(16.2522 0 0)
(16.2523 0 0)
(16.2525 0 0)
(16.2528 0 0)
(16.253 0 0)
(16.2534 0 0)
(16.2537 0 0)
(16.2541 0 0)
(16.2545 0 0)
(16.2549 0 0)
(16.2553 0 0)
(16.2558 0 0)
(16.2563 0 0)
(16.2568 0 0)
(16.2574 0 0)
(16.2581 0 0)
(16.2589 0 0)
(16.2598 0 0)
(16.261 0 0)
(16.2626 0 0)
(16.2657 0 0)
)
;

boundaryField
{
    boundary
    {
        type            empty;
    }
    inlet
    {
        type            fixedValue;
        value           uniform (2.34893 0 0);
    }
    outlet
    {
        type            zeroGradient;
    }
}


// ************************************************************************* //
