/*--------------------------------*- C++ -*----------------------------------*\
  =========                 |
  \\      /  F ield         | OpenFOAM: The Open Source CFD Toolbox
   \\    /   O peration     | Website:  https://openfoam.org
    \\  /    A nd           | Version:  7
     \\/     M anipulation  |
\*---------------------------------------------------------------------------*/
FoamFile
{
    version     2.0;
    format      ascii;
    class       volScalarField;
    location    "0.00048";
    object      H;
}
// * * * * * * * * * * * * * * * * * * * * * * * * * * * * * * * * * * * * * //

dimensions      [0 0 0 0 0 0 0];

internalField   nonuniform List<scalar> 
500
(
1.48723e-41
2.01665e-41
2.13312e-41
2.16058e-41
2.16889e-41
2.17313e-41
2.17659e-41
2.18e-41
2.18359e-41
2.18747e-41
2.19175e-41
2.19658e-41
2.20212e-41
2.20857e-41
2.21614e-41
2.22509e-41
2.2357e-41
2.24825e-41
2.26305e-41
2.28043e-41
2.30069e-41
2.32413e-41
2.351e-41
2.38154e-41
2.41589e-41
2.45412e-41
2.49622e-41
2.54207e-41
2.59144e-41
2.64396e-41
2.69919e-41
2.75654e-41
2.81537e-41
2.87494e-41
2.93448e-41
2.99322e-41
3.05039e-41
3.1053e-41
3.15732e-41
3.20594e-41
3.25076e-41
3.29153e-41
3.32812e-41
3.36052e-41
3.38883e-41
3.41325e-41
3.43404e-41
3.45153e-41
3.46606e-41
3.47797e-41
3.48764e-41
3.49538e-41
3.50151e-41
3.50632e-41
3.51004e-41
3.51289e-41
3.51505e-41
3.51667e-41
3.51788e-41
3.51877e-41
3.51941e-41
3.51988e-41
3.52022e-41
3.52046e-41
3.52063e-41
3.52076e-41
3.52085e-41
3.52091e-41
3.52096e-41
3.521e-41
3.52103e-41
3.52106e-41
3.52109e-41
3.52111e-41
3.52114e-41
3.52116e-41
3.52119e-41
3.52121e-41
3.52124e-41
3.52127e-41
3.5213e-41
3.52133e-41
3.52137e-41
3.52141e-41
3.52144e-41
3.52148e-41
3.52153e-41
3.52157e-41
3.52162e-41
3.52167e-41
3.52172e-41
3.52177e-41
3.52183e-41
3.52189e-41
3.52195e-41
3.52201e-41
3.52208e-41
3.52215e-41
3.52222e-41
3.5223e-41
3.52237e-41
3.52246e-41
3.52254e-41
3.52263e-41
3.52272e-41
3.52282e-41
3.52291e-41
3.52302e-41
3.52312e-41
3.52323e-41
3.52335e-41
3.52346e-41
3.52358e-41
3.52371e-41
3.52384e-41
3.52397e-41
3.5241e-41
3.52424e-41
3.52439e-41
3.52454e-41
3.52469e-41
3.52484e-41
3.52498e-41
3.52509e-41
3.5251e-41
3.52509e-41
3.52532e-41
3.52561e-41
3.52591e-41
3.52618e-41
3.52643e-41
3.52665e-41
3.52686e-41
3.52706e-41
3.52726e-41
3.52746e-41
3.52766e-41
3.52787e-41
3.52808e-41
3.52829e-41
3.52851e-41
3.52872e-41
3.52894e-41
3.52916e-41
3.52939e-41
3.52961e-41
3.52983e-41
3.53006e-41
3.53029e-41
3.53052e-41
3.53076e-41
3.531e-41
3.53124e-41
3.53149e-41
3.53175e-41
3.532e-41
3.53227e-41
3.53253e-41
3.5328e-41
3.53307e-41
3.53334e-41
3.53361e-41
3.53388e-41
3.53414e-41
3.5344e-41
3.53466e-41
3.53491e-41
3.53516e-41
3.5354e-41
3.53563e-41
3.53585e-41
3.53606e-41
3.53626e-41
3.53645e-41
3.53663e-41
3.53679e-41
3.53695e-41
3.53709e-41
3.53721e-41
3.53732e-41
3.53742e-41
3.5375e-41
3.53756e-41
3.5376e-41
3.53763e-41
3.53763e-41
3.53762e-41
3.53758e-41
3.53752e-41
3.53743e-41
3.53732e-41
3.53719e-41
3.53702e-41
3.53683e-41
3.53661e-41
3.53636e-41
3.53607e-41
3.53575e-41
3.5354e-41
3.53501e-41
3.53459e-41
3.53412e-41
3.53362e-41
3.53308e-41
3.53249e-41
3.53186e-41
3.53119e-41
3.53047e-41
3.5297e-41
3.52889e-41
3.52803e-41
3.52712e-41
3.52616e-41
3.52518e-41
3.52425e-41
3.52374e-41
3.52505e-41
3.53399e-41
3.57378e-41
3.73687e-41
4.38773e-41
6.94974e-41
1.69309e-40
5.54475e-40
2.02705e-39
7.6053e-39
2.85426e-38
1.06411e-37
3.93376e-37
1.44136e-36
5.23423e-36
1.88393e-35
6.72121e-35
2.3771e-34
8.33528e-34
2.89822e-33
9.99443e-33
3.41891e-32
1.16046e-31
3.9095e-31
1.30779e-30
4.3463e-30
1.43611e-29
4.72252e-29
1.54761e-28
5.06318e-28
1.65757e-27
5.44661e-27
1.80338e-26
6.04659e-26
2.06565e-25
7.22141e-25
2.59552e-24
9.62703e-24
3.69801e-23
1.47118e-22
6.04506e-22
2.55414e-21
1.10408e-20
4.85981e-20
2.16984e-19
9.80122e-19
4.47294e-18
2.06251e-17
9.62462e-17
4.5603e-16
2.20534e-15
1.0961e-14
5.64436e-14
3.03468e-13
1.8196e-12
1.33109e-11
1.24074e-10
1.17868e-09
1.10226e-08
1.02427e-07
9.0216e-07
6.90576e-06
3.99381e-05
0.000148498
0.000355697
0.000647893
0.000999116
0.00135544
0.00164601
0.00183025
0.00191526
0.00192171
0.00188276
0.00181978
0.00174636
0.00167043
0.00159626
0.00152594
0.00146031
0.00139956
0.00134352
0.00129185
0.00124417
0.00120011
0.00115929
0.00112139
0.0010861
0.00105316
0.00102233
0.00099343
0.000966263
0.000940677
0.000916534
0.000893711
0.000872102
0.000851608
0.000832716
0.000815131
0.000798267
0.000782082
0.000766533
0.000751584
0.000737198
0.000723343
0.000709989
0.000697109
0.000684677
0.000672668
0.000661061
0.000649835
0.000638971
0.000628451
0.000618259
0.000608378
0.000598795
0.000589495
0.000580466
0.000571696
0.000563173
0.000554887
0.000546828
0.000538987
0.000531353
0.00052392
0.000516679
0.000509623
0.000502745
0.000496037
0.000489493
0.000483108
0.000476876
0.000470791
0.000464848
0.000459042
0.000453368
0.000447823
0.000442401
0.000437098
0.000431911
0.000426837
0.000421871
0.000417009
0.00041225
0.00040759
0.000403026
0.000398555
0.000394175
0.000389883
0.000385677
0.000381554
0.000377513
0.000373551
0.000369667
0.000365858
0.000362124
0.000358463
0.000354873
0.000351352
0.0003479
0.000344512
0.000341175
0.000337894
0.000334669
0.000331502
0.00032839
0.000325333
0.000322331
0.000319381
0.000316484
0.000313638
0.000310842
0.000308096
0.000305397
0.000302746
0.000300142
0.000297584
0.00029507
0.0002926
0.000290174
0.00028779
0.000285446
0.000283135
0.000280852
0.000278583
0.000276267
0.000274126
0.000272022
0.000269953
0.000267917
0.000265914
0.000263943
0.000262003
0.000260095
0.000258217
0.00025637
0.000254551
0.000252762
0.000251
0.000249266
0.000247558
0.000245876
0.000244219
0.000242587
0.000240977
0.000239389
0.000237823
0.000236276
0.000234749
0.00023324
0.000231748
0.000230271
0.000228809
0.000227361
0.000225925
0.000224499
0.000223084
0.000221677
0.000220276
0.000218882
0.000217492
0.000216106
0.000214721
0.000213337
0.000211952
0.000210566
0.000209176
0.000207782
0.000206383
0.000204977
0.000203564
0.000202142
0.00020071
0.000199268
0.000197815
0.00019635
0.000194873
0.000193382
0.000191878
0.00019036
0.000188828
0.00018728
0.000185719
0.000184142
0.00018255
0.000180943
0.000179322
0.000177686
0.000176035
0.000174371
0.000172692
0.000171
0.000169295
0.000167577
0.000165847
0.000164105
0.000162352
0.000160589
0.000158816
0.000157035
0.000155245
0.000153447
0.000151643
0.000149834
0.00014802
0.000146204
0.000144385
0.000142566
0.000140749
0.000138935
0.000137128
0.000135329
0.000133542
0.000131773
0.000130025
0.000128306
0.000126624
0.000124991
0.000123423
0.000121937
0.000120562
0.000119332
0.000118295
0.000117514
0.000117071
)
;

boundaryField
{
    boundary
    {
        type            empty;
    }
    inlet
    {
        type            fixedValue;
        value           uniform 0;
    }
    outlet
    {
        type            zeroGradient;
    }
}


// ************************************************************************* //
