/*--------------------------------*- C++ -*----------------------------------*\
  =========                 |
  \\      /  F ield         | OpenFOAM: The Open Source CFD Toolbox
   \\    /   O peration     | Website:  https://openfoam.org
    \\  /    A nd           | Version:  7
     \\/     M anipulation  |
\*---------------------------------------------------------------------------*/
FoamFile
{
    version     2.0;
    format      ascii;
    class       volScalarField;
    location    "0.00048";
    object      H2O;
}
// * * * * * * * * * * * * * * * * * * * * * * * * * * * * * * * * * * * * * //

dimensions      [0 0 0 0 0 0 0];

internalField   nonuniform List<scalar> 
500
(
7.90533e-48
2.28582e-47
4.11528e-47
6.17223e-47
8.38486e-47
1.07052e-46
1.31015e-46
1.55532e-46
1.80476e-46
2.05776e-46
2.31403e-46
2.57361e-46
2.83681e-46
3.10418e-46
3.37649e-46
3.65469e-46
3.93994e-46
4.23352e-46
4.5368e-46
4.85121e-46
5.17813e-46
5.51881e-46
5.87424e-46
6.2451e-46
6.63157e-46
7.03328e-46
7.44924e-46
7.87776e-46
8.31644e-46
8.76225e-46
9.21155e-46
9.66023e-46
1.01039e-45
1.0538e-45
1.09581e-45
1.13599e-45
1.17398e-45
1.20947e-45
1.24219e-45
1.27201e-45
1.29883e-45
1.32264e-45
1.34353e-45
1.3616e-45
1.37705e-45
1.39009e-45
1.40095e-45
1.40989e-45
1.41715e-45
1.42298e-45
1.42761e-45
1.43123e-45
1.43404e-45
1.43619e-45
1.43781e-45
1.43903e-45
1.43993e-45
1.44058e-45
1.44106e-45
1.4414e-45
1.44164e-45
1.44181e-45
1.44193e-45
1.44202e-45
1.44207e-45
1.44211e-45
1.44214e-45
1.44216e-45
1.44218e-45
1.44219e-45
1.4422e-45
1.44221e-45
1.44222e-45
1.44222e-45
1.44223e-45
1.44224e-45
1.44225e-45
1.44226e-45
1.44227e-45
1.44228e-45
1.44229e-45
1.44231e-45
1.44232e-45
1.44233e-45
1.44235e-45
1.44237e-45
1.44238e-45
1.4424e-45
1.44242e-45
1.44244e-45
1.44246e-45
1.44249e-45
1.44251e-45
1.44254e-45
1.44256e-45
1.44259e-45
1.44262e-45
1.44265e-45
1.44268e-45
1.44272e-45
1.44275e-45
1.44279e-45
1.44283e-45
1.44287e-45
1.44291e-45
1.44295e-45
1.443e-45
1.44305e-45
1.4431e-45
1.44315e-45
1.4432e-45
1.44325e-45
1.44331e-45
1.44337e-45
1.44343e-45
1.44349e-45
1.44355e-45
1.44362e-45
1.44369e-45
1.44375e-45
1.44382e-45
1.44386e-45
1.4438e-45
1.44339e-45
1.44163e-45
1.43836e-45
1.43859e-45
1.43888e-45
1.43927e-45
1.43977e-45
1.44036e-45
1.44103e-45
1.44177e-45
1.44252e-45
1.44325e-45
1.44393e-45
1.44451e-45
1.445e-45
1.44537e-45
1.44564e-45
1.44581e-45
1.4459e-45
1.44593e-45
1.4459e-45
1.44584e-45
1.44575e-45
1.44565e-45
1.44554e-45
1.44544e-45
1.44535e-45
1.44529e-45
1.44526e-45
1.44526e-45
1.4453e-45
1.44538e-45
1.4455e-45
1.44566e-45
1.44586e-45
1.44608e-45
1.44632e-45
1.44658e-45
1.44685e-45
1.44712e-45
1.44739e-45
1.44766e-45
1.44791e-45
1.44815e-45
1.44837e-45
1.44858e-45
1.44876e-45
1.44894e-45
1.44909e-45
1.44923e-45
1.44936e-45
1.44947e-45
1.44957e-45
1.44966e-45
1.44973e-45
1.4498e-45
1.44986e-45
1.4499e-45
1.44994e-45
1.44997e-45
1.44999e-45
1.44999e-45
1.44999e-45
1.44998e-45
1.44995e-45
1.44991e-45
1.44986e-45
1.4498e-45
1.44972e-45
1.44963e-45
1.44953e-45
1.44941e-45
1.44927e-45
1.44912e-45
1.44895e-45
1.44877e-45
1.44856e-45
1.44834e-45
1.4481e-45
1.44785e-45
1.44763e-45
1.44765e-45
1.44882e-45
1.45539e-45
1.48667e-45
1.62988e-45
2.27603e-45
5.16536e-45
1.79898e-44
7.45346e-44
3.22375e-43
1.40319e-42
6.09784e-42
2.64368e-41
1.14472e-40
4.9593e-40
2.15422e-39
9.40383e-39
4.13484e-38
1.83499e-37
8.23176e-37
3.73566e-36
1.71479e-35
7.954e-35
3.7217e-34
1.7527e-33
8.28728e-33
3.92454e-32
1.85714e-31
8.76418e-31
4.11776e-30
1.92357e-29
8.92482e-29
4.10963e-28
1.87711e-27
8.50193e-27
3.81782e-26
1.69969e-25
7.50258e-25
3.28396e-24
1.42565e-23
6.13973e-23
2.6237e-22
1.11281e-21
4.68592e-21
1.95966e-20
8.14212e-20
3.36234e-19
1.39333e-18
5.71291e-18
2.32374e-17
9.40536e-17
3.79207e-16
1.52386e-15
6.10637e-15
2.44099e-14
9.73769e-14
3.87791e-13
1.54214e-12
6.12558e-12
2.43093e-11
9.64022e-11
3.82093e-10
1.51385e-09
5.99633e-09
2.37471e-08
9.40325e-08
3.7227e-07
1.47321e-06
5.82475e-06
2.29777e-05
9.01059e-05
0.000347662
0.00128408
0.00426419
0.0115622
0.0242238
0.0408192
0.0609285
0.084889
0.110903
0.134955
0.153775
0.170152
0.179813
0.1863
0.190699
0.193768
0.196001
0.197706
0.199075
0.200223
0.201224
0.20212
0.202939
0.203699
0.204411
0.205083
0.205721
0.206329
0.206909
0.207465
0.207998
0.208509
0.209001
0.209475
0.209931
0.210371
0.210795
0.211191
0.211569
0.211936
0.212294
0.212643
0.212983
0.213315
0.213639
0.213956
0.214265
0.214568
0.214864
0.215154
0.215438
0.215716
0.215989
0.216256
0.216519
0.216776
0.217029
0.217278
0.217522
0.217762
0.217997
0.218229
0.218457
0.218681
0.218902
0.219119
0.219333
0.219543
0.21975
0.219954
0.220155
0.220353
0.220548
0.22074
0.22093
0.221116
0.2213
0.221481
0.22166
0.221836
0.22201
0.222182
0.222351
0.222518
0.222683
0.222845
0.223006
0.223164
0.22332
0.223475
0.223628
0.223779
0.223928
0.224075
0.224221
0.224365
0.224508
0.224649
0.224789
0.224928
0.225066
0.225203
0.225338
0.225471
0.225603
0.225734
0.225864
0.225993
0.226121
0.226248
0.226374
0.226499
0.226623
0.226747
0.22687
0.226992
0.227114
0.227236
0.227357
0.227477
0.227598
0.227717
0.227837
0.227959
0.228084
0.228222
0.228339
0.228458
0.228579
0.2287
0.228823
0.228947
0.229072
0.229197
0.229324
0.229452
0.229582
0.229712
0.229844
0.229978
0.230113
0.230249
0.230388
0.230527
0.230669
0.230813
0.230958
0.231105
0.231254
0.231405
0.231557
0.231711
0.231867
0.232025
0.232184
0.232345
0.232507
0.23267
0.232834
0.232999
0.233165
0.233332
0.233498
0.233665
0.233832
0.233999
0.234165
0.234331
0.234496
0.234659
0.234822
0.234982
0.235141
0.235299
0.235454
0.235607
0.235757
0.235905
0.236051
0.236194
0.236334
0.236471
0.236605
0.236736
0.236864
0.236989
0.237111
0.23723
0.237346
0.237459
0.237569
0.237676
0.237781
0.237882
0.237981
0.238077
0.23817
0.238261
0.238349
0.238435
0.238518
0.238598
0.238677
0.238753
0.238826
0.238897
0.238966
0.239032
0.239096
0.239158
0.239217
0.239274
0.239329
0.239381
0.239431
0.239478
0.239523
0.239565
0.239604
0.23964
0.239673
0.239702
0.239726
0.239746
0.239758
)
;

boundaryField
{
    boundary
    {
        type            empty;
    }
    inlet
    {
        type            fixedValue;
        value           uniform 0;
    }
    outlet
    {
        type            zeroGradient;
    }
}


// ************************************************************************* //
