/*--------------------------------*- C++ -*----------------------------------*\
  =========                 |
  \\      /  F ield         | OpenFOAM: The Open Source CFD Toolbox
   \\    /   O peration     | Website:  https://openfoam.org
    \\  /    A nd           | Version:  7
     \\/     M anipulation  |
\*---------------------------------------------------------------------------*/
FoamFile
{
    version     2.0;
    format      ascii;
    class       volScalarField;
    location    "0.00048";
    object      O;
}
// * * * * * * * * * * * * * * * * * * * * * * * * * * * * * * * * * * * * * //

dimensions      [0 0 0 0 0 0 0];

internalField   nonuniform List<scalar> 
500
(
1.58105e-47
3.77538e-47
5.98582e-47
8.20152e-47
1.04206e-46
1.26433e-46
1.48705e-46
1.71036e-46
1.93449e-46
2.15971e-46
2.38639e-46
2.615e-46
2.84612e-46
3.08043e-46
3.31875e-46
3.562e-46
3.81119e-46
4.06743e-46
4.33186e-46
4.60561e-46
4.88975e-46
5.18523e-46
5.49278e-46
5.81283e-46
6.14545e-46
6.49028e-46
6.84647e-46
7.21264e-46
7.58691e-46
7.96687e-46
8.3497e-46
8.73218e-46
9.11088e-46
9.48221e-46
9.84265e-46
1.01888e-45
1.05177e-45
1.08265e-45
1.11133e-45
1.13765e-45
1.16151e-45
1.1829e-45
1.20184e-45
1.2184e-45
1.23271e-45
1.24494e-45
1.25525e-45
1.26385e-45
1.27093e-45
1.2767e-45
1.28134e-45
1.28503e-45
1.28793e-45
1.29019e-45
1.29193e-45
1.29325e-45
1.29425e-45
1.29499e-45
1.29553e-45
1.29593e-45
1.29622e-45
1.29642e-45
1.29657e-45
1.29667e-45
1.29675e-45
1.2968e-45
1.29683e-45
1.29686e-45
1.29688e-45
1.29689e-45
1.2969e-45
1.29691e-45
1.29692e-45
1.29693e-45
1.29694e-45
1.29695e-45
1.29696e-45
1.29697e-45
1.29698e-45
1.29699e-45
1.297e-45
1.29701e-45
1.29702e-45
1.29703e-45
1.29705e-45
1.29706e-45
1.29708e-45
1.2971e-45
1.29711e-45
1.29713e-45
1.29715e-45
1.29717e-45
1.2972e-45
1.29722e-45
1.29724e-45
1.29727e-45
1.2973e-45
1.29732e-45
1.29735e-45
1.29738e-45
1.29742e-45
1.29745e-45
1.29748e-45
1.29752e-45
1.29756e-45
1.2976e-45
1.29764e-45
1.29768e-45
1.29772e-45
1.29777e-45
1.29782e-45
1.29787e-45
1.29792e-45
1.29797e-45
1.29802e-45
1.29808e-45
1.29814e-45
1.2982e-45
1.29826e-45
1.29832e-45
1.29837e-45
1.29838e-45
1.29828e-45
1.29778e-45
1.29609e-45
1.29365e-45
1.29418e-45
1.29484e-45
1.29559e-45
1.29638e-45
1.29715e-45
1.29784e-45
1.29841e-45
1.29885e-45
1.29916e-45
1.29936e-45
1.2995e-45
1.29959e-45
1.29965e-45
1.2997e-45
1.29974e-45
1.29978e-45
1.29983e-45
1.29987e-45
1.29991e-45
1.29995e-45
1.29999e-45
1.30002e-45
1.30007e-45
1.30011e-45
1.30016e-45
1.30022e-45
1.30029e-45
1.30037e-45
1.30047e-45
1.30058e-45
1.3007e-45
1.30084e-45
1.30099e-45
1.30115e-45
1.30132e-45
1.3015e-45
1.30168e-45
1.30186e-45
1.30204e-45
1.30221e-45
1.30239e-45
1.30255e-45
1.30271e-45
1.30285e-45
1.30299e-45
1.30312e-45
1.30323e-45
1.30334e-45
1.30344e-45
1.30352e-45
1.3036e-45
1.30367e-45
1.30373e-45
1.30378e-45
1.30382e-45
1.30386e-45
1.30388e-45
1.3039e-45
1.3039e-45
1.3039e-45
1.30389e-45
1.30386e-45
1.30383e-45
1.30379e-45
1.30373e-45
1.30366e-45
1.30358e-45
1.30348e-45
1.30338e-45
1.30325e-45
1.30312e-45
1.30297e-45
1.30281e-45
1.30268e-45
1.30274e-45
1.30376e-45
1.3093e-45
1.33593e-45
1.45958e-45
2.02586e-45
4.59382e-45
1.61361e-44
6.7566e-44
2.94738e-43
1.28943e-42
5.6065e-42
2.41772e-41
1.03351e-40
4.37876e-40
1.83855e-39
7.65003e-39
3.15423e-38
1.28868e-37
5.21679e-37
2.09241e-36
8.31501e-36
3.27371e-35
1.27694e-34
4.93455e-34
1.88916e-33
7.16536e-33
2.69253e-32
1.00241e-31
3.69755e-31
1.35141e-30
4.8943e-30
1.75656e-29
6.248e-29
2.20279e-28
7.69852e-28
2.66745e-27
9.16428e-27
3.12228e-26
1.05507e-25
3.53677e-25
1.17635e-24
3.88314e-24
1.2726e-23
4.14232e-23
1.33979e-22
4.30822e-22
1.378e-21
4.38633e-21
1.3901e-20
4.38777e-20
1.38942e-19
4.3717e-19
1.36721e-18
4.26032e-18
1.32399e-17
4.10562e-17
1.27082e-16
3.92763e-16
1.21237e-15
3.73856e-15
1.15194e-14
3.54727e-14
1.09187e-13
3.35989e-13
1.03372e-12
3.18015e-12
9.78313e-12
3.00953e-11
9.25761e-11
2.84755e-10
8.75967e-10
2.69783e-09
8.36019e-09
2.66034e-08
9.32344e-08
4.20219e-07
2.66201e-06
1.80093e-05
9.06572e-05
0.000361278
0.00107225
0.002261
0.00363046
0.0048231
0.00566836
0.0061796
0.00639539
0.00644465
0.00639166
0.0062794
0.00613534
0.00597635
0.00581248
0.00564956
0.00549082
0.00533794
0.00519171
0.00505237
0.00491986
0.00479396
0.00467436
0.00456071
0.00445266
0.00434986
0.00425196
0.00415865
0.00406965
0.00398466
0.00390345
0.00382579
0.00375151
0.0036826
0.00361757
0.00355479
0.00349414
0.00343548
0.00337872
0.00332376
0.0032705
0.00321887
0.00316878
0.00312016
0.00307295
0.00302707
0.00298247
0.00293908
0.00289687
0.00285576
0.00281573
0.00277672
0.0027387
0.00270162
0.00266545
0.00263015
0.00259569
0.00256205
0.00252919
0.00249708
0.00246571
0.00243504
0.00240505
0.00237573
0.00234704
0.00231898
0.00229151
0.00226463
0.00223832
0.00221255
0.00218732
0.0021626
0.00213839
0.00211466
0.0020914
0.00206861
0.00204625
0.00202434
0.00200284
0.00198175
0.00196106
0.00194075
0.00192082
0.00190126
0.00188205
0.00186319
0.00184466
0.00182646
0.00180858
0.00179101
0.00177375
0.00175677
0.00174008
0.00172366
0.00170751
0.00169162
0.00167597
0.00166056
0.00164538
0.00163044
0.00161573
0.00160125
0.00158698
0.00157293
0.00155908
0.00154543
0.00153197
0.00151871
0.00150563
0.00149272
0.00147999
0.00146742
0.00145501
0.00144276
0.00143065
0.0014187
0.00140688
0.00139521
0.00138365
0.00137209
0.00136045
0.00134775
0.00133685
0.00132591
0.00131498
0.00130407
0.00129319
0.00128235
0.00127155
0.00126077
0.00125001
0.00123927
0.00122854
0.00121781
0.00120709
0.00119635
0.0011856
0.00117482
0.00116402
0.00115319
0.00114231
0.00113139
0.00112042
0.0011094
0.00109832
0.00108719
0.00107599
0.00106473
0.0010534
0.00104202
0.00103057
0.00101906
0.0010075
0.00099589
0.000984233
0.000972536
0.000960807
0.000949053
0.000937285
0.000925512
0.000913745
0.000901994
0.000890272
0.000878592
0.000866966
0.000855407
0.00084393
0.000832548
0.000821274
0.000810122
0.000799105
0.000788236
0.000777527
0.00076699
0.000756635
0.000746475
0.000736517
0.00072677
0.000717241
0.000707938
0.000698865
0.000690026
0.000681424
0.000673062
0.000664939
0.000657056
0.000649411
0.000642001
0.000634823
0.000627872
0.000621143
0.000614629
0.000608325
0.000602222
0.000596312
0.000590587
0.000585038
0.000579657
0.000574434
0.00056936
0.000564426
0.000559623
0.000554944
0.00055038
0.000545924
0.00054157
0.000537313
0.000533149
0.000529076
0.000525094
0.000521207
0.000517421
0.000513747
0.000510203
0.000506815
0.000503618
0.000500664
0.000498017
0.000495767
0.000494033
0.000492996
)
;

boundaryField
{
    boundary
    {
        type            empty;
    }
    inlet
    {
        type            fixedValue;
        value           uniform 0;
    }
    outlet
    {
        type            zeroGradient;
    }
}


// ************************************************************************* //
