/*--------------------------------*- C++ -*----------------------------------*\
  =========                 |
  \\      /  F ield         | OpenFOAM: The Open Source CFD Toolbox
   \\    /   O peration     | Website:  https://openfoam.org
    \\  /    A nd           | Version:  7
     \\/     M anipulation  |
\*---------------------------------------------------------------------------*/
FoamFile
{
    version     2.0;
    format      ascii;
    class       volScalarField;
    location    "0.00048";
    object      O2;
}
// * * * * * * * * * * * * * * * * * * * * * * * * * * * * * * * * * * * * * //

dimensions      [0 0 0 0 0 0 0];

internalField   nonuniform List<scalar> 
500
(
0.226269
0.226269
0.226269
0.226269
0.226269
0.226269
0.226269
0.226269
0.226269
0.226269
0.226269
0.226269
0.226269
0.226269
0.226269
0.226269
0.226269
0.226269
0.226269
0.226269
0.226269
0.226269
0.226269
0.226269
0.226269
0.226269
0.226269
0.226269
0.226269
0.226269
0.226269
0.226269
0.226269
0.226269
0.226269
0.226269
0.226269
0.226269
0.226269
0.226269
0.226269
0.226269
0.226269
0.226269
0.226269
0.226269
0.226269
0.226269
0.226269
0.226269
0.226269
0.226269
0.226269
0.226269
0.226269
0.226269
0.226269
0.226269
0.226269
0.226269
0.226269
0.226269
0.226269
0.226269
0.226269
0.226269
0.226269
0.226269
0.226269
0.226269
0.226269
0.226269
0.226269
0.226269
0.226269
0.226269
0.226269
0.226269
0.226269
0.226269
0.226269
0.226269
0.226269
0.226269
0.226269
0.226269
0.226269
0.226269
0.226269
0.226269
0.226269
0.226269
0.226269
0.226269
0.226269
0.226269
0.226269
0.226269
0.226269
0.226269
0.226269
0.226269
0.226269
0.226269
0.226269
0.226269
0.226269
0.226269
0.226269
0.226269
0.226269
0.226269
0.226269
0.226269
0.226269
0.226269
0.226269
0.226269
0.226269
0.226269
0.226269
0.226269
0.226269
0.226269
0.226269
0.226269
0.226269
0.226269
0.226269
0.226269
0.226269
0.226269
0.226269
0.226269
0.226269
0.226269
0.226269
0.226269
0.226269
0.226269
0.226269
0.226269
0.226269
0.226269
0.226269
0.226269
0.226269
0.226269
0.226269
0.226269
0.226269
0.226269
0.226269
0.226269
0.226269
0.226269
0.226269
0.226269
0.226269
0.226269
0.226269
0.226269
0.226269
0.226269
0.226269
0.226269
0.226269
0.226269
0.226269
0.226269
0.226269
0.226269
0.226269
0.226269
0.226269
0.226269
0.226269
0.226269
0.226269
0.226269
0.226269
0.226269
0.226269
0.226269
0.226269
0.226269
0.226269
0.226269
0.226269
0.226269
0.226269
0.226269
0.226269
0.226269
0.226269
0.226269
0.226269
0.226269
0.226269
0.226269
0.226269
0.226269
0.226269
0.226269
0.226269
0.226269
0.226269
0.226269
0.226269
0.226269
0.226269
0.226269
0.226269
0.226269
0.226269
0.226269
0.226269
0.226269
0.226269
0.226269
0.226269
0.226269
0.226269
0.226269
0.226269
0.226269
0.226269
0.226269
0.226269
0.226269
0.226269
0.226269
0.226269
0.226269
0.226269
0.226269
0.226269
0.226269
0.226269
0.226269
0.226269
0.226269
0.226269
0.226269
0.226269
0.226269
0.226269
0.226269
0.226269
0.226269
0.226269
0.226269
0.226269
0.226269
0.226269
0.226269
0.226269
0.226269
0.226269
0.226269
0.226269
0.226269
0.226269
0.226269
0.226269
0.226269
0.226269
0.226269
0.22627
0.22627
0.226272
0.226274
0.226278
0.226276
0.22624
0.226047
0.225277
0.222861
0.216903
0.206281
0.19223
0.174422
0.151835
0.126099
0.101573
0.0820931
0.0645
0.0541427
0.0471395
0.0423946
0.0391164
0.036777
0.035039
0.0336906
0.0325998
0.031684
0.0308915
0.0301889
0.0295547
0.0289744
0.0284381
0.0279386
0.0274709
0.0270309
0.0266156
0.0262225
0.0258494
0.0254947
0.0251568
0.0248345
0.0245269
0.0242331
0.0239612
0.0237034
0.0234543
0.0232133
0.0229799
0.0227538
0.0225344
0.0223214
0.0221144
0.0219131
0.0217172
0.0215264
0.0213404
0.0211589
0.0209818
0.0208088
0.0206398
0.0204745
0.0203127
0.0201544
0.0199993
0.0198474
0.0196985
0.0195525
0.0194093
0.0192688
0.0191309
0.0189956
0.0188627
0.0187322
0.018604
0.0184781
0.0183544
0.0182329
0.0181134
0.0179959
0.0178805
0.0177669
0.0176553
0.0175454
0.0174374
0.0173311
0.0172265
0.0171235
0.0170221
0.0169222
0.0168239
0.016727
0.0166316
0.0165375
0.0164447
0.0163532
0.016263
0.016174
0.0160861
0.0159994
0.0159137
0.0158291
0.0157454
0.0156626
0.0155807
0.0154996
0.0154191
0.0153391
0.01526
0.0151823
0.0151053
0.0150291
0.0149536
0.0148788
0.0148046
0.0147309
0.0146578
0.0145852
0.0145131
0.0144414
0.0143701
0.0142991
0.0142284
0.014158
0.0140878
0.0140176
0.0139476
0.0138777
0.0138082
0.0137385
0.0136667
0.013592
0.0135096
0.0134408
0.0133702
0.0132984
0.0132255
0.0131516
0.0130766
0.0130006
0.0129235
0.0128452
0.0127656
0.0126848
0.0126026
0.012519
0.0124338
0.0123471
0.0122587
0.0121686
0.0120767
0.0119829
0.0118873
0.0117897
0.0116902
0.0115887
0.0114853
0.0113798
0.0112724
0.011163
0.0110517
0.0109386
0.0108237
0.0107071
0.0105889
0.0104692
0.0103481
0.0102259
0.0101026
0.00997838
0.00985348
0.00972807
0.00960235
0.00947654
0.00935085
0.00922551
0.00910076
0.00897682
0.00885393
0.00873232
0.00861223
0.00849388
0.0083775
0.0082633
0.00815149
0.00804227
0.00793582
0.00783233
0.00773194
0.00763482
0.00754109
0.00745088
0.00736428
0.00728139
0.00720228
0.00712701
0.00705562
0.00698814
0.00692459
0.00686496
0.00680924
0.00675742
0.00670944
0.00666527
0.00662484
0.00658808
0.00655493
0.00652529
0.00649907
0.00647617
0.00645649
0.00643992
0.00642635
0.00641566
0.00640772
0.00640241
0.00639961
0.00639919
0.00640101
0.00640494
0.00641084
0.00641857
0.00642798
0.0064389
0.00645115
0.00646452
0.00647878
0.00649359
0.0065085
0.00652285
0.00653548
0.00654419
)
;

boundaryField
{
    boundary
    {
        type            empty;
    }
    inlet
    {
        type            fixedValue;
        value           uniform 0.226269;
    }
    outlet
    {
        type            zeroGradient;
    }
}


// ************************************************************************* //
