/*--------------------------------*- C++ -*----------------------------------*\
  =========                 |
  \\      /  F ield         | OpenFOAM: The Open Source CFD Toolbox
   \\    /   O peration     | Website:  https://openfoam.org
    \\  /    A nd           | Version:  7
     \\/     M anipulation  |
\*---------------------------------------------------------------------------*/
FoamFile
{
    version     2.0;
    format      ascii;
    class       volScalarField;
    location    "0.00048";
    object      OH;
}
// * * * * * * * * * * * * * * * * * * * * * * * * * * * * * * * * * * * * * //

dimensions      [0 0 0 0 0 0 0];

internalField   nonuniform List<scalar> 
500
(
9.39925e-48
1.83317e-47
2.4455e-47
2.86188e-47
3.14519e-47
3.33891e-47
3.47255e-47
3.56598e-47
3.63266e-47
3.6817e-47
3.71934e-47
3.74989e-47
3.77641e-47
3.80113e-47
3.82575e-47
3.85161e-47
3.87986e-47
3.91151e-47
3.94748e-47
3.98864e-47
4.03579e-47
4.08969e-47
4.151e-47
4.22025e-47
4.29785e-47
4.38403e-47
4.47882e-47
4.58199e-47
4.69309e-47
4.81139e-47
4.93588e-47
5.06533e-47
5.19828e-47
5.33311e-47
5.46809e-47
5.60145e-47
5.73146e-47
5.8565e-47
5.97513e-47
6.08615e-47
6.18862e-47
6.28193e-47
6.36573e-47
6.43999e-47
6.50493e-47
6.56096e-47
6.60868e-47
6.64881e-47
6.68214e-47
6.70947e-47
6.73163e-47
6.74936e-47
6.7634e-47
6.77439e-47
6.78289e-47
6.7894e-47
6.79432e-47
6.79802e-47
6.80076e-47
6.80278e-47
6.80424e-47
6.80531e-47
6.80607e-47
6.80662e-47
6.80701e-47
6.80729e-47
6.8075e-47
6.80765e-47
6.80777e-47
6.80786e-47
6.80794e-47
6.80801e-47
6.80807e-47
6.80813e-47
6.80819e-47
6.80826e-47
6.80832e-47
6.80839e-47
6.80846e-47
6.80853e-47
6.80861e-47
6.80869e-47
6.80877e-47
6.80886e-47
6.80896e-47
6.80906e-47
6.80916e-47
6.80927e-47
6.80938e-47
6.8095e-47
6.80962e-47
6.80975e-47
6.80989e-47
6.81003e-47
6.81018e-47
6.81033e-47
6.81049e-47
6.81066e-47
6.81083e-47
6.81102e-47
6.8112e-47
6.8114e-47
6.8116e-47
6.81181e-47
6.81203e-47
6.81226e-47
6.81249e-47
6.81274e-47
6.81299e-47
6.81325e-47
6.81352e-47
6.81379e-47
6.81408e-47
6.81437e-47
6.81468e-47
6.81499e-47
6.81531e-47
6.81565e-47
6.81599e-47
6.81634e-47
6.81669e-47
6.81705e-47
6.81737e-47
6.81754e-47
6.81723e-47
6.81661e-47
6.81736e-47
6.81816e-47
6.81895e-47
6.81971e-47
6.8204e-47
6.82104e-47
6.82162e-47
6.82216e-47
6.82268e-47
6.82317e-47
6.82366e-47
6.82415e-47
6.82464e-47
6.82514e-47
6.82563e-47
6.82614e-47
6.82664e-47
6.82715e-47
6.82766e-47
6.82818e-47
6.82869e-47
6.82922e-47
6.82975e-47
6.83028e-47
6.83083e-47
6.83138e-47
6.83195e-47
6.83253e-47
6.83312e-47
6.83373e-47
6.83434e-47
6.83497e-47
6.8356e-47
6.83624e-47
6.83689e-47
6.83753e-47
6.83817e-47
6.83881e-47
6.83944e-47
6.84006e-47
6.84066e-47
6.84125e-47
6.84182e-47
6.84237e-47
6.84289e-47
6.8434e-47
6.84388e-47
6.84433e-47
6.84475e-47
6.84515e-47
6.84551e-47
6.84585e-47
6.84615e-47
6.84641e-47
6.84664e-47
6.84684e-47
6.84699e-47
6.8471e-47
6.84716e-47
6.84718e-47
6.84715e-47
6.84707e-47
6.84694e-47
6.84675e-47
6.8465e-47
6.84619e-47
6.84582e-47
6.84538e-47
6.84487e-47
6.8443e-47
6.84364e-47
6.84291e-47
6.8421e-47
6.84122e-47
6.84028e-47
6.83943e-47
6.83926e-47
6.84265e-47
6.86269e-47
6.95909e-47
7.40137e-47
9.3957e-47
1.82929e-46
5.76232e-46
2.29945e-45
9.78304e-45
4.19948e-44
1.79409e-43
7.60352e-43
3.19424e-42
1.32986e-41
5.48642e-41
2.24282e-40
9.0845e-40
3.64581e-39
1.44964e-38
5.71064e-38
2.22876e-37
8.61761e-37
3.30109e-36
1.25278e-35
4.71034e-35
1.75468e-34
6.47643e-34
2.36859e-33
8.58414e-33
3.08318e-32
1.09761e-31
3.87349e-31
1.35531e-30
4.70262e-30
1.61848e-29
5.52671e-29
1.87315e-28
6.30422e-28
2.10824e-27
7.01163e-27
2.32193e-26
7.66873e-26
2.53156e-25
8.37696e-25
2.78866e-24
9.38121e-24
3.20591e-23
1.11933e-22
4.04345e-22
1.50149e-21
5.75446e-21
2.28093e-20
9.33276e-20
3.92565e-19
1.68901e-18
7.39605e-18
3.28166e-17
1.47013e-16
6.63104e-16
3.00525e-15
1.36649e-14
6.2272e-14
2.84192e-13
1.29817e-12
5.9332e-12
2.7126e-11
1.24043e-10
5.73895e-10
2.68248e-09
1.2624e-08
5.99995e-08
2.94823e-07
1.59611e-06
1.02139e-05
6.91452e-05
0.000320923
0.000673489
0.000855372
0.00105826
0.00156924
0.00251984
0.00380434
0.00518756
0.00663146
0.00773286
0.00861226
0.00930123
0.00983756
0.0102563
0.0105858
0.0108474
0.0110569
0.0112258
0.0113626
0.0114738
0.011564
0.011637
0.0116956
0.0117422
0.0117785
0.0118061
0.0118262
0.0118398
0.0118479
0.011851
0.0118499
0.011845
0.0118369
0.0118258
0.0118128
0.011798
0.0117815
0.0117634
0.0117439
0.011723
0.0117009
0.0116777
0.0116534
0.0116283
0.0116024
0.0115757
0.0115484
0.0115204
0.0114919
0.0114628
0.0114333
0.0114034
0.0113731
0.0113425
0.0113116
0.0112804
0.011249
0.0112174
0.0111856
0.0111536
0.0111215
0.0110894
0.0110571
0.0110248
0.0109925
0.0109601
0.0109277
0.0108954
0.0108631
0.0108308
0.0107985
0.0107664
0.0107343
0.0107022
0.0106703
0.0106385
0.0106068
0.0105751
0.0105436
0.0105123
0.010481
0.0104499
0.0104189
0.0103881
0.0103574
0.0103268
0.0102964
0.0102661
0.010236
0.010206
0.0101762
0.0101465
0.010117
0.0100876
0.0100583
0.0100292
0.0100002
0.00997126
0.00994248
0.00991383
0.00988535
0.00985702
0.00982883
0.00980076
0.00977283
0.00974501
0.00971732
0.00968974
0.00966227
0.00963491
0.00960764
0.00958045
0.00955335
0.00952632
0.00949935
0.00947243
0.00944556
0.00941872
0.00939192
0.00936522
0.00933814
0.0093108
0.00928034
0.00925388
0.00922697
0.00919976
0.0091723
0.0091446
0.00911665
0.00908844
0.00905994
0.00903114
0.009002
0.0089725
0.00894261
0.00891231
0.00888158
0.00885038
0.00881869
0.00878649
0.00875375
0.00872045
0.00868658
0.00865212
0.00861704
0.00858135
0.00854503
0.00850808
0.00847049
0.00843228
0.00839344
0.008354
0.00831397
0.00827336
0.00823222
0.00819057
0.00814846
0.00810592
0.00806301
0.00801978
0.00797629
0.0079326
0.00788878
0.0078449
0.00780104
0.00775727
0.00771368
0.00767034
0.00762734
0.00758475
0.00754267
0.00750116
0.00746031
0.00742019
0.00738087
0.00734241
0.00730488
0.00726832
0.0072328
0.00719833
0.00716497
0.00713274
0.00710165
0.0070717
0.00704291
0.00701527
0.00698875
0.00696333
0.00693898
0.00691566
0.00689333
0.00687193
0.0068514
0.00683168
0.0068127
0.00679439
0.00677667
0.00675947
0.00674271
0.00672632
0.00671023
0.00669435
0.00667861
0.00666297
0.00664734
0.00663169
0.00661595
0.00660011
0.00658414
0.00656801
0.00655175
0.00653538
0.00651896
0.00650257
0.00648633
0.00647045
0.00645516
0.00644081
0.00642783
0.00641676
0.00640829
0.00640326
)
;

boundaryField
{
    boundary
    {
        type            empty;
    }
    inlet
    {
        type            fixedValue;
        value           uniform 0;
    }
    outlet
    {
        type            zeroGradient;
    }
}


// ************************************************************************* //
