/*--------------------------------*- C++ -*----------------------------------*\
  =========                 |
  \\      /  F ield         | OpenFOAM: The Open Source CFD Toolbox
   \\    /   O peration     | Website:  https://openfoam.org
    \\  /    A nd           | Version:  7
     \\/     M anipulation  |
\*---------------------------------------------------------------------------*/
FoamFile
{
    version     2.0;
    format      ascii;
    class       surfaceScalarField;
    location    "0.00048";
    object      phi;
}
// * * * * * * * * * * * * * * * * * * * * * * * * * * * * * * * * * * * * * //

dimensions      [1 0 -1 0 0 0 0];

internalField   nonuniform List<scalar> 
499
(
6.93516e-06
6.93474e-06
6.93432e-06
6.93391e-06
6.9335e-06
6.93309e-06
6.93267e-06
6.93226e-06
6.93183e-06
6.9314e-06
6.93096e-06
6.93051e-06
6.93003e-06
6.92953e-06
6.929e-06
6.92842e-06
6.9278e-06
6.92713e-06
6.92638e-06
6.92556e-06
6.92466e-06
6.92367e-06
6.92257e-06
6.92138e-06
6.92007e-06
6.91867e-06
6.91716e-06
6.91555e-06
6.91386e-06
6.9121e-06
6.91028e-06
6.90842e-06
6.90654e-06
6.90467e-06
6.90282e-06
6.90101e-06
6.89925e-06
6.89758e-06
6.89598e-06
6.89449e-06
6.89309e-06
6.89181e-06
6.89062e-06
6.88955e-06
6.88857e-06
6.88769e-06
6.88689e-06
6.88618e-06
6.88553e-06
6.88494e-06
6.88441e-06
6.88392e-06
6.88348e-06
6.88306e-06
6.88267e-06
6.8823e-06
6.88194e-06
6.8816e-06
6.88127e-06
6.88094e-06
6.88063e-06
6.88031e-06
6.88e-06
6.87969e-06
6.87939e-06
6.87908e-06
6.87878e-06
6.87848e-06
6.87818e-06
6.87787e-06
6.87757e-06
6.87727e-06
6.87697e-06
6.87667e-06
6.87637e-06
6.87607e-06
6.87577e-06
6.87547e-06
6.87517e-06
6.87487e-06
6.87457e-06
6.87427e-06
6.87397e-06
6.87367e-06
6.87337e-06
6.87307e-06
6.87277e-06
6.87247e-06
6.87218e-06
6.87188e-06
6.87158e-06
6.87128e-06
6.87098e-06
6.87069e-06
6.87039e-06
6.87009e-06
6.86979e-06
6.8695e-06
6.8692e-06
6.8689e-06
6.86861e-06
6.86831e-06
6.86802e-06
6.86772e-06
6.86742e-06
6.86713e-06
6.86683e-06
6.86654e-06
6.86624e-06
6.86595e-06
6.86566e-06
6.86536e-06
6.86507e-06
6.86477e-06
6.86448e-06
6.86419e-06
6.86389e-06
6.8636e-06
6.86331e-06
6.86301e-06
6.86272e-06
6.86243e-06
6.86214e-06
6.86185e-06
6.86155e-06
6.86126e-06
6.86097e-06
6.86067e-06
6.86038e-06
6.86009e-06
6.8598e-06
6.85951e-06
6.85922e-06
6.85893e-06
6.85864e-06
6.85835e-06
6.85806e-06
6.85777e-06
6.85749e-06
6.8572e-06
6.85691e-06
6.85663e-06
6.85634e-06
6.85606e-06
6.85577e-06
6.85549e-06
6.8552e-06
6.85492e-06
6.85463e-06
6.85435e-06
6.85407e-06
6.85378e-06
6.8535e-06
6.85322e-06
6.85294e-06
6.85266e-06
6.85238e-06
6.8521e-06
6.85182e-06
6.85154e-06
6.85126e-06
6.85098e-06
6.8507e-06
6.85042e-06
6.85014e-06
6.84987e-06
6.84959e-06
6.84931e-06
6.84904e-06
6.84876e-06
6.84849e-06
6.84822e-06
6.84794e-06
6.84767e-06
6.8474e-06
6.84713e-06
6.84686e-06
6.84659e-06
6.84632e-06
6.84605e-06
6.84579e-06
6.84552e-06
6.84526e-06
6.84499e-06
6.84473e-06
6.84446e-06
6.8442e-06
6.84394e-06
6.84368e-06
6.84342e-06
6.84317e-06
6.84291e-06
6.84265e-06
6.8424e-06
6.84214e-06
6.84189e-06
6.84164e-06
6.84139e-06
6.84114e-06
6.84089e-06
6.84065e-06
6.8404e-06
6.84016e-06
6.83992e-06
6.83968e-06
6.83944e-06
6.8392e-06
6.83896e-06
6.83873e-06
6.83849e-06
6.83826e-06
6.83803e-06
6.8378e-06
6.83757e-06
6.83735e-06
6.83712e-06
6.8369e-06
6.83668e-06
6.83646e-06
6.83624e-06
6.83603e-06
6.83581e-06
6.8356e-06
6.83539e-06
6.83518e-06
6.83497e-06
6.83477e-06
6.83457e-06
6.83436e-06
6.83417e-06
6.83397e-06
6.83377e-06
6.83358e-06
6.83339e-06
6.8332e-06
6.83301e-06
6.83282e-06
6.83264e-06
6.83245e-06
6.83227e-06
6.83209e-06
6.83192e-06
6.83174e-06
6.83157e-06
6.83139e-06
6.83122e-06
6.83105e-06
6.83088e-06
6.83072e-06
6.83055e-06
6.83039e-06
6.83022e-06
6.83006e-06
6.8299e-06
6.82973e-06
6.82958e-06
6.82942e-06
6.82926e-06
6.82911e-06
6.82896e-06
6.82881e-06
6.82866e-06
6.82851e-06
6.82837e-06
6.82822e-06
6.82808e-06
6.82793e-06
6.82779e-06
6.82765e-06
6.82753e-06
6.82747e-06
6.82757e-06
6.82818e-06
6.83029e-06
6.83671e-06
6.85465e-06
6.89703e-06
6.96684e-06
7.03774e-06
7.08853e-06
7.12136e-06
7.14346e-06
7.15916e-06
7.1704e-06
7.17842e-06
7.18413e-06
7.18828e-06
7.19141e-06
7.19386e-06
7.19584e-06
7.19747e-06
7.19885e-06
7.20003e-06
7.20106e-06
7.20196e-06
7.20277e-06
7.20349e-06
7.20414e-06
7.20473e-06
7.20527e-06
7.20577e-06
7.20622e-06
7.20664e-06
7.20703e-06
7.20739e-06
7.20772e-06
7.20803e-06
7.20832e-06
7.20859e-06
7.20884e-06
7.20907e-06
7.20929e-06
7.20948e-06
7.20967e-06
7.20984e-06
7.21e-06
7.21016e-06
7.21031e-06
7.21045e-06
7.21058e-06
7.21071e-06
7.21083e-06
7.21095e-06
7.21106e-06
7.21116e-06
7.21127e-06
7.21137e-06
7.21146e-06
7.21155e-06
7.21164e-06
7.21173e-06
7.21181e-06
7.21189e-06
7.21197e-06
7.21204e-06
7.21211e-06
7.21218e-06
7.21225e-06
7.21231e-06
7.21237e-06
7.21243e-06
7.21248e-06
7.21254e-06
7.21258e-06
7.21263e-06
7.21267e-06
7.21272e-06
7.21275e-06
7.21279e-06
7.21282e-06
7.21285e-06
7.21288e-06
7.21291e-06
7.21293e-06
7.21295e-06
7.21297e-06
7.21299e-06
7.21301e-06
7.21302e-06
7.21303e-06
7.21304e-06
7.21305e-06
7.21305e-06
7.21305e-06
7.21306e-06
7.21305e-06
7.21305e-06
7.21305e-06
7.21304e-06
7.21303e-06
7.21301e-06
7.21299e-06
7.21297e-06
7.21295e-06
7.21292e-06
7.21289e-06
7.21286e-06
7.21282e-06
7.21278e-06
7.21273e-06
7.21268e-06
7.21263e-06
7.21257e-06
7.2125e-06
7.21244e-06
7.21237e-06
7.21229e-06
7.21222e-06
7.21214e-06
7.21206e-06
7.21199e-06
7.21191e-06
7.21184e-06
7.21176e-06
7.21167e-06
7.21159e-06
7.21163e-06
7.21138e-06
7.21165e-06
7.2101e-06
7.21041e-06
7.21054e-06
7.21061e-06
7.21065e-06
7.21068e-06
7.2107e-06
7.21073e-06
7.21076e-06
7.2108e-06
7.21085e-06
7.21093e-06
7.21102e-06
7.21114e-06
7.21128e-06
7.21144e-06
7.21163e-06
7.21185e-06
7.21209e-06
7.21236e-06
7.21266e-06
7.21299e-06
7.21333e-06
7.2137e-06
7.21409e-06
7.21449e-06
7.2149e-06
7.21532e-06
7.21575e-06
7.21616e-06
7.21657e-06
7.21696e-06
7.21731e-06
7.21763e-06
7.2179e-06
7.21811e-06
7.21825e-06
7.21831e-06
7.21826e-06
7.21811e-06
7.21783e-06
7.21741e-06
7.21683e-06
7.21608e-06
7.21514e-06
7.214e-06
7.21265e-06
7.21106e-06
7.20922e-06
7.20713e-06
7.20477e-06
7.20214e-06
7.19921e-06
7.19599e-06
7.19246e-06
7.18864e-06
7.1845e-06
7.18007e-06
7.17534e-06
7.17031e-06
7.165e-06
7.15942e-06
7.15358e-06
7.1475e-06
7.14119e-06
7.13468e-06
7.12799e-06
7.12115e-06
7.11417e-06
7.1071e-06
7.09996e-06
7.09277e-06
7.08558e-06
7.0784e-06
7.07128e-06
7.06424e-06
7.05731e-06
7.05052e-06
7.0439e-06
7.03748e-06
7.03128e-06
7.02533e-06
7.01964e-06
7.01424e-06
7.00914e-06
7.00435e-06
6.9999e-06
6.99578e-06
6.992e-06
6.98858e-06
6.9855e-06
6.98278e-06
6.9804e-06
6.97837e-06
6.97666e-06
6.97529e-06
6.97422e-06
6.97345e-06
6.97296e-06
6.97269e-06
)
;

boundaryField
{
    boundary
    {
        type            empty;
        value           nonuniform 0();
    }
    inlet
    {
        type            calculated;
        value           uniform -6.93559e-06;
    }
    outlet
    {
        type            calculated;
        value           uniform 6.97257e-06;
    }
}


// ************************************************************************* //
