/*--------------------------------*- C++ -*----------------------------------*\
  =========                 |
  \\      /  F ield         | OpenFOAM: The Open Source CFD Toolbox
   \\    /   O peration     | Website:  https://openfoam.org
    \\  /    A nd           | Version:  7
     \\/     M anipulation  |
\*---------------------------------------------------------------------------*/
FoamFile
{
    version     2.0;
    format      ascii;
    class       volScalarField;
    location    "0.00048";
    object      Qdot;
}
// * * * * * * * * * * * * * * * * * * * * * * * * * * * * * * * * * * * * * //

dimensions      [1 -1 -3 0 0 0 0];

internalField   nonuniform List<scalar> 
500
(
-2.45656e-27
-1.86917e-27
-1.74437e-27
-1.71925e-27
-1.71564e-27
-1.71672e-27
-1.71888e-27
-1.72136e-27
-1.72405e-27
-1.72697e-27
-1.73019e-27
-1.73384e-27
-1.73802e-27
-1.74289e-27
-1.74862e-27
-1.7554e-27
-1.76343e-27
-1.77295e-27
-1.78419e-27
-1.79739e-27
-1.81279e-27
-1.8306e-27
-1.85104e-27
-1.87426e-27
-1.90038e-27
-1.92944e-27
-1.96144e-27
-1.99626e-27
-2.03373e-27
-2.07356e-27
-2.1154e-27
-2.15881e-27
-2.20327e-27
-2.24823e-27
-2.2931e-27
-2.33729e-27
-2.38022e-27
-2.42137e-27
-2.46027e-27
-2.49654e-27
-2.5299e-27
-2.56016e-27
-2.58724e-27
-2.61115e-27
-2.63199e-27
-2.6499e-27
-2.66511e-27
-2.67786e-27
-2.68842e-27
-2.69705e-27
-2.70403e-27
-2.7096e-27
-2.71399e-27
-2.71742e-27
-2.72007e-27
-2.72209e-27
-2.72362e-27
-2.72476e-27
-2.72561e-27
-2.72623e-27
-2.72668e-27
-2.727e-27
-2.72724e-27
-2.7274e-27
-2.72752e-27
-2.7276e-27
-2.72767e-27
-2.72771e-27
-2.72774e-27
-2.72777e-27
-2.72779e-27
-2.72781e-27
-2.72783e-27
-2.72785e-27
-2.72786e-27
-2.72788e-27
-2.7279e-27
-2.72792e-27
-2.72794e-27
-2.72796e-27
-2.72798e-27
-2.72801e-27
-2.72803e-27
-2.72806e-27
-2.72808e-27
-2.72811e-27
-2.72814e-27
-2.72817e-27
-2.72821e-27
-2.72824e-27
-2.72828e-27
-2.72832e-27
-2.72836e-27
-2.7284e-27
-2.72845e-27
-2.72849e-27
-2.72854e-27
-2.72859e-27
-2.72865e-27
-2.7287e-27
-2.72876e-27
-2.72882e-27
-2.72888e-27
-2.72895e-27
-2.72901e-27
-2.72908e-27
-2.72916e-27
-2.72923e-27
-2.72931e-27
-2.72939e-27
-2.72947e-27
-2.72956e-27
-2.72965e-27
-2.72974e-27
-2.72983e-27
-2.72993e-27
-2.73003e-27
-2.73013e-27
-2.73024e-27
-2.73035e-27
-2.73046e-27
-2.73058e-27
-2.73069e-27
-2.73077e-27
-2.7307e-27
-2.73055e-27
-2.73088e-27
-2.73114e-27
-2.73137e-27
-2.73158e-27
-2.73175e-27
-2.73192e-27
-2.73207e-27
-2.73221e-27
-2.73236e-27
-2.73251e-27
-2.73266e-27
-2.73281e-27
-2.73296e-27
-2.73312e-27
-2.73328e-27
-2.73344e-27
-2.7336e-27
-2.73376e-27
-2.73393e-27
-2.73409e-27
-2.73426e-27
-2.73443e-27
-2.7346e-27
-2.73477e-27
-2.73494e-27
-2.73512e-27
-2.7353e-27
-2.73548e-27
-2.73567e-27
-2.73586e-27
-2.73605e-27
-2.73625e-27
-2.73645e-27
-2.73665e-27
-2.73685e-27
-2.73705e-27
-2.73724e-27
-2.73744e-27
-2.73763e-27
-2.73783e-27
-2.73801e-27
-2.73819e-27
-2.73837e-27
-2.73854e-27
-2.7387e-27
-2.73885e-27
-2.739e-27
-2.73914e-27
-2.73927e-27
-2.73939e-27
-2.7395e-27
-2.73961e-27
-2.7397e-27
-2.73978e-27
-2.73985e-27
-2.7399e-27
-2.73995e-27
-2.73998e-27
-2.73999e-27
-2.73999e-27
-2.73998e-27
-2.73995e-27
-2.7399e-27
-2.73983e-27
-2.73975e-27
-2.73965e-27
-2.73952e-27
-2.73938e-27
-2.73921e-27
-2.73902e-27
-2.7388e-27
-2.73856e-27
-2.7383e-27
-2.738e-27
-2.73768e-27
-2.73734e-27
-2.73696e-27
-2.73655e-27
-2.73611e-27
-2.73564e-27
-2.73514e-27
-2.7346e-27
-2.73402e-27
-2.73341e-27
-2.73277e-27
-2.73207e-27
-2.73131e-27
-2.73039e-27
-2.72889e-27
-2.72513e-27
-2.71215e-27
-2.66153e-27
-2.45816e-27
-1.64059e-27
1.62451e-27
1.45523e-26
6.52726e-26
2.62425e-25
1.02164e-24
3.91813e-24
1.48657e-23
5.58591e-23
2.0794e-22
7.66948e-22
2.80293e-21
1.0151e-20
3.64331e-20
1.29604e-19
4.57018e-19
1.59771e-18
5.53844e-18
1.90406e-17
6.49339e-17
2.19724e-16
7.37987e-16
2.46138e-15
8.15705e-15
2.68827e-14
8.82029e-14
2.88543e-13
9.42989e-13
3.0865e-12
1.01507e-11
3.36792e-11
1.13304e-10
3.90708e-10
1.37707e-09
4.9903e-09
1.87017e-08
7.26243e-08
2.91902e-07
1.21008e-06
5.14854e-06
2.23646e-05
9.87193e-05
0.000441029
0.00198839
0.0090297
0.0412638
0.189752
0.87897
4.11075
19.4853
99.9765
564.674
3853.59
29105
244189
2.26051e+06
2.15939e+07
1.95651e+08
1.38762e+09
5.54745e+09
1.11228e+10
1.35654e+10
1.39034e+10
1.39397e+10
1.37224e+10
1.27557e+10
1.09935e+10
8.96392e+09
7.27726e+09
6.00878e+09
5.03776e+09
4.29838e+09
3.72767e+09
3.27866e+09
2.91825e+09
2.62342e+09
2.37809e+09
2.17092e+09
1.9937e+09
1.84046e+09
1.70669e+09
1.58897e+09
1.48463e+09
1.39157e+09
1.30811e+09
1.23288e+09
1.16478e+09
1.10288e+09
1.0464e+09
9.94695e+08
9.47229e+08
9.0355e+08
8.63331e+08
8.27188e+08
7.94147e+08
7.63111e+08
7.34016e+08
7.06667e+08
6.80918e+08
6.56642e+08
6.33711e+08
6.12028e+08
5.91499e+08
5.72038e+08
5.53568e+08
5.36021e+08
5.19332e+08
5.03443e+08
4.88301e+08
4.73858e+08
4.60068e+08
4.46892e+08
4.34291e+08
4.22231e+08
4.1068e+08
3.99608e+08
3.88988e+08
3.78795e+08
3.69005e+08
3.59597e+08
3.50549e+08
3.41844e+08
3.33463e+08
3.2539e+08
3.1761e+08
3.10107e+08
3.02869e+08
2.95883e+08
2.89137e+08
2.8262e+08
2.76321e+08
2.7023e+08
2.64338e+08
2.58636e+08
2.53116e+08
2.47769e+08
2.42589e+08
2.37568e+08
2.32701e+08
2.27979e+08
2.23398e+08
2.18951e+08
2.14634e+08
2.10441e+08
2.06368e+08
2.02409e+08
1.98561e+08
1.9482e+08
1.91181e+08
1.87641e+08
1.84197e+08
1.80845e+08
1.77582e+08
1.74407e+08
1.7132e+08
1.68325e+08
1.65431e+08
1.62595e+08
1.59752e+08
1.56997e+08
1.54319e+08
1.5171e+08
1.49166e+08
1.46684e+08
1.44262e+08
1.41896e+08
1.39585e+08
1.37329e+08
1.35124e+08
1.32969e+08
1.30864e+08
1.28805e+08
1.26792e+08
1.24824e+08
1.22898e+08
1.21017e+08
1.19194e+08
1.1748e+08
1.15706e+08
1.14212e+08
1.11639e+08
1.10195e+08
1.08666e+08
1.07119e+08
1.05579e+08
1.04057e+08
1.02558e+08
1.01083e+08
9.9633e+07
9.8208e+07
9.68075e+07
9.54311e+07
9.40779e+07
9.2747e+07
9.14381e+07
9.015e+07
8.88819e+07
8.76329e+07
8.64021e+07
8.51887e+07
8.39917e+07
8.28102e+07
8.16433e+07
8.04901e+07
7.93497e+07
7.82216e+07
7.71039e+07
7.59963e+07
7.48979e+07
7.38077e+07
7.27249e+07
7.16486e+07
7.0578e+07
6.95121e+07
6.84502e+07
6.73915e+07
6.63353e+07
6.5281e+07
6.4228e+07
6.31743e+07
6.21219e+07
6.10688e+07
6.00147e+07
5.89593e+07
5.79022e+07
5.68432e+07
5.57822e+07
5.47191e+07
5.36539e+07
5.25866e+07
5.15173e+07
5.04463e+07
4.93737e+07
4.82999e+07
4.72252e+07
4.61496e+07
4.50745e+07
4.39998e+07
4.2926e+07
4.18538e+07
4.07838e+07
3.97165e+07
3.86525e+07
3.75926e+07
3.65374e+07
3.54875e+07
3.44436e+07
3.34065e+07
3.23767e+07
3.13551e+07
3.03423e+07
2.9339e+07
2.83461e+07
2.73642e+07
2.63942e+07
2.54369e+07
2.44928e+07
2.35629e+07
2.2648e+07
2.17488e+07
2.08662e+07
2.00008e+07
1.91533e+07
1.83245e+07
1.7515e+07
1.67253e+07
1.59558e+07
1.52071e+07
1.44792e+07
1.37723e+07
1.30867e+07
1.24218e+07
1.17773e+07
1.11528e+07
1.05469e+07
9.95851e+06
9.38578e+06
8.82755e+06
8.28636e+06
7.77753e+06
7.38598e+06
)
;

boundaryField
{
    boundary
    {
        type            empty;
    }
    inlet
    {
        type            calculated;
        value           uniform 0;
    }
    outlet
    {
        type            calculated;
        value           uniform 0;
    }
}


// ************************************************************************* //
