/*--------------------------------*- C++ -*----------------------------------*\
  =========                 |
  \\      /  F ield         | OpenFOAM: The Open Source CFD Toolbox
   \\    /   O peration     | Website:  https://openfoam.org
    \\  /    A nd           | Version:  7
     \\/     M anipulation  |
\*---------------------------------------------------------------------------*/
FoamFile
{
    version     2.0;
    format      ascii;
    class       volScalarField;
    location    "0.00048";
    object      T;
}
// * * * * * * * * * * * * * * * * * * * * * * * * * * * * * * * * * * * * * //

dimensions      [0 0 0 1 0 0 0];

internalField   nonuniform List<scalar> 
500
(
300.004
300.008
300.013
300.017
300.022
300.027
300.031
300.036
300.041
300.047
300.053
300.06
300.068
300.078
300.089
300.101
300.117
300.134
300.155
300.18
300.208
300.241
300.277
300.319
300.365
300.415
300.469
300.528
300.59
300.654
300.721
300.789
300.857
300.924
300.99
301.054
301.115
301.173
301.226
301.276
301.321
301.361
301.397
301.428
301.455
301.478
301.498
301.514
301.528
301.539
301.548
301.555
301.56
301.565
301.568
301.571
301.573
301.574
301.575
301.576
301.577
301.577
301.577
301.578
301.578
301.578
301.578
301.578
301.578
301.578
301.578
301.578
301.578
301.578
301.578
301.578
301.578
301.578
301.578
301.578
301.578
301.578
301.578
301.578
301.578
301.578
301.579
301.579
301.579
301.579
301.579
301.579
301.579
301.579
301.579
301.579
301.579
301.579
301.579
301.579
301.579
301.579
301.579
301.58
301.58
301.58
301.58
301.58
301.58
301.58
301.58
301.58
301.58
301.58
301.581
301.581
301.581
301.581
301.581
301.581
301.581
301.582
301.582
301.582
301.582
301.582
301.582
301.582
301.583
301.583
301.583
301.583
301.583
301.584
301.584
301.584
301.584
301.584
301.584
301.585
301.585
301.585
301.585
301.585
301.586
301.586
301.586
301.586
301.586
301.587
301.587
301.587
301.587
301.588
301.588
301.588
301.588
301.589
301.589
301.589
301.589
301.59
301.59
301.59
301.59
301.59
301.591
301.591
301.591
301.591
301.592
301.592
301.592
301.592
301.592
301.592
301.593
301.593
301.593
301.593
301.593
301.593
301.593
301.593
301.593
301.593
301.593
301.593
301.593
301.593
301.593
301.593
301.593
301.592
301.592
301.592
301.592
301.591
301.591
301.591
301.59
301.59
301.589
301.589
301.588
301.588
301.587
301.587
301.586
301.585
301.584
301.584
301.583
301.582
301.581
301.58
301.579
301.577
301.576
301.575
301.574
301.572
301.571
301.57
301.568
301.566
301.565
301.563
301.561
301.56
301.558
301.556
301.554
301.552
301.55
301.548
301.545
301.543
301.541
301.538
301.536
301.534
301.531
301.528
301.526
301.523
301.52
301.518
301.515
301.512
301.509
301.506
301.503
301.5
301.497
301.494
301.491
301.488
301.485
301.482
301.479
301.476
301.472
301.469
301.466
301.463
301.46
301.459
301.461
301.474
301.517
301.644
302.014
303.076
306.114
314.745
338.378
395.403
501.965
647.415
802.98
952.863
1093.15
1219.59
1325.78
1416.12
1492.56
1553.34
1601.69
1642.83
1678.28
1709.31
1736.82
1761.46
1783.75
1804.04
1822.65
1839.8
1855.68
1870.45
1884.24
1897.15
1909.28
1920.71
1931.5
1941.71
1951.39
1960.59
1969.35
1977.69
1985.65
1993.24
2000.29
2006.92
2013.34
2019.54
2025.54
2031.35
2036.97
2042.43
2047.72
2052.85
2057.84
2062.69
2067.4
2071.99
2076.45
2080.8
2085.03
2089.16
2093.19
2097.12
2100.96
2104.71
2108.36
2111.94
2115.44
2118.86
2122.2
2125.48
2128.68
2131.82
2134.9
2137.91
2140.87
2143.76
2146.6
2149.39
2152.13
2154.81
2157.45
2160.04
2162.58
2165.08
2167.54
2169.95
2172.32
2174.66
2176.95
2179.21
2181.44
2183.62
2185.78
2187.89
2189.98
2192.04
2194.06
2196.06
2198.02
2199.96
2201.87
2203.75
2205.6
2207.43
2209.22
2210.99
2212.74
2214.47
2216.18
2217.87
2219.53
2221.17
2222.79
2224.4
2225.97
2227.53
2229.07
2230.59
2232.09
2233.56
2235.02
2236.46
2237.88
2239.27
2240.65
2242.01
2243.33
2244.66
2245.99
2247.3
2248.74
2249.93
2251.13
2252.31
2253.47
2254.62
2255.74
2256.84
2257.92
2258.98
2260.02
2261.03
2262.01
2262.97
2263.9
2264.81
2265.69
2266.54
2267.37
2268.18
2268.95
2269.71
2270.44
2271.15
2271.84
2272.5
2273.16
2273.79
2274.41
2275.03
2275.63
2276.24
2276.84
2277.44
2278.05
2278.68
2279.32
2279.98
2280.67
2281.39
2282.14
2282.94
2283.79
2284.69
2285.64
2286.67
2287.75
2288.92
2290.16
2291.48
2292.89
2294.39
2295.98
2297.66
2299.44
2301.32
2303.29
2305.36
2307.52
2309.77
2312.11
2314.53
2317.03
2319.61
2322.25
2324.95
2327.71
2330.5
2333.34
2336.2
2339.07
2341.96
2344.84
2347.7
2350.55
2353.36
2356.13
2358.85
2361.5
2364.09
2366.61
2369.04
2371.38
2373.62
2375.77
2377.81
2379.74
2381.57
2383.28
2384.88
2386.36
2387.74
2389
2390.16
2391.21
2392.15
2392.99
2393.71
2394.29
2394.65
)
;

boundaryField
{
    boundary
    {
        type            empty;
    }
    inlet
    {
        type            fixedValue;
        value           uniform 300;
    }
    outlet
    {
        type            zeroGradient;
    }
}


// ************************************************************************* //
