/*--------------------------------*- C++ -*----------------------------------*\
  =========                 |
  \\      /  F ield         | OpenFOAM: The Open Source CFD Toolbox
   \\    /   O peration     | Website:  https://openfoam.org
    \\  /    A nd           | Version:  7
     \\/     M anipulation  |
\*---------------------------------------------------------------------------*/
FoamFile
{
    version     2.0;
    format      ascii;
    class       volVectorField;
    location    "0.00048";
    object      U;
}
// * * * * * * * * * * * * * * * * * * * * * * * * * * * * * * * * * * * * * //

dimensions      [0 1 -1 0 0 0 0];

internalField   nonuniform List<vector> 
500
(
(2.34891 0 0)
(2.3488 0 0)
(2.34868 0 0)
(2.34857 0 0)
(2.34847 0 0)
(2.34836 0 0)
(2.34826 0 0)
(2.34816 0 0)
(2.34806 0 0)
(2.34796 0 0)
(2.34786 0 0)
(2.34776 0 0)
(2.34767 0 0)
(2.34758 0 0)
(2.34749 0 0)
(2.3474 0 0)
(2.34732 0 0)
(2.34724 0 0)
(2.34716 0 0)
(2.34709 0 0)
(2.34702 0 0)
(2.34695 0 0)
(2.34689 0 0)
(2.34682 0 0)
(2.34676 0 0)
(2.34669 0 0)
(2.34662 0 0)
(2.34655 0 0)
(2.34647 0 0)
(2.34639 0 0)
(2.3463 0 0)
(2.3462 0 0)
(2.34609 0 0)
(2.34598 0 0)
(2.34586 0 0)
(2.34574 0 0)
(2.34561 0 0)
(2.34547 0 0)
(2.34533 0 0)
(2.34519 0 0)
(2.34505 0 0)
(2.3449 0 0)
(2.34476 0 0)
(2.34462 0 0)
(2.34448 0 0)
(2.34435 0 0)
(2.34421 0 0)
(2.34408 0 0)
(2.34396 0 0)
(2.34384 0 0)
(2.34371 0 0)
(2.3436 0 0)
(2.34348 0 0)
(2.34337 0 0)
(2.34326 0 0)
(2.34315 0 0)
(2.34304 0 0)
(2.34294 0 0)
(2.34283 0 0)
(2.34272 0 0)
(2.34262 0 0)
(2.34252 0 0)
(2.34241 0 0)
(2.34231 0 0)
(2.34221 0 0)
(2.3421 0 0)
(2.342 0 0)
(2.3419 0 0)
(2.34179 0 0)
(2.34169 0 0)
(2.34159 0 0)
(2.34149 0 0)
(2.34138 0 0)
(2.34128 0 0)
(2.34118 0 0)
(2.34108 0 0)
(2.34098 0 0)
(2.34087 0 0)
(2.34077 0 0)
(2.34067 0 0)
(2.34057 0 0)
(2.34047 0 0)
(2.34037 0 0)
(2.34026 0 0)
(2.34016 0 0)
(2.34006 0 0)
(2.33996 0 0)
(2.33986 0 0)
(2.33976 0 0)
(2.33966 0 0)
(2.33955 0 0)
(2.33945 0 0)
(2.33935 0 0)
(2.33925 0 0)
(2.33915 0 0)
(2.33905 0 0)
(2.33895 0 0)
(2.33885 0 0)
(2.33875 0 0)
(2.33865 0 0)
(2.33855 0 0)
(2.33845 0 0)
(2.33835 0 0)
(2.33825 0 0)
(2.33815 0 0)
(2.33805 0 0)
(2.33795 0 0)
(2.33785 0 0)
(2.33775 0 0)
(2.33765 0 0)
(2.33755 0 0)
(2.33745 0 0)
(2.33735 0 0)
(2.33725 0 0)
(2.33715 0 0)
(2.33705 0 0)
(2.33695 0 0)
(2.33686 0 0)
(2.33676 0 0)
(2.33666 0 0)
(2.33656 0 0)
(2.33646 0 0)
(2.33636 0 0)
(2.33626 0 0)
(2.33616 0 0)
(2.33606 0 0)
(2.33597 0 0)
(2.33587 0 0)
(2.33577 0 0)
(2.33567 0 0)
(2.33558 0 0)
(2.33548 0 0)
(2.33538 0 0)
(2.33528 0 0)
(2.33519 0 0)
(2.33509 0 0)
(2.335 0 0)
(2.3349 0 0)
(2.3348 0 0)
(2.33471 0 0)
(2.33461 0 0)
(2.33451 0 0)
(2.33442 0 0)
(2.33432 0 0)
(2.33423 0 0)
(2.33413 0 0)
(2.33404 0 0)
(2.33394 0 0)
(2.33385 0 0)
(2.33375 0 0)
(2.33366 0 0)
(2.33356 0 0)
(2.33347 0 0)
(2.33337 0 0)
(2.33328 0 0)
(2.33319 0 0)
(2.33309 0 0)
(2.333 0 0)
(2.33291 0 0)
(2.33281 0 0)
(2.33272 0 0)
(2.33263 0 0)
(2.33253 0 0)
(2.33244 0 0)
(2.33235 0 0)
(2.33226 0 0)
(2.33216 0 0)
(2.33207 0 0)
(2.33198 0 0)
(2.33189 0 0)
(2.33179 0 0)
(2.3317 0 0)
(2.33161 0 0)
(2.33152 0 0)
(2.33143 0 0)
(2.33134 0 0)
(2.33125 0 0)
(2.33116 0 0)
(2.33107 0 0)
(2.33098 0 0)
(2.33089 0 0)
(2.3308 0 0)
(2.33071 0 0)
(2.33062 0 0)
(2.33053 0 0)
(2.33044 0 0)
(2.33035 0 0)
(2.33026 0 0)
(2.33017 0 0)
(2.33008 0 0)
(2.32999 0 0)
(2.3299 0 0)
(2.32981 0 0)
(2.32973 0 0)
(2.32964 0 0)
(2.32955 0 0)
(2.32946 0 0)
(2.32938 0 0)
(2.32929 0 0)
(2.3292 0 0)
(2.32911 0 0)
(2.32903 0 0)
(2.32894 0 0)
(2.32885 0 0)
(2.32877 0 0)
(2.32868 0 0)
(2.3286 0 0)
(2.32851 0 0)
(2.32842 0 0)
(2.32834 0 0)
(2.32825 0 0)
(2.32817 0 0)
(2.32808 0 0)
(2.328 0 0)
(2.32791 0 0)
(2.32783 0 0)
(2.32774 0 0)
(2.32766 0 0)
(2.32758 0 0)
(2.32749 0 0)
(2.32741 0 0)
(2.32732 0 0)
(2.32724 0 0)
(2.32716 0 0)
(2.32708 0 0)
(2.32699 0 0)
(2.32691 0 0)
(2.32683 0 0)
(2.32675 0 0)
(2.32666 0 0)
(2.32658 0 0)
(2.3265 0 0)
(2.32642 0 0)
(2.32634 0 0)
(2.32626 0 0)
(2.32618 0 0)
(2.32609 0 0)
(2.32601 0 0)
(2.32593 0 0)
(2.32585 0 0)
(2.32577 0 0)
(2.32569 0 0)
(2.32561 0 0)
(2.32553 0 0)
(2.32546 0 0)
(2.32538 0 0)
(2.3253 0 0)
(2.32522 0 0)
(2.32514 0 0)
(2.32506 0 0)
(2.32498 0 0)
(2.3249 0 0)
(2.32482 0 0)
(2.32475 0 0)
(2.32467 0 0)
(2.32459 0 0)
(2.32452 0 0)
(2.32444 0 0)
(2.32436 0 0)
(2.32429 0 0)
(2.32421 0 0)
(2.32414 0 0)
(2.32406 0 0)
(2.32398 0 0)
(2.32391 0 0)
(2.32383 0 0)
(2.32376 0 0)
(2.32369 0 0)
(2.32361 0 0)
(2.32363 0 0)
(2.32381 0 0)
(2.32465 0 0)
(2.32752 0 0)
(2.33631 0 0)
(2.36057 0 0)
(2.42154 0 0)
(2.56549 0 0)
(2.8856 0 0)
(3.54648 0 0)
(4.59621 0 0)
(5.82783 0 0)
(7.02899 0 0)
(8.10682 0 0)
(9.04023 0 0)
(9.82628 0 0)
(10.4815 0 0)
(11.0257 0 0)
(11.4641 0 0)
(11.8104 0 0)
(12.0931 0 0)
(12.3342 0 0)
(12.5447 0 0)
(12.7303 0 0)
(12.8956 0 0)
(13.0441 0 0)
(13.1786 0 0)
(13.3013 0 0)
(13.414 0 0)
(13.5179 0 0)
(13.6142 0 0)
(13.7038 0 0)
(13.7874 0 0)
(13.8657 0 0)
(13.9393 0 0)
(14.0085 0 0)
(14.0739 0 0)
(14.1357 0 0)
(14.1943 0 0)
(14.25 0 0)
(14.3028 0 0)
(14.3531 0 0)
(14.401 0 0)
(14.4455 0 0)
(14.4871 0 0)
(14.5274 0 0)
(14.5663 0 0)
(14.6038 0 0)
(14.6401 0 0)
(14.6752 0 0)
(14.7091 0 0)
(14.742 0 0)
(14.7739 0 0)
(14.8048 0 0)
(14.8348 0 0)
(14.864 0 0)
(14.8923 0 0)
(14.9199 0 0)
(14.9467 0 0)
(14.9728 0 0)
(14.9982 0 0)
(15.0229 0 0)
(15.0471 0 0)
(15.0706 0 0)
(15.0936 0 0)
(15.116 0 0)
(15.1379 0 0)
(15.1593 0 0)
(15.1801 0 0)
(15.2006 0 0)
(15.2205 0 0)
(15.2401 0 0)
(15.2592 0 0)
(15.2779 0 0)
(15.2962 0 0)
(15.3142 0 0)
(15.3317 0 0)
(15.349 0 0)
(15.3659 0 0)
(15.3824 0 0)
(15.3987 0 0)
(15.4146 0 0)
(15.4302 0 0)
(15.4456 0 0)
(15.4607 0 0)
(15.4755 0 0)
(15.49 0 0)
(15.5043 0 0)
(15.5183 0 0)
(15.5321 0 0)
(15.5457 0 0)
(15.559 0 0)
(15.5721 0 0)
(15.585 0 0)
(15.5977 0 0)
(15.6102 0 0)
(15.6225 0 0)
(15.6346 0 0)
(15.6465 0 0)
(15.6583 0 0)
(15.6699 0 0)
(15.6813 0 0)
(15.6925 0 0)
(15.7036 0 0)
(15.7145 0 0)
(15.7252 0 0)
(15.7358 0 0)
(15.7462 0 0)
(15.7564 0 0)
(15.7665 0 0)
(15.7766 0 0)
(15.7865 0 0)
(15.7963 0 0)
(15.8059 0 0)
(15.8153 0 0)
(15.8247 0 0)
(15.8339 0 0)
(15.8431 0 0)
(15.8521 0 0)
(15.8609 0 0)
(15.8697 0 0)
(15.8784 0 0)
(15.8869 0 0)
(15.8954 0 0)
(15.9037 0 0)
(15.9119 0 0)
(15.92 0 0)
(15.9281 0 0)
(15.9361 0 0)
(15.9442 0 0)
(15.9513 0 0)
(15.9582 0 0)
(15.9665 0 0)
(15.9742 0 0)
(15.9816 0 0)
(15.989 0 0)
(15.9962 0 0)
(16.0034 0 0)
(16.0105 0 0)
(16.0174 0 0)
(16.0243 0 0)
(16.0311 0 0)
(16.0379 0 0)
(16.0445 0 0)
(16.0511 0 0)
(16.0576 0 0)
(16.064 0 0)
(16.0703 0 0)
(16.0766 0 0)
(16.0828 0 0)
(16.089 0 0)
(16.0951 0 0)
(16.1011 0 0)
(16.1071 0 0)
(16.113 0 0)
(16.1189 0 0)
(16.1247 0 0)
(16.1305 0 0)
(16.1363 0 0)
(16.142 0 0)
(16.1476 0 0)
(16.1532 0 0)
(16.1588 0 0)
(16.1644 0 0)
(16.1699 0 0)
(16.1754 0 0)
(16.1808 0 0)
(16.1863 0 0)
(16.1917 0 0)
(16.197 0 0)
(16.2024 0 0)
(16.2077 0 0)
(16.213 0 0)
(16.2183 0 0)
(16.2236 0 0)
(16.2288 0 0)
(16.2339 0 0)
(16.2391 0 0)
(16.2442 0 0)
(16.2492 0 0)
(16.2542 0 0)
(16.2591 0 0)
(16.264 0 0)
(16.2688 0 0)
(16.2735 0 0)
(16.2781 0 0)
(16.2826 0 0)
(16.2871 0 0)
(16.2914 0 0)
(16.2956 0 0)
(16.2996 0 0)
(16.3035 0 0)
(16.3073 0 0)
(16.3109 0 0)
(16.3144 0 0)
(16.3177 0 0)
(16.3208 0 0)
(16.3238 0 0)
(16.3265 0 0)
(16.3291 0 0)
(16.3315 0 0)
(16.3338 0 0)
(16.3358 0 0)
(16.3377 0 0)
(16.3394 0 0)
(16.3409 0 0)
(16.3422 0 0)
(16.3434 0 0)
(16.3444 0 0)
(16.3453 0 0)
(16.346 0 0)
(16.3466 0 0)
(16.3471 0 0)
(16.3475 0 0)
(16.3478 0 0)
(16.348 0 0)
(16.3481 0 0)
(16.3482 0 0)
(16.3482 0 0)
(16.3482 0 0)
(16.3482 0 0)
(16.3482 0 0)
(16.3483 0 0)
(16.3484 0 0)
(16.3487 0 0)
(16.3491 0 0)
(16.3497 0 0)
(16.3506 0 0)
(16.3518 0 0)
(16.3531 0 0)
(16.3542 0 0)
)
;

boundaryField
{
    boundary
    {
        type            empty;
    }
    inlet
    {
        type            fixedValue;
        value           uniform (2.34893 0 0);
    }
    outlet
    {
        type            zeroGradient;
    }
}


// ************************************************************************* //
