/*--------------------------------*- C++ -*----------------------------------*\
  =========                 |
  \\      /  F ield         | OpenFOAM: The Open Source CFD Toolbox
   \\    /   O peration     | Website:  https://openfoam.org
    \\  /    A nd           | Version:  7
     \\/     M anipulation  |
\*---------------------------------------------------------------------------*/
FoamFile
{
    version     2.0;
    format      ascii;
    class       volScalarField;
    location    "0.00076";
    object      H;
}
// * * * * * * * * * * * * * * * * * * * * * * * * * * * * * * * * * * * * * //

dimensions      [0 0 0 0 0 0 0];

internalField   nonuniform List<scalar> 
500
(
1.48613e-41
2.0131e-41
2.12634e-41
2.14994e-41
2.15381e-41
2.15304e-41
2.15093e-41
2.14821e-41
2.14514e-41
2.14183e-41
2.13842e-41
2.13504e-41
2.13183e-41
2.1289e-41
2.12636e-41
2.1243e-41
2.12277e-41
2.12181e-41
2.12143e-41
2.12164e-41
2.12243e-41
2.12377e-41
2.12565e-41
2.12806e-41
2.13099e-41
2.13446e-41
2.13848e-41
2.1431e-41
2.14838e-41
2.15438e-41
2.16121e-41
2.16897e-41
2.17779e-41
2.18779e-41
2.19912e-41
2.21193e-41
2.22636e-41
2.24257e-41
2.2607e-41
2.28088e-41
2.30321e-41
2.32781e-41
2.35472e-41
2.384e-41
2.41565e-41
2.44963e-41
2.48586e-41
2.52423e-41
2.56458e-41
2.60668e-41
2.65031e-41
2.69516e-41
2.74091e-41
2.78722e-41
2.83372e-41
2.88003e-41
2.92578e-41
2.97059e-41
3.01412e-41
3.05604e-41
3.09608e-41
3.13399e-41
3.16959e-41
3.20272e-41
3.2333e-41
3.26128e-41
3.28667e-41
3.30953e-41
3.32992e-41
3.34798e-41
3.36383e-41
3.37764e-41
3.38957e-41
3.39981e-41
3.40851e-41
3.41586e-41
3.42203e-41
3.42715e-41
3.43139e-41
3.43486e-41
3.43769e-41
3.43998e-41
3.44181e-41
3.44328e-41
3.44444e-41
3.44536e-41
3.44608e-41
3.44665e-41
3.44708e-41
3.44742e-41
3.44769e-41
3.44789e-41
3.44805e-41
3.44818e-41
3.44828e-41
3.44836e-41
3.44843e-41
3.44848e-41
3.44854e-41
3.44858e-41
3.44863e-41
3.44867e-41
3.44871e-41
3.44875e-41
3.4488e-41
3.44884e-41
3.44889e-41
3.44893e-41
3.44898e-41
3.44903e-41
3.44909e-41
3.44914e-41
3.4492e-41
3.44926e-41
3.44932e-41
3.44939e-41
3.44946e-41
3.44953e-41
3.4496e-41
3.44968e-41
3.44976e-41
3.44985e-41
3.44995e-41
3.45005e-41
3.45013e-41
3.45023e-41
3.45044e-41
3.45066e-41
3.45088e-41
3.45111e-41
3.45132e-41
3.45153e-41
3.45172e-41
3.45189e-41
3.45204e-41
3.45217e-41
3.45228e-41
3.45238e-41
3.45245e-41
3.45252e-41
3.45258e-41
3.45264e-41
3.45271e-41
3.45279e-41
3.45288e-41
3.45299e-41
3.4531e-41
3.45324e-41
3.45339e-41
3.45355e-41
3.45372e-41
3.45391e-41
3.4541e-41
3.4543e-41
3.4545e-41
3.45471e-41
3.45492e-41
3.45513e-41
3.45534e-41
3.45556e-41
3.45578e-41
3.45599e-41
3.45621e-41
3.45643e-41
3.45666e-41
3.45688e-41
3.45711e-41
3.45734e-41
3.45757e-41
3.4578e-41
3.45804e-41
3.45828e-41
3.45852e-41
3.45876e-41
3.459e-41
3.45925e-41
3.4595e-41
3.45975e-41
3.46e-41
3.46025e-41
3.4605e-41
3.46075e-41
3.46099e-41
3.46124e-41
3.46148e-41
3.46171e-41
3.46194e-41
3.46217e-41
3.46239e-41
3.4626e-41
3.4628e-41
3.463e-41
3.46319e-41
3.46336e-41
3.46353e-41
3.46368e-41
3.46382e-41
3.46395e-41
3.46406e-41
3.46416e-41
3.46424e-41
3.46431e-41
3.46436e-41
3.46439e-41
3.4644e-41
3.4644e-41
3.46437e-41
3.46433e-41
3.46429e-41
3.46432e-41
3.46463e-41
3.46592e-41
3.4706e-41
3.48661e-41
3.54034e-41
3.71868e-41
4.30669e-41
6.23469e-41
1.25254e-40
3.29559e-40
9.90176e-40
3.11728e-39
9.93876e-39
3.17311e-38
1.01097e-37
3.21135e-37
1.01687e-36
3.21005e-36
1.01042e-35
3.17189e-35
9.93233e-35
3.10305e-34
9.67434e-34
3.01049e-33
9.3525e-33
2.90126e-32
8.98896e-32
2.78229e-31
8.60571e-31
2.66072e-30
8.22653e-30
2.54483e-29
7.8818e-29
2.44636e-28
7.61908e-28
2.38531e-27
7.52499e-27
2.39996e-26
7.77081e-26
2.56747e-25
8.70495e-25
3.06058e-24
1.11169e-23
4.18925e-23
1.63899e-22
6.63924e-22
2.7715e-21
1.1858e-20
5.17353e-20
2.29205e-19
1.02813e-18
4.66207e-18
2.13682e-17
9.91416e-17
4.67136e-16
2.24679e-15
1.11082e-14
5.69144e-14
3.04583e-13
1.81851e-12
1.32522e-11
1.23184e-10
1.16921e-09
1.09245e-08
1.01436e-07
8.9273e-07
6.83052e-06
3.95232e-05
0.000147228
0.000353344
0.00064447
0.000994931
0.00135134
0.001643
0.0018288
0.00191531
0.00192281
0.00188453
0.00182191
0.00174867
0.0016728
0.00159862
0.00152825
0.00146256
0.00140173
0.00134561
0.00129387
0.00124612
0.001202
0.00116112
0.00112315
0.00108781
0.00105481
0.00102394
0.000994994
0.000967784
0.000942156
0.000917971
0.000895108
0.000873458
0.000852924
0.000833421
0.000815415
0.000798632
0.000782519
0.000767034
0.000752143
0.000737809
0.000724001
0.00071069
0.000697848
0.00068545
0.000673472
0.000661893
0.000650692
0.000639851
0.000629351
0.000619176
0.000609312
0.000599743
0.000590455
0.000581437
0.000572677
0.000564162
0.000555883
0.000547829
0.000539992
0.000532362
0.000524931
0.000517692
0.000510636
0.000503756
0.000497046
0.0004905
0.000484112
0.000477875
0.000471784
0.000465835
0.000460021
0.00045434
0.000448785
0.000443353
0.000438039
0.000432841
0.000427753
0.000422773
0.000417897
0.000413122
0.000408445
0.000403863
0.000399372
0.000394971
0.000390656
0.000386425
0.000382277
0.000378207
0.000374215
0.000370298
0.000366455
0.000362682
0.00035898
0.000355346
0.000351778
0.000348276
0.000344838
0.000341463
0.000338139
0.000334862
0.000331641
0.000328474
0.000325359
0.000322297
0.000319284
0.000316321
0.000313405
0.000310536
0.000307713
0.000304935
0.0003022
0.000299508
0.000296857
0.000294247
0.000291677
0.000289146
0.000286653
0.000284197
0.000281777
0.000279394
0.000277045
0.00027473
0.000272449
0.000270201
0.000267985
0.000265801
0.000263647
0.000261524
0.000259431
0.000257366
0.00025533
0.000253322
0.000251342
0.000249389
0.000247462
0.000245561
0.000243686
0.000241836
0.00024001
0.000238209
0.000236431
0.000234677
0.000232946
0.000231237
0.00022955
0.000227886
0.000226242
0.00022462
0.000223019
0.000221438
0.000219877
0.000218336
0.000216815
0.000215312
0.000213829
0.000212364
0.000210918
0.00020949
0.00020808
0.000206687
0.000205312
0.000203953
0.000202612
0.000201288
0.00019998
0.000198688
0.000197413
0.000196154
0.00019491
0.000193682
0.000192469
0.000191272
0.00019009
0.000188923
0.000187771
0.000186634
0.000185512
0.000184404
0.00018331
0.000182231
0.000181166
0.000180116
0.000179079
0.000178057
0.000177048
0.000176053
0.000175073
0.000174105
0.000173152
0.000172212
0.000171286
0.000170373
0.000169474
0.000168588
0.000167716
0.000166857
0.00016601
0.000165178
0.000164358
0.000163551
0.000162756
0.000161975
0.000161206
0.000160449
0.000159704
0.000158968
0.000158235
0.000157475
0.000156691
0.000155996
0.000155315
0.000154648
0.000153994
0.000153354
0.00015273
0.000152123
0.000151539
0.000150984
0.000150472
0.000150021
0.000149667
0.000149457
)
;

boundaryField
{
    boundary
    {
        type            empty;
    }
    inlet
    {
        type            fixedValue;
        value           uniform 0;
    }
    outlet
    {
        type            zeroGradient;
    }
}


// ************************************************************************* //
