/*--------------------------------*- C++ -*----------------------------------*\
  =========                 |
  \\      /  F ield         | OpenFOAM: The Open Source CFD Toolbox
   \\    /   O peration     | Website:  https://openfoam.org
    \\  /    A nd           | Version:  7
     \\/     M anipulation  |
\*---------------------------------------------------------------------------*/
FoamFile
{
    version     2.0;
    format      ascii;
    class       volScalarField;
    location    "0.00076";
    object      H2;
}
// * * * * * * * * * * * * * * * * * * * * * * * * * * * * * * * * * * * * * //

dimensions      [0 0 0 0 0 0 0];

internalField   nonuniform List<scalar> 
500
(
0.0285116
0.0285116
0.0285116
0.0285116
0.0285116
0.0285116
0.0285116
0.0285116
0.0285116
0.0285116
0.0285116
0.0285116
0.0285116
0.0285116
0.0285116
0.0285116
0.0285116
0.0285116
0.0285116
0.0285116
0.0285116
0.0285116
0.0285116
0.0285116
0.0285116
0.0285116
0.0285116
0.0285116
0.0285116
0.0285116
0.0285116
0.0285116
0.0285116
0.0285116
0.0285116
0.0285116
0.0285116
0.0285116
0.0285116
0.0285116
0.0285116
0.0285116
0.0285116
0.0285116
0.0285116
0.0285116
0.0285116
0.0285116
0.0285116
0.0285116
0.0285116
0.0285116
0.0285116
0.0285116
0.0285116
0.0285116
0.0285116
0.0285116
0.0285116
0.0285116
0.0285116
0.0285116
0.0285116
0.0285116
0.0285116
0.0285116
0.0285116
0.0285116
0.0285116
0.0285116
0.0285116
0.0285116
0.0285116
0.0285116
0.0285116
0.0285116
0.0285116
0.0285116
0.0285116
0.0285116
0.0285116
0.0285116
0.0285116
0.0285116
0.0285116
0.0285116
0.0285116
0.0285116
0.0285116
0.0285116
0.0285116
0.0285116
0.0285116
0.0285116
0.0285116
0.0285116
0.0285116
0.0285116
0.0285116
0.0285116
0.0285116
0.0285116
0.0285116
0.0285116
0.0285116
0.0285116
0.0285116
0.0285116
0.0285116
0.0285116
0.0285116
0.0285116
0.0285116
0.0285116
0.0285116
0.0285116
0.0285116
0.0285116
0.0285116
0.0285116
0.0285116
0.0285116
0.0285116
0.0285116
0.0285116
0.0285116
0.0285116
0.0285116
0.0285116
0.0285116
0.0285116
0.0285116
0.0285116
0.0285116
0.0285116
0.0285116
0.0285116
0.0285116
0.0285116
0.0285116
0.0285116
0.0285116
0.0285116
0.0285116
0.0285116
0.0285116
0.0285116
0.0285116
0.0285116
0.0285116
0.0285116
0.0285116
0.0285116
0.0285116
0.0285116
0.0285116
0.0285116
0.0285116
0.0285116
0.0285116
0.0285116
0.0285116
0.0285116
0.0285116
0.0285116
0.0285116
0.0285116
0.0285116
0.0285116
0.0285116
0.0285116
0.0285116
0.0285116
0.0285116
0.0285116
0.0285116
0.0285116
0.0285116
0.0285116
0.0285116
0.0285116
0.0285116
0.0285116
0.0285116
0.0285116
0.0285116
0.0285116
0.0285116
0.0285116
0.0285116
0.0285116
0.0285116
0.0285116
0.0285116
0.0285116
0.0285116
0.0285116
0.0285116
0.0285116
0.0285116
0.0285116
0.0285116
0.0285116
0.0285116
0.0285116
0.0285116
0.0285116
0.0285116
0.0285116
0.0285116
0.0285116
0.0285116
0.0285116
0.0285116
0.0285116
0.0285116
0.0285116
0.0285116
0.0285116
0.0285116
0.0285116
0.0285116
0.0285116
0.0285116
0.0285116
0.0285116
0.0285116
0.0285116
0.0285116
0.0285116
0.0285116
0.0285116
0.0285116
0.0285116
0.0285116
0.0285116
0.0285116
0.0285116
0.0285116
0.0285116
0.0285116
0.0285116
0.0285116
0.0285116
0.0285116
0.0285116
0.0285116
0.0285116
0.0285116
0.0285116
0.0285116
0.0285116
0.0285116
0.0285116
0.0285116
0.0285116
0.0285116
0.0285116
0.0285116
0.0285116
0.0285116
0.0285115
0.0285115
0.0285114
0.0285113
0.0285109
0.0285102
0.0285087
0.0285055
0.0284989
0.0284852
0.0284567
0.0283975
0.028275
0.0280253
0.0275329
0.0266303
0.0251563
0.023083
0.0205731
0.0177436
0.0146982
0.0117093
0.00914866
0.00723182
0.00582907
0.00499398
0.00447468
0.00415507
0.0039572
0.00383193
0.00374932
0.00369153
0.00364805
0.00361276
0.00358214
0.00355418
0.00352774
0.00350221
0.00347725
0.00345269
0.00342847
0.00340454
0.00338091
0.00335758
0.00333456
0.00331187
0.00328951
0.00326749
0.00324582
0.00322449
0.00320352
0.00318352
0.00316431
0.00314536
0.00312665
0.00310819
0.00308997
0.003072
0.00305426
0.00303676
0.0030195
0.00300246
0.00298566
0.00296908
0.00295273
0.00293659
0.00292068
0.00290498
0.00288949
0.00287421
0.00285913
0.00284426
0.00282959
0.00281511
0.00280083
0.00278673
0.00277282
0.0027591
0.00274555
0.00273218
0.00271898
0.00270595
0.00269309
0.00268038
0.00266784
0.00265545
0.00264321
0.00263111
0.00261916
0.00260736
0.00259569
0.00258415
0.00257275
0.00256147
0.00255033
0.0025393
0.00252839
0.0025176
0.00250693
0.00249637
0.00248592
0.00247558
0.00246535
0.00245522
0.0024452
0.00243527
0.00242545
0.00241573
0.00240611
0.00239658
0.00238715
0.00237782
0.00236859
0.00235945
0.00235041
0.00234144
0.0023325
0.00232365
0.00231487
0.00230619
0.00229758
0.00228905
0.0022806
0.00227222
0.00226392
0.00225569
0.00224754
0.00223946
0.00223145
0.00222351
0.00221564
0.00220784
0.00220011
0.00219244
0.00218484
0.0021773
0.00216983
0.00216242
0.00215507
0.00214778
0.00214055
0.00213338
0.00212627
0.00211922
0.00211222
0.00210528
0.0020984
0.00209157
0.00208479
0.00207807
0.0020714
0.00206478
0.00205822
0.0020517
0.00204524
0.00203883
0.00203246
0.00202615
0.00201988
0.00201366
0.0020075
0.00200137
0.0019953
0.00198928
0.0019833
0.00197737
0.00197148
0.00196564
0.00195985
0.00195411
0.00194842
0.00194277
0.00193717
0.00193161
0.00192611
0.00192065
0.00191524
0.00190987
0.00190456
0.0018993
0.00189408
0.00188892
0.0018838
0.00187874
0.00187373
0.00186877
0.00186386
0.001859
0.0018542
0.00184946
0.00184477
0.00184013
0.00183556
0.00183104
0.00182658
0.00182218
0.00181785
0.00181358
0.00180937
0.00180523
0.00180116
0.00179715
0.00179322
0.00178936
0.00178558
0.00178187
0.00177824
0.0017747
0.00177123
0.00176786
0.00176457
0.00176138
0.00175828
0.00175527
0.00175237
0.00174957
0.00174688
0.00174431
0.00174184
0.0017395
0.00173729
0.0017352
0.00173326
0.00173147
0.00172986
0.00172821
0.00172689
0.00172568
0.00172463
0.00172373
0.001723
0.00172245
0.00172209
0.00172192
0.00172193
0.00172212
0.00172244
0.00172282
0.00172311
)
;

boundaryField
{
    boundary
    {
        type            empty;
    }
    inlet
    {
        type            fixedValue;
        value           uniform 0.0285116;
    }
    outlet
    {
        type            zeroGradient;
    }
}


// ************************************************************************* //
