/*--------------------------------*- C++ -*----------------------------------*\
  =========                 |
  \\      /  F ield         | OpenFOAM: The Open Source CFD Toolbox
   \\    /   O peration     | Website:  https://openfoam.org
    \\  /    A nd           | Version:  7
     \\/     M anipulation  |
\*---------------------------------------------------------------------------*/
FoamFile
{
    version     2.0;
    format      ascii;
    class       volScalarField;
    location    "0.00076";
    object      H2O;
}
// * * * * * * * * * * * * * * * * * * * * * * * * * * * * * * * * * * * * * //

dimensions      [0 0 0 0 0 0 0];

internalField   nonuniform List<scalar> 
500
(
7.87348e-48
2.27395e-47
4.0883e-47
6.12199e-47
8.30149e-47
1.05772e-46
1.29159e-46
1.52956e-46
1.77022e-46
2.01273e-46
2.25659e-46
2.50162e-46
2.74776e-46
2.9951e-46
3.24375e-46
3.49386e-46
3.74556e-46
3.99899e-46
4.25424e-46
4.5114e-46
4.77056e-46
5.0318e-46
5.29525e-46
5.56105e-46
5.82944e-46
6.10071e-46
6.37524e-46
6.65352e-46
6.93614e-46
7.22382e-46
7.51737e-46
7.81775e-46
8.126e-46
8.44323e-46
8.77065e-46
9.10949e-46
9.46098e-46
9.82632e-46
1.02066e-45
1.06028e-45
1.10156e-45
1.14457e-45
1.18931e-45
1.23577e-45
1.2839e-45
1.3336e-45
1.38472e-45
1.43708e-45
1.49045e-45
1.54454e-45
1.59907e-45
1.65368e-45
1.70804e-45
1.76177e-45
1.81451e-45
1.8659e-45
1.9156e-45
1.9633e-45
2.00873e-45
2.05165e-45
2.09189e-45
2.1293e-45
2.1638e-45
2.19537e-45
2.224e-45
2.24977e-45
2.27277e-45
2.29313e-45
2.311e-45
2.32657e-45
2.34001e-45
2.35153e-45
2.36132e-45
2.36958e-45
2.37649e-45
2.38222e-45
2.38694e-45
2.3908e-45
2.39393e-45
2.39645e-45
2.39846e-45
2.40006e-45
2.40132e-45
2.4023e-45
2.40307e-45
2.40366e-45
2.40412e-45
2.40447e-45
2.40473e-45
2.40493e-45
2.40509e-45
2.40521e-45
2.4053e-45
2.40537e-45
2.40543e-45
2.40547e-45
2.40551e-45
2.40555e-45
2.40558e-45
2.40561e-45
2.40563e-45
2.40566e-45
2.40569e-45
2.40572e-45
2.40575e-45
2.40578e-45
2.40582e-45
2.40585e-45
2.40589e-45
2.40593e-45
2.40597e-45
2.40601e-45
2.40606e-45
2.4061e-45
2.40615e-45
2.4062e-45
2.40626e-45
2.40631e-45
2.40637e-45
2.40643e-45
2.40648e-45
2.40651e-45
2.40644e-45
2.406e-45
2.4042e-45
2.40086e-45
2.40095e-45
2.40104e-45
2.40114e-45
2.40124e-45
2.40134e-45
2.40144e-45
2.40155e-45
2.40165e-45
2.40176e-45
2.40187e-45
2.40199e-45
2.40211e-45
2.40224e-45
2.40239e-45
2.40256e-45
2.40275e-45
2.40296e-45
2.40321e-45
2.4035e-45
2.40382e-45
2.40418e-45
2.40458e-45
2.40501e-45
2.40547e-45
2.40595e-45
2.40646e-45
2.40697e-45
2.40748e-45
2.40799e-45
2.40847e-45
2.40894e-45
2.40937e-45
2.40978e-45
2.41014e-45
2.41046e-45
2.41075e-45
2.411e-45
2.41121e-45
2.41139e-45
2.41155e-45
2.4117e-45
2.41182e-45
2.41194e-45
2.41206e-45
2.41219e-45
2.41232e-45
2.41246e-45
2.41262e-45
2.41279e-45
2.41298e-45
2.41319e-45
2.41342e-45
2.41366e-45
2.41392e-45
2.41419e-45
2.41447e-45
2.41476e-45
2.41504e-45
2.41533e-45
2.41562e-45
2.4159e-45
2.41617e-45
2.41644e-45
2.41669e-45
2.41693e-45
2.41716e-45
2.41737e-45
2.41757e-45
2.41776e-45
2.41795e-45
2.41819e-45
2.41866e-45
2.42002e-45
2.42471e-45
2.44162e-45
2.50305e-45
2.72558e-45
3.52781e-45
6.40523e-45
1.66749e-44
5.31588e-44
1.82227e-43
6.37159e-43
2.23589e-42
7.84211e-42
2.74788e-41
9.6264e-41
3.37569e-40
1.18671e-39
4.18926e-39
1.48771e-38
5.32433e-38
1.9235e-37
7.0242e-37
2.59527e-36
9.70567e-36
3.67329e-35
1.40595e-34
5.43612e-34
2.12033e-33
8.3302e-33
3.29142e-32
1.30609e-31
5.1986e-31
2.0733e-30
8.27812e-30
3.30678e-29
1.32088e-28
5.2742e-28
2.10463e-27
8.39182e-27
3.34324e-26
1.33076e-25
5.29251e-25
2.10317e-24
8.35152e-24
3.31411e-23
1.31435e-22
5.20987e-22
2.06414e-21
8.17457e-21
3.23605e-20
1.28054e-19
5.06511e-19
2.00259e-18
7.96186e-18
3.15343e-17
1.24546e-16
4.9129e-16
1.93614e-15
7.62316e-15
2.99857e-14
1.17831e-13
4.62564e-13
1.81412e-12
7.10849e-12
2.7833e-11
1.08916e-10
4.26048e-10
1.66635e-09
6.51796e-09
2.5503e-08
9.98317e-08
3.90984e-07
1.53181e-06
6.00071e-06
2.34731e-05
9.13503e-05
0.000350087
0.00128569
0.00425234
0.0115098
0.0241135
0.0406505
0.0606901
0.0845763
0.110551
0.134622
0.1535
0.169947
0.179664
0.186192
0.190618
0.193705
0.195949
0.197661
0.199035
0.200186
0.201189
0.202086
0.202906
0.203667
0.20438
0.205053
0.205692
0.206301
0.206883
0.20744
0.207974
0.208487
0.208981
0.209456
0.209914
0.210356
0.210782
0.211193
0.211578
0.211945
0.212303
0.212651
0.21299
0.213322
0.213645
0.213961
0.21427
0.214571
0.214866
0.215155
0.215438
0.215715
0.215986
0.216252
0.216513
0.216768
0.217019
0.217266
0.217508
0.217745
0.217979
0.218209
0.218435
0.218657
0.218875
0.21909
0.219302
0.219511
0.219716
0.219918
0.220117
0.220314
0.220507
0.220698
0.220886
0.221071
0.221254
0.221434
0.221612
0.221787
0.22196
0.222131
0.222299
0.222465
0.222629
0.222791
0.22295
0.223108
0.223263
0.223417
0.223568
0.223718
0.223866
0.224012
0.224156
0.224298
0.224439
0.224578
0.224716
0.224851
0.224985
0.225118
0.225249
0.225379
0.225507
0.225634
0.225759
0.225883
0.226006
0.226128
0.226248
0.226367
0.226485
0.226601
0.226717
0.226831
0.226944
0.227056
0.227167
0.227276
0.227385
0.227493
0.227599
0.227705
0.227809
0.227913
0.228015
0.228116
0.228217
0.228317
0.228415
0.228513
0.22861
0.228706
0.228801
0.228895
0.228988
0.229081
0.229172
0.229263
0.229353
0.229442
0.22953
0.229618
0.229705
0.229791
0.229876
0.22996
0.230044
0.230127
0.230209
0.230291
0.230372
0.230452
0.230532
0.230611
0.230689
0.230767
0.230844
0.23092
0.230996
0.231071
0.231146
0.23122
0.231294
0.231367
0.23144
0.231512
0.231584
0.231655
0.231726
0.231797
0.231867
0.231936
0.232006
0.232075
0.232143
0.232212
0.23228
0.232347
0.232415
0.232482
0.232549
0.232616
0.232682
0.232749
0.232815
0.232881
0.232947
0.233013
0.23308
0.233146
0.233212
0.233278
0.233345
0.233411
0.233478
0.233546
0.233613
0.233681
0.233749
0.233818
0.233887
0.233957
0.234028
0.234099
0.234171
0.234244
0.234317
0.234391
0.234466
0.234556
0.234655
0.234733
0.234814
0.234897
0.234981
0.235067
0.235154
0.235242
0.23533
0.235418
0.235505
0.235586
0.235657
0.235705
)
;

boundaryField
{
    boundary
    {
        type            empty;
    }
    inlet
    {
        type            fixedValue;
        value           uniform 0;
    }
    outlet
    {
        type            zeroGradient;
    }
}


// ************************************************************************* //
