/*--------------------------------*- C++ -*----------------------------------*\
  =========                 |
  \\      /  F ield         | OpenFOAM: The Open Source CFD Toolbox
   \\    /   O peration     | Website:  https://openfoam.org
    \\  /    A nd           | Version:  7
     \\/     M anipulation  |
\*---------------------------------------------------------------------------*/
FoamFile
{
    version     2.0;
    format      ascii;
    class       volScalarField;
    location    "0.00076";
    object      O;
}
// * * * * * * * * * * * * * * * * * * * * * * * * * * * * * * * * * * * * * //

dimensions      [0 0 0 0 0 0 0];

internalField   nonuniform List<scalar> 
500
(
1.57613e-47
3.75824e-47
5.94912e-47
8.13644e-47
1.03168e-46
1.24891e-46
1.46529e-46
1.68085e-46
1.89566e-46
2.10987e-46
2.32366e-46
2.53725e-46
2.7509e-46
2.96485e-46
3.17933e-46
3.39457e-46
3.61075e-46
3.82801e-46
4.0465e-46
4.26631e-46
4.48756e-46
4.71034e-46
4.9348e-46
5.16108e-46
5.38942e-46
5.62009e-46
5.85344e-46
6.08989e-46
6.32997e-46
6.57429e-46
6.82352e-46
7.07845e-46
7.33991e-46
7.60879e-46
7.88604e-46
8.17259e-46
8.46937e-46
8.77727e-46
9.09707e-46
9.42946e-46
9.77496e-46
1.01339e-45
1.05063e-45
1.0892e-45
1.12905e-45
1.17011e-45
1.21226e-45
1.25535e-45
1.29921e-45
1.34363e-45
1.38838e-45
1.43322e-45
1.47787e-45
1.52206e-45
1.5655e-45
1.60793e-45
1.64909e-45
1.68873e-45
1.72663e-45
1.7626e-45
1.79649e-45
1.82818e-45
1.85759e-45
1.88467e-45
1.90942e-45
1.93186e-45
1.95205e-45
1.97008e-45
1.98606e-45
2.0001e-45
2.01235e-45
2.02296e-45
2.03207e-45
2.03984e-45
2.04641e-45
2.05193e-45
2.05654e-45
2.06035e-45
2.06348e-45
2.06603e-45
2.06809e-45
2.06976e-45
2.07108e-45
2.07214e-45
2.07297e-45
2.07362e-45
2.07412e-45
2.07451e-45
2.07482e-45
2.07505e-45
2.07523e-45
2.07537e-45
2.07547e-45
2.07556e-45
2.07562e-45
2.07567e-45
2.07572e-45
2.07575e-45
2.07579e-45
2.07582e-45
2.07584e-45
2.07587e-45
2.0759e-45
2.07592e-45
2.07595e-45
2.07598e-45
2.07601e-45
2.07604e-45
2.07607e-45
2.07611e-45
2.07614e-45
2.07618e-45
2.07622e-45
2.07626e-45
2.0763e-45
2.07634e-45
2.07639e-45
2.07644e-45
2.07648e-45
2.07653e-45
2.07656e-45
2.07653e-45
2.07637e-45
2.07578e-45
2.07396e-45
2.07133e-45
2.07141e-45
2.07149e-45
2.07158e-45
2.07167e-45
2.07177e-45
2.07187e-45
2.07197e-45
2.07208e-45
2.0722e-45
2.07233e-45
2.07247e-45
2.07262e-45
2.0728e-45
2.07299e-45
2.07322e-45
2.07347e-45
2.07375e-45
2.07406e-45
2.0744e-45
2.07477e-45
2.07516e-45
2.07557e-45
2.076e-45
2.07643e-45
2.07686e-45
2.07729e-45
2.0777e-45
2.07809e-45
2.07847e-45
2.07882e-45
2.07914e-45
2.07944e-45
2.07971e-45
2.07995e-45
2.08018e-45
2.08038e-45
2.08057e-45
2.08074e-45
2.0809e-45
2.08105e-45
2.0812e-45
2.08135e-45
2.08149e-45
2.08164e-45
2.08179e-45
2.08194e-45
2.0821e-45
2.08226e-45
2.08243e-45
2.08261e-45
2.0828e-45
2.08299e-45
2.08319e-45
2.08339e-45
2.0836e-45
2.08381e-45
2.08402e-45
2.08423e-45
2.08444e-45
2.08465e-45
2.08486e-45
2.08506e-45
2.08526e-45
2.08545e-45
2.08565e-45
2.08585e-45
2.08613e-45
2.08673e-45
2.08855e-45
2.09493e-45
2.11825e-45
2.2039e-45
2.51748e-45
3.65934e-45
7.79269e-45
2.26645e-44
7.58503e-44
2.64912e-43
9.32946e-43
3.27933e-42
1.1472e-41
3.99094e-41
1.38044e-40
4.74751e-40
1.62344e-39
5.52027e-39
1.86669e-38
6.27783e-38
2.1e-37
6.98788e-37
2.31335e-36
7.62015e-36
2.49788e-35
8.14952e-35
2.64674e-34
8.55826e-34
2.75568e-33
8.83734e-33
2.82324e-32
8.9865e-32
2.85062e-31
9.01323e-31
2.84122e-30
8.93099e-30
2.79998e-29
8.75705e-29
2.73271e-28
8.51036e-28
2.64545e-27
8.20973e-27
2.54395e-26
7.87245e-26
2.43331e-25
7.51339e-25
2.31781e-24
7.1446e-24
2.20079e-23
6.77516e-23
2.08464e-22
6.41116e-22
1.97085e-21
6.056e-21
1.8601e-20
5.71081e-20
1.7525e-19
5.40133e-19
1.66067e-18
5.0923e-18
1.55951e-17
4.77182e-17
1.45898e-16
4.45767e-16
1.36107e-15
4.15336e-15
1.26681e-14
3.86257e-14
1.17751e-13
3.58964e-13
1.09449e-12
3.33818e-12
1.01858e-11
3.10955e-11
9.49783e-11
2.90257e-10
8.87682e-10
2.71975e-09
8.39028e-09
2.65996e-08
9.2933e-08
4.17494e-07
2.6349e-06
1.77909e-05
8.95431e-05
0.000356966
0.00106171
0.00224473
0.00361275
0.00480829
0.0056583
0.00617474
0.00639428
0.00644623
0.00639507
0.00628401
0.00614071
0.0059822
0.00581861
0.00565584
0.00549716
0.00534428
0.00519799
0.00505857
0.00492595
0.00479991
0.00468015
0.00456632
0.00445807
0.00435506
0.00425693
0.00416339
0.00407413
0.00398888
0.00390739
0.00382944
0.00375483
0.00368339
0.00361705
0.0035544
0.00349387
0.00343535
0.00337871
0.00332388
0.00327076
0.00321926
0.00316931
0.00312084
0.00307378
0.00302807
0.00298364
0.00294043
0.0028984
0.0028575
0.00281767
0.00277887
0.00274105
0.00270419
0.00266823
0.00263314
0.0025989
0.00256546
0.0025328
0.00250089
0.00246969
0.0024392
0.00240938
0.0023802
0.00235165
0.00232371
0.00229636
0.00226958
0.00224335
0.00221766
0.00219249
0.00216782
0.00214364
0.00211994
0.0020967
0.00207392
0.00205157
0.00202965
0.00200815
0.00198705
0.00196634
0.00194602
0.00192608
0.00190649
0.00188726
0.00186838
0.00184984
0.00183162
0.00181372
0.00179613
0.00177885
0.00176187
0.00174517
0.00172876
0.00171262
0.00169676
0.00168117
0.00166584
0.00165075
0.00163585
0.00162119
0.00160676
0.00159255
0.00157856
0.00156478
0.00155121
0.00153784
0.00152467
0.0015117
0.00149892
0.00148632
0.00147391
0.00146167
0.00144961
0.00143772
0.001426
0.00141445
0.00140305
0.00139182
0.00138073
0.0013698
0.00135903
0.00134839
0.0013379
0.00132756
0.00131735
0.00130728
0.00129734
0.00128754
0.00127786
0.00126831
0.00125889
0.00124959
0.00124041
0.00123135
0.00122241
0.00121358
0.00120487
0.00119627
0.00118777
0.00117939
0.00117111
0.00116293
0.00115486
0.00114688
0.00113901
0.00113123
0.00112355
0.00111596
0.00110846
0.00110105
0.00109373
0.0010865
0.00107935
0.00107229
0.0010653
0.0010584
0.00105158
0.00104484
0.00103817
0.00103157
0.00102505
0.0010186
0.00101222
0.00100591
0.000999672
0.000993497
0.000987387
0.000981342
0.000975359
0.000969438
0.000963577
0.000957776
0.000952032
0.000946346
0.000940716
0.00093514
0.000929618
0.000924148
0.000918729
0.00091336
0.000908039
0.000902766
0.000897539
0.000892356
0.000887216
0.000882117
0.000877059
0.000872038
0.000867053
0.000862103
0.000857186
0.000852298
0.000847439
0.000842606
0.000837796
0.000833006
0.000828235
0.000823479
0.000818735
0.000814
0.000809269
0.00080454
0.000799809
0.000795074
0.000790344
0.000785581
0.000780229
0.000774312
0.000769517
0.000764633
0.000759706
0.000754746
0.000749759
0.000744752
0.00073974
0.000734751
0.000729841
0.000725105
0.000720721
0.000717013
0.000714586
)
;

boundaryField
{
    boundary
    {
        type            empty;
    }
    inlet
    {
        type            fixedValue;
        value           uniform 0;
    }
    outlet
    {
        type            zeroGradient;
    }
}


// ************************************************************************* //
