/*--------------------------------*- C++ -*----------------------------------*\
  =========                 |
  \\      /  F ield         | OpenFOAM: The Open Source CFD Toolbox
   \\    /   O peration     | Website:  https://openfoam.org
    \\  /    A nd           | Version:  7
     \\/     M anipulation  |
\*---------------------------------------------------------------------------*/
FoamFile
{
    version     2.0;
    format      ascii;
    class       volScalarField;
    location    "0.00076";
    object      OH;
}
// * * * * * * * * * * * * * * * * * * * * * * * * * * * * * * * * * * * * * //

dimensions      [0 0 0 0 0 0 0];

internalField   nonuniform List<scalar> 
500
(
9.38173e-48
1.82779e-47
2.43502e-47
2.84483e-47
3.1201e-47
3.30436e-47
3.42715e-47
3.50844e-47
3.56174e-47
3.59623e-47
3.61818e-47
3.63193e-47
3.64045e-47
3.64583e-47
3.64952e-47
3.65251e-47
3.65548e-47
3.65887e-47
3.66298e-47
3.66795e-47
3.6739e-47
3.68084e-47
3.68881e-47
3.69781e-47
3.70785e-47
3.71899e-47
3.73127e-47
3.74481e-47
3.75974e-47
3.77622e-47
3.79447e-47
3.81472e-47
3.83725e-47
3.86235e-47
3.89035e-47
3.92158e-47
3.95637e-47
3.99506e-47
4.03798e-47
4.08544e-47
4.1377e-47
4.19499e-47
4.25749e-47
4.32529e-47
4.39845e-47
4.47689e-47
4.56048e-47
4.64897e-47
4.742e-47
4.83914e-47
4.93984e-47
5.04344e-47
5.14924e-47
5.25643e-47
5.36418e-47
5.47163e-47
5.57789e-47
5.68211e-47
5.78347e-47
5.88121e-47
5.97467e-47
6.06326e-47
6.14651e-47
6.22408e-47
6.29574e-47
6.36136e-47
6.42096e-47
6.47462e-47
6.52253e-47
6.56496e-47
6.60222e-47
6.63468e-47
6.66274e-47
6.68679e-47
6.70725e-47
6.72453e-47
6.739e-47
6.75104e-47
6.76097e-47
6.76912e-47
6.77575e-47
6.7811e-47
6.7854e-47
6.78883e-47
6.79155e-47
6.7937e-47
6.79538e-47
6.79669e-47
6.79771e-47
6.79851e-47
6.79912e-47
6.7996e-47
6.79997e-47
6.80027e-47
6.8005e-47
6.8007e-47
6.80086e-47
6.80099e-47
6.80112e-47
6.80123e-47
6.80134e-47
6.80144e-47
6.80154e-47
6.80164e-47
6.80175e-47
6.80186e-47
6.80197e-47
6.80208e-47
6.8022e-47
6.80232e-47
6.80245e-47
6.80259e-47
6.80273e-47
6.80288e-47
6.80303e-47
6.80319e-47
6.80335e-47
6.80353e-47
6.8037e-47
6.80389e-47
6.80409e-47
6.80429e-47
6.80448e-47
6.80462e-47
6.80457e-47
6.8044e-47
6.80484e-47
6.80531e-47
6.8058e-47
6.80629e-47
6.80679e-47
6.80726e-47
6.80771e-47
6.80812e-47
6.80848e-47
6.8088e-47
6.80907e-47
6.80931e-47
6.80951e-47
6.8097e-47
6.80988e-47
6.81007e-47
6.81028e-47
6.81051e-47
6.81078e-47
6.81108e-47
6.81143e-47
6.81181e-47
6.81222e-47
6.81267e-47
6.81314e-47
6.81364e-47
6.81415e-47
6.81467e-47
6.8152e-47
6.81573e-47
6.81626e-47
6.8168e-47
6.81733e-47
6.81786e-47
6.81839e-47
6.81892e-47
6.81945e-47
6.81998e-47
6.82051e-47
6.82105e-47
6.82159e-47
6.82213e-47
6.82268e-47
6.82324e-47
6.8238e-47
6.82436e-47
6.82494e-47
6.82552e-47
6.8261e-47
6.82669e-47
6.82729e-47
6.82789e-47
6.82849e-47
6.82909e-47
6.82969e-47
6.83029e-47
6.83089e-47
6.83148e-47
6.83206e-47
6.83263e-47
6.83319e-47
6.83374e-47
6.83428e-47
6.83479e-47
6.83529e-47
6.83577e-47
6.83625e-47
6.83675e-47
6.83745e-47
6.83891e-47
6.84331e-47
6.85859e-47
6.91372e-47
7.11381e-47
7.83774e-47
1.04428e-46
1.97617e-46
5.28984e-46
1.70021e-45
5.8153e-45
2.01879e-44
7.00918e-44
2.42357e-43
8.33577e-43
2.85112e-42
9.69734e-42
3.28004e-41
1.10339e-40
3.6919e-40
1.22881e-39
4.06895e-39
1.34061e-38
4.39549e-38
1.43436e-37
4.65935e-37
1.50689e-36
4.85291e-36
1.55658e-35
4.97355e-35
1.58335e-34
5.02333e-34
1.58854e-33
5.00824e-33
1.57452e-32
4.93714e-32
1.54441e-31
4.82062e-31
1.50173e-30
4.67008e-30
1.45013e-29
4.49724e-29
1.39338e-28
4.31437e-28
1.33557e-27
4.13566e-27
1.28187e-26
3.9807e-26
1.24005e-25
3.88181e-25
1.22394e-24
3.89929e-24
1.26028e-23
4.15292e-23
1.40303e-22
4.88688e-22
1.77218e-21
6.65409e-21
2.58934e-20
1.0429e-19
4.32885e-19
1.84165e-18
7.98699e-18
3.51417e-17
1.56256e-16
7.00052e-16
3.1531e-15
1.42548e-14
6.46111e-14
2.93374e-13
1.33371e-12
6.06823e-12
2.7626e-11
1.25827e-10
5.79976e-10
2.70135e-09
1.26707e-08
6.00367e-08
2.94218e-07
1.58925e-06
1.01478e-05
6.85758e-05
0.000318617
0.000671168
0.00085377
0.00105448
0.00155988
0.00250349
0.0037829
0.00516455
0.00660958
0.00771382
0.00859633
0.00928813
0.00982684
0.0102476
0.0105786
0.0108415
0.011052
0.0112217
0.0113593
0.011471
0.0115618
0.0116352
0.0116941
0.0117409
0.0117775
0.0118052
0.0118253
0.011839
0.011847
0.01185
0.0118488
0.0118438
0.0118356
0.0118244
0.0118106
0.0117953
0.0117784
0.0117601
0.0117403
0.0117193
0.011697
0.0116737
0.0116494
0.0116243
0.0115984
0.0115718
0.0115445
0.0115167
0.0114883
0.0114595
0.0114303
0.0114006
0.0113707
0.0113404
0.0113098
0.011279
0.011248
0.0112168
0.0111854
0.0111539
0.0111222
0.0110905
0.0110586
0.0110267
0.0109947
0.0109626
0.0109306
0.0108985
0.0108664
0.0108344
0.0108023
0.0107703
0.0107384
0.0107065
0.0106747
0.0106429
0.0106113
0.0105797
0.0105483
0.010517
0.0104857
0.0104546
0.0104237
0.0103928
0.0103621
0.0103316
0.0103011
0.0102709
0.0102407
0.0102108
0.010181
0.0101513
0.0101218
0.0100924
0.0100632
0.0100342
0.0100053
0.00997658
0.00994802
0.00991959
0.00989124
0.00986305
0.00983502
0.00980713
0.00977939
0.0097518
0.00972436
0.00969706
0.0096699
0.00964289
0.00961603
0.00958931
0.00956273
0.00953629
0.00951
0.00948386
0.00945785
0.00943199
0.00940627
0.0093807
0.00935526
0.00932997
0.00930482
0.00927982
0.00925495
0.00923023
0.00920566
0.00918122
0.00915693
0.00913278
0.00910878
0.00908492
0.0090612
0.00903762
0.00901419
0.0089909
0.00896775
0.00894474
0.00892188
0.00889916
0.00887657
0.00885413
0.00883183
0.00880967
0.00878765
0.00876576
0.00874401
0.00872239
0.00870091
0.00867956
0.00865834
0.00863725
0.00861629
0.00859545
0.00857474
0.00855415
0.00853368
0.00851334
0.00849311
0.00847299
0.00845299
0.00843311
0.00841333
0.00839367
0.00837411
0.00835465
0.0083353
0.00831605
0.0082969
0.00827785
0.0082589
0.00824004
0.00822128
0.0082026
0.00818402
0.00816553
0.00814712
0.00812879
0.00811055
0.00809239
0.0080743
0.00805629
0.00803834
0.00802047
0.00800265
0.0079849
0.0079672
0.00794955
0.00793194
0.00791437
0.00789683
0.00787931
0.00786181
0.00784431
0.00782681
0.0078093
0.00779176
0.00777418
0.00775655
0.00773886
0.00772108
0.00770321
0.00768523
0.00766711
0.00764884
0.00763041
0.00761184
0.00759309
0.0075718
0.00754811
0.00752866
0.00750865
0.00748826
0.00746757
0.00744658
0.00742533
0.00740389
0.0073824
0.00736111
0.00734047
0.00732131
0.00730509
0.00729444
)
;

boundaryField
{
    boundary
    {
        type            empty;
    }
    inlet
    {
        type            fixedValue;
        value           uniform 0;
    }
    outlet
    {
        type            zeroGradient;
    }
}


// ************************************************************************* //
