/*--------------------------------*- C++ -*----------------------------------*\
  =========                 |
  \\      /  F ield         | OpenFOAM: The Open Source CFD Toolbox
   \\    /   O peration     | Website:  https://openfoam.org
    \\  /    A nd           | Version:  7
     \\/     M anipulation  |
\*---------------------------------------------------------------------------*/
FoamFile
{
    version     2.0;
    format      ascii;
    class       volScalarField;
    location    "0.00076";
    object      rho;
}
// * * * * * * * * * * * * * * * * * * * * * * * * * * * * * * * * * * * * * //

dimensions      [1 -3 0 0 0 0 0];

internalField   nonuniform List<scalar> 
500
(
0.864644
0.864643
0.864645
0.864649
0.864655
0.864663
0.864673
0.864685
0.864698
0.864713
0.864727
0.864742
0.864756
0.864769
0.86478
0.864789
0.864795
0.8648
0.864801
0.8648
0.864797
0.864791
0.864783
0.864772
0.86476
0.864745
0.864727
0.864708
0.864685
0.864659
0.86463
0.864597
0.86456
0.864518
0.86447
0.864417
0.864357
0.86429
0.864216
0.864134
0.864044
0.863946
0.86384
0.863726
0.863605
0.863476
0.863341
0.863199
0.863053
0.862903
0.86275
0.862595
0.862439
0.862285
0.862132
0.861982
0.861837
0.861697
0.861562
0.861435
0.861315
0.861202
0.861098
0.861002
0.860915
0.860835
0.860764
0.8607
0.860643
0.860593
0.86055
0.860512
0.86048
0.860452
0.860429
0.860409
0.860392
0.860379
0.860367
0.860358
0.86035
0.860344
0.860339
0.860335
0.860332
0.86033
0.860328
0.860327
0.860325
0.860324
0.860324
0.860323
0.860323
0.860322
0.860322
0.860322
0.860322
0.860322
0.860322
0.860321
0.860321
0.860321
0.860321
0.860321
0.860321
0.860321
0.860321
0.86032
0.86032
0.86032
0.86032
0.86032
0.86032
0.86032
0.860319
0.860319
0.860319
0.860319
0.860319
0.860319
0.860318
0.860318
0.860318
0.860318
0.860317
0.860317
0.860316
0.860316
0.860315
0.860315
0.860314
0.860314
0.860313
0.860313
0.860312
0.860312
0.860312
0.860311
0.860311
0.860311
0.860311
0.860311
0.86031
0.86031
0.86031
0.86031
0.860309
0.860309
0.860309
0.860308
0.860308
0.860307
0.860307
0.860306
0.860306
0.860305
0.860305
0.860304
0.860303
0.860303
0.860302
0.860302
0.860301
0.860301
0.8603
0.860299
0.860299
0.860298
0.860298
0.860297
0.860296
0.860296
0.860295
0.860294
0.860294
0.860293
0.860292
0.860292
0.860291
0.86029
0.86029
0.860289
0.860288
0.860288
0.860287
0.860287
0.860286
0.860285
0.860285
0.860284
0.860284
0.860283
0.860283
0.860282
0.860282
0.860281
0.860281
0.860281
0.86028
0.86028
0.86028
0.86028
0.86028
0.860279
0.860279
0.860279
0.86028
0.86028
0.86028
0.86028
0.86028
0.860281
0.860281
0.860282
0.860283
0.860283
0.860284
0.860285
0.860286
0.860287
0.860288
0.860289
0.860291
0.860292
0.860294
0.860295
0.860297
0.860299
0.860301
0.860303
0.860305
0.860308
0.86031
0.860313
0.860316
0.860319
0.860322
0.860325
0.860329
0.860332
0.860336
0.86034
0.860344
0.860348
0.860352
0.860356
0.860361
0.860366
0.860371
0.860376
0.860381
0.860387
0.860393
0.860398
0.860404
0.860409
0.860415
0.860421
0.860428
0.860434
0.860441
0.860448
0.860455
0.860463
0.860471
0.86048
0.860487
0.860491
0.860477
0.860405
0.860144
0.859307
0.856745
0.849169
0.827749
0.773398
0.667081
0.531218
0.416888
0.340218
0.290003
0.255301
0.230586
0.213284
0.200498
0.190682
0.183648
0.178469
0.174322
0.170929
0.168089
0.165666
0.163567
0.161725
0.160091
0.158629
0.15731
0.156113
0.15502
0.154017
0.153092
0.152236
0.15144
0.150699
0.150006
0.149356
0.148745
0.148169
0.147626
0.147113
0.146627
0.146167
0.145743
0.145346
0.144963
0.144596
0.144243
0.143903
0.143576
0.14326
0.142954
0.14266
0.142375
0.142099
0.141832
0.141573
0.141322
0.141079
0.140843
0.140613
0.14039
0.140174
0.139963
0.139758
0.139558
0.139363
0.139173
0.138988
0.138808
0.138632
0.13846
0.138292
0.138129
0.137968
0.137812
0.137659
0.137509
0.137362
0.137219
0.137078
0.136941
0.136806
0.136674
0.136544
0.136417
0.136293
0.13617
0.136051
0.135933
0.135817
0.135704
0.135592
0.135483
0.135375
0.135269
0.135165
0.135063
0.134963
0.134864
0.134767
0.134671
0.134577
0.134484
0.134393
0.134304
0.134216
0.134129
0.134044
0.133959
0.133876
0.133794
0.133713
0.133633
0.133555
0.133477
0.133401
0.133325
0.133251
0.133178
0.133105
0.133034
0.132964
0.132894
0.132826
0.132758
0.132691
0.132625
0.13256
0.132496
0.132432
0.13237
0.132308
0.132247
0.132186
0.132127
0.132067
0.132009
0.131952
0.131895
0.131838
0.131783
0.131727
0.131673
0.131619
0.131566
0.131513
0.131461
0.13141
0.131359
0.131308
0.131258
0.131209
0.13116
0.131111
0.131063
0.131016
0.130969
0.130922
0.130876
0.130831
0.130786
0.130741
0.130696
0.130653
0.130609
0.130566
0.130523
0.130481
0.130439
0.130398
0.130357
0.130316
0.130276
0.130236
0.130196
0.130157
0.130118
0.130079
0.130041
0.130003
0.129965
0.129928
0.129891
0.129854
0.129817
0.129781
0.129745
0.129709
0.129674
0.129639
0.129604
0.129569
0.129535
0.129501
0.129467
0.129433
0.1294
0.129367
0.129334
0.129301
0.129269
0.129237
0.129205
0.129174
0.129142
0.129111
0.129081
0.12905
0.129021
0.128991
0.128962
0.128933
0.128904
0.128877
0.128846
0.128817
0.128781
0.128754
0.128728
0.128702
0.128676
0.128651
0.128626
0.128601
0.128577
0.128554
0.128531
0.12851
0.128491
0.128479
)
;

boundaryField
{
    boundary
    {
        type            empty;
    }
    inlet
    {
        type            calculated;
        value           uniform 0.864646;
    }
    outlet
    {
        type            calculated;
        value           uniform 0.128479;
    }
}


// ************************************************************************* //
