/*--------------------------------*- C++ -*----------------------------------*\
  =========                 |
  \\      /  F ield         | OpenFOAM: The Open Source CFD Toolbox
   \\    /   O peration     | Website:  https://openfoam.org
    \\  /    A nd           | Version:  7
     \\/     M anipulation  |
\*---------------------------------------------------------------------------*/
FoamFile
{
    version     2.0;
    format      ascii;
    class       volScalarField;
    location    "0.00071";
    object      H2;
}
// * * * * * * * * * * * * * * * * * * * * * * * * * * * * * * * * * * * * * //

dimensions      [0 0 0 0 0 0 0];

internalField   nonuniform List<scalar> 
500
(
0.0285116
0.0285116
0.0285116
0.0285116
0.0285116
0.0285116
0.0285116
0.0285116
0.0285116
0.0285116
0.0285116
0.0285116
0.0285116
0.0285116
0.0285116
0.0285116
0.0285116
0.0285116
0.0285116
0.0285116
0.0285116
0.0285116
0.0285116
0.0285116
0.0285116
0.0285116
0.0285116
0.0285116
0.0285116
0.0285116
0.0285116
0.0285116
0.0285116
0.0285116
0.0285116
0.0285116
0.0285116
0.0285116
0.0285116
0.0285116
0.0285116
0.0285116
0.0285116
0.0285116
0.0285116
0.0285116
0.0285116
0.0285116
0.0285116
0.0285116
0.0285116
0.0285116
0.0285116
0.0285116
0.0285116
0.0285116
0.0285116
0.0285116
0.0285116
0.0285116
0.0285116
0.0285116
0.0285116
0.0285116
0.0285116
0.0285116
0.0285116
0.0285116
0.0285116
0.0285116
0.0285116
0.0285116
0.0285116
0.0285116
0.0285116
0.0285116
0.0285116
0.0285116
0.0285116
0.0285116
0.0285116
0.0285116
0.0285116
0.0285116
0.0285116
0.0285116
0.0285116
0.0285116
0.0285116
0.0285116
0.0285116
0.0285116
0.0285116
0.0285116
0.0285116
0.0285116
0.0285116
0.0285116
0.0285116
0.0285116
0.0285116
0.0285116
0.0285116
0.0285116
0.0285116
0.0285116
0.0285116
0.0285116
0.0285116
0.0285116
0.0285116
0.0285116
0.0285116
0.0285116
0.0285116
0.0285116
0.0285116
0.0285116
0.0285116
0.0285116
0.0285116
0.0285116
0.0285116
0.0285116
0.0285116
0.0285116
0.0285116
0.0285116
0.0285116
0.0285116
0.0285116
0.0285116
0.0285116
0.0285116
0.0285116
0.0285116
0.0285116
0.0285116
0.0285116
0.0285116
0.0285116
0.0285116
0.0285116
0.0285116
0.0285116
0.0285116
0.0285116
0.0285116
0.0285116
0.0285116
0.0285116
0.0285116
0.0285116
0.0285116
0.0285116
0.0285116
0.0285116
0.0285116
0.0285116
0.0285116
0.0285116
0.0285116
0.0285116
0.0285116
0.0285116
0.0285116
0.0285116
0.0285116
0.0285116
0.0285116
0.0285116
0.0285116
0.0285116
0.0285116
0.0285116
0.0285116
0.0285116
0.0285116
0.0285116
0.0285116
0.0285116
0.0285116
0.0285116
0.0285116
0.0285116
0.0285116
0.0285116
0.0285116
0.0285116
0.0285116
0.0285116
0.0285116
0.0285116
0.0285116
0.0285116
0.0285116
0.0285116
0.0285116
0.0285116
0.0285116
0.0285116
0.0285116
0.0285116
0.0285116
0.0285116
0.0285116
0.0285116
0.0285116
0.0285116
0.0285116
0.0285116
0.0285116
0.0285116
0.0285116
0.0285116
0.0285116
0.0285116
0.0285116
0.0285116
0.0285116
0.0285116
0.0285116
0.0285116
0.0285116
0.0285116
0.0285116
0.0285116
0.0285116
0.0285116
0.0285116
0.0285116
0.0285116
0.0285116
0.0285116
0.0285116
0.0285116
0.0285116
0.0285116
0.0285116
0.0285116
0.0285116
0.0285116
0.0285116
0.0285116
0.0285116
0.0285116
0.0285116
0.0285116
0.0285116
0.0285116
0.0285116
0.0285116
0.0285116
0.0285116
0.0285116
0.0285116
0.0285116
0.0285116
0.0285116
0.0285116
0.0285116
0.0285116
0.0285115
0.0285114
0.0285113
0.028511
0.0285104
0.0285091
0.0285063
0.0285007
0.0284889
0.0284643
0.0284133
0.0283079
0.028092
0.0276624
0.0268601
0.0255147
0.0235574
0.0211259
0.0183588
0.0153446
0.012315
0.00964127
0.00758761
0.00606461
0.00514393
0.00456849
0.00421383
0.00399467
0.00385663
0.00376641
0.00370405
0.00365778
0.00362075
0.00358897
0.00356017
0.0035331
0.00350703
0.00348159
0.00345659
0.00343194
0.00340761
0.0033836
0.00335992
0.00333657
0.00331358
0.00329096
0.00326871
0.00324685
0.00322537
0.00320428
0.00318421
0.00316496
0.00314599
0.00312731
0.0031089
0.00309076
0.00307289
0.00305528
0.00303792
0.00302082
0.00300395
0.00298733
0.00297093
0.00295477
0.00293882
0.0029231
0.00290758
0.00289226
0.00287715
0.00286223
0.0028475
0.00283296
0.0028186
0.00280442
0.00279042
0.00277658
0.00276292
0.00274941
0.00273607
0.00272289
0.00270986
0.00269699
0.00268427
0.00267169
0.00265926
0.00264697
0.00263483
0.00262282
0.00261095
0.00259921
0.0025876
0.00257612
0.00256477
0.00255355
0.00254245
0.00253147
0.0025206
0.00250986
0.00249923
0.00248872
0.00247831
0.00246802
0.00245783
0.00244775
0.00243778
0.00242791
0.00241814
0.00240848
0.00239891
0.00238945
0.00238008
0.00237081
0.00236165
0.00235258
0.00234358
0.00233462
0.00232574
0.00231695
0.00230824
0.00229961
0.00229106
0.00228258
0.00227419
0.00226586
0.00225762
0.00224944
0.00224134
0.0022333
0.00222534
0.00221744
0.00220961
0.00220185
0.00219416
0.00218653
0.00217896
0.00217145
0.00216401
0.00215663
0.00214931
0.00214205
0.00213485
0.00212771
0.00212062
0.0021136
0.00210663
0.00209972
0.00209287
0.00208607
0.00207932
0.00207264
0.00206601
0.00205943
0.00205291
0.00204644
0.00204003
0.00203367
0.00202737
0.00202112
0.00201493
0.00200879
0.00200271
0.00199668
0.00199071
0.00198479
0.00197892
0.00197311
0.00196736
0.00196166
0.00195602
0.00195044
0.00194491
0.00193944
0.00193403
0.00192868
0.00192339
0.00191815
0.00191298
0.00190786
0.00190281
0.00189782
0.00189289
0.00188803
0.00188324
0.00187851
0.00187385
0.00186925
0.00186473
0.00186028
0.00185591
0.0018516
0.00184738
0.00184324
0.00183917
0.00183519
0.0018313
0.0018275
0.00182378
0.00182016
0.00181663
0.00181321
0.00180988
0.00180666
0.00180355
0.00180055
0.00179767
0.00179491
0.00179227
0.00178978
0.00178744
0.00178529
0.00178299
0.00178108
0.0017793
0.00177765
0.00177615
0.00177479
0.0017736
0.00177256
0.00177169
0.00177099
0.00177045
0.00177009
0.00176991
0.00176991
0.00177008
0.00177044
0.00177098
0.0017717
0.00177261
0.0017737
0.00177497
0.00177641
0.00177801
0.00177973
0.00178151
0.00178325
0.00178476
0.00178573
)
;

boundaryField
{
    boundary
    {
        type            empty;
    }
    inlet
    {
        type            fixedValue;
        value           uniform 0.0285116;
    }
    outlet
    {
        type            zeroGradient;
    }
}


// ************************************************************************* //
