/*--------------------------------*- C++ -*----------------------------------*\
  =========                 |
  \\      /  F ield         | OpenFOAM: The Open Source CFD Toolbox
   \\    /   O peration     | Website:  https://openfoam.org
    \\  /    A nd           | Version:  7
     \\/     M anipulation  |
\*---------------------------------------------------------------------------*/
FoamFile
{
    version     2.0;
    format      ascii;
    class       volScalarField;
    location    "0.00071";
    object      HO2;
}
// * * * * * * * * * * * * * * * * * * * * * * * * * * * * * * * * * * * * * //

dimensions      [0 0 0 0 0 0 0];

internalField   nonuniform List<scalar> 
500
(
5.58459e-38
1.26988e-37
1.98251e-37
2.6941e-37
3.40416e-37
4.11277e-37
4.82029e-37
5.52724e-37
6.23429e-37
6.9421e-37
7.65133e-37
8.36255e-37
9.07624e-37
9.79274e-37
1.05123e-36
1.12351e-36
1.19611e-36
1.26905e-36
1.34234e-36
1.41598e-36
1.49e-36
1.56445e-36
1.63938e-36
1.71487e-36
1.79102e-36
1.86796e-36
1.94584e-36
2.02484e-36
2.10516e-36
2.18701e-36
2.27064e-36
2.3563e-36
2.44424e-36
2.53471e-36
2.62794e-36
2.72414e-36
2.82348e-36
2.92607e-36
3.03195e-36
3.14108e-36
3.25335e-36
3.36852e-36
3.48628e-36
3.60619e-36
3.72772e-36
3.85027e-36
3.97312e-36
4.09552e-36
4.21668e-36
4.33577e-36
4.45198e-36
4.56453e-36
4.67268e-36
4.77579e-36
4.87328e-36
4.9647e-36
5.04971e-36
5.12809e-36
5.19974e-36
5.26467e-36
5.323e-36
5.37495e-36
5.42082e-36
5.46097e-36
5.4958e-36
5.52577e-36
5.55133e-36
5.57295e-36
5.59108e-36
5.60615e-36
5.61857e-36
5.62874e-36
5.63698e-36
5.64361e-36
5.64891e-36
5.6531e-36
5.6564e-36
5.65897e-36
5.66096e-36
5.66249e-36
5.66366e-36
5.66455e-36
5.66522e-36
5.66573e-36
5.66611e-36
5.66639e-36
5.6666e-36
5.66677e-36
5.66689e-36
5.66699e-36
5.66707e-36
5.66714e-36
5.66719e-36
5.66725e-36
5.6673e-36
5.66734e-36
5.66739e-36
5.66744e-36
5.66749e-36
5.66754e-36
5.66759e-36
5.66765e-36
5.66771e-36
5.66777e-36
5.66783e-36
5.6679e-36
5.66797e-36
5.66805e-36
5.66813e-36
5.66821e-36
5.6683e-36
5.66839e-36
5.66848e-36
5.66858e-36
5.66868e-36
5.66879e-36
5.6689e-36
5.66902e-36
5.66914e-36
5.66926e-36
5.66938e-36
5.66945e-36
5.66932e-36
5.66841e-36
5.66441e-36
5.65645e-36
5.65663e-36
5.65682e-36
5.65701e-36
5.65721e-36
5.6574e-36
5.65758e-36
5.65777e-36
5.65796e-36
5.65815e-36
5.65836e-36
5.6586e-36
5.65886e-36
5.65917e-36
5.65953e-36
5.65995e-36
5.66044e-36
5.661e-36
5.66164e-36
5.66236e-36
5.66315e-36
5.664e-36
5.66489e-36
5.66582e-36
5.66677e-36
5.6677e-36
5.6686e-36
5.66944e-36
5.67022e-36
5.67091e-36
5.6715e-36
5.672e-36
5.6724e-36
5.67272e-36
5.67295e-36
5.67313e-36
5.67327e-36
5.67339e-36
5.67352e-36
5.67366e-36
5.67385e-36
5.67409e-36
5.67439e-36
5.67476e-36
5.67521e-36
5.67574e-36
5.67633e-36
5.67698e-36
5.6777e-36
5.67845e-36
5.67924e-36
5.68005e-36
5.68086e-36
5.68168e-36
5.68249e-36
5.68328e-36
5.68404e-36
5.68477e-36
5.68546e-36
5.68611e-36
5.68672e-36
5.68729e-36
5.68781e-36
5.68829e-36
5.68873e-36
5.68912e-36
5.68948e-36
5.68979e-36
5.69007e-36
5.69032e-36
5.69053e-36
5.6907e-36
5.69085e-36
5.69095e-36
5.69103e-36
5.69107e-36
5.69108e-36
5.69105e-36
5.69099e-36
5.6909e-36
5.69076e-36
5.69059e-36
5.69037e-36
5.69011e-36
5.68982e-36
5.68948e-36
5.68911e-36
5.68876e-36
5.6886e-36
5.68919e-36
5.69251e-36
5.70529e-36
5.75035e-36
5.90463e-36
6.4261e-36
8.17513e-36
1.40065e-35
3.33479e-35
9.71952e-35
3.07051e-34
9.94173e-34
3.23667e-33
1.05368e-32
3.42628e-32
1.11338e-31
3.61962e-31
1.17917e-30
3.857e-30
1.26982e-29
4.21976e-29
1.41987e-28
4.85335e-28
1.69044e-27
6.0147e-27
2.18958e-26
8.15849e-26
3.10883e-25
1.20924e-24
4.78897e-24
1.92551e-23
7.83765e-23
3.22135e-22
1.33393e-21
5.55483e-21
2.32279e-20
9.74187e-20
4.11941e-19
1.73824e-18
7.32467e-18
3.08586e-17
1.29976e-16
5.47197e-16
2.30199e-15
9.67494e-15
4.06158e-14
1.70288e-13
7.12976e-13
2.98095e-12
1.24462e-11
5.18997e-11
2.16176e-10
8.99618e-10
3.7412e-09
1.55504e-08
6.45837e-08
2.67683e-07
1.10308e-06
4.48284e-06
1.76594e-05
6.47401e-05
0.000201155
0.00043067
0.00052073
0.000457334
0.000345752
0.000245888
0.000172529
0.0001208
8.46662e-05
6.03146e-05
4.17125e-05
3.12981e-05
2.46232e-05
2.02603e-05
1.73167e-05
1.52494e-05
1.37338e-05
1.25753e-05
1.16562e-05
1.09035e-05
1.02711e-05
9.7288e-06
9.25607e-06
8.83867e-06
8.46631e-06
8.13131e-06
7.82783e-06
7.55127e-06
7.29798e-06
7.06497e-06
6.84981e-06
6.65042e-06
6.4651e-06
6.29238e-06
6.13104e-06
5.98003e-06
5.83853e-06
5.70984e-06
5.59003e-06
5.47616e-06
5.36778e-06
5.2645e-06
5.16596e-06
5.07183e-06
4.98183e-06
4.8957e-06
4.8132e-06
4.7341e-06
4.6582e-06
4.58533e-06
4.51531e-06
4.44799e-06
4.38321e-06
4.32085e-06
4.26078e-06
4.20288e-06
4.14704e-06
4.09316e-06
4.04115e-06
3.99091e-06
3.94236e-06
3.89542e-06
3.85002e-06
3.80607e-06
3.76353e-06
3.72232e-06
3.68239e-06
3.64367e-06
3.60612e-06
3.56969e-06
3.53432e-06
3.49998e-06
3.46662e-06
3.4342e-06
3.40269e-06
3.37204e-06
3.34223e-06
3.31322e-06
3.28498e-06
3.25748e-06
3.23069e-06
3.20459e-06
3.17916e-06
3.15436e-06
3.13018e-06
3.1066e-06
3.08359e-06
3.06113e-06
3.03922e-06
3.01782e-06
2.99692e-06
2.9765e-06
2.95656e-06
2.93706e-06
2.91801e-06
2.89939e-06
2.88118e-06
2.86338e-06
2.84597e-06
2.82894e-06
2.81229e-06
2.79599e-06
2.78e-06
2.76434e-06
2.74901e-06
2.73399e-06
2.71929e-06
2.70488e-06
2.69076e-06
2.67693e-06
2.66338e-06
2.6501e-06
2.63708e-06
2.62432e-06
2.61181e-06
2.59954e-06
2.58751e-06
2.57571e-06
2.56414e-06
2.55279e-06
2.54166e-06
2.53074e-06
2.52002e-06
2.50951e-06
2.49919e-06
2.48906e-06
2.47912e-06
2.46936e-06
2.45978e-06
2.45037e-06
2.44113e-06
2.43206e-06
2.42314e-06
2.41439e-06
2.40578e-06
2.39733e-06
2.38902e-06
2.38085e-06
2.37282e-06
2.36492e-06
2.35715e-06
2.3495e-06
2.34198e-06
2.33458e-06
2.32729e-06
2.32011e-06
2.31304e-06
2.30607e-06
2.29921e-06
2.29244e-06
2.28577e-06
2.27919e-06
2.2727e-06
2.26629e-06
2.25997e-06
2.25373e-06
2.24756e-06
2.24147e-06
2.23545e-06
2.2295e-06
2.22362e-06
2.2178e-06
2.21204e-06
2.20634e-06
2.2007e-06
2.19511e-06
2.18957e-06
2.18407e-06
2.17863e-06
2.17322e-06
2.16785e-06
2.16251e-06
2.15721e-06
2.15193e-06
2.14667e-06
2.14144e-06
2.13622e-06
2.131e-06
2.1258e-06
2.12059e-06
2.11537e-06
2.11014e-06
2.10489e-06
2.09962e-06
2.09432e-06
2.08897e-06
2.08357e-06
2.07812e-06
2.0726e-06
2.06701e-06
2.06133e-06
2.05557e-06
2.0497e-06
2.04373e-06
2.03764e-06
2.03144e-06
2.02527e-06
2.01558e-06
2.00872e-06
2.00169e-06
1.99445e-06
1.98696e-06
1.97924e-06
1.97126e-06
1.96301e-06
1.9545e-06
1.94571e-06
1.93664e-06
1.92727e-06
1.9176e-06
1.90763e-06
1.89736e-06
1.88677e-06
1.87589e-06
1.8647e-06
1.85322e-06
1.84147e-06
1.82946e-06
1.81723e-06
1.80484e-06
1.7924e-06
1.78009e-06
1.76831e-06
1.75785e-06
1.75046e-06
)
;

boundaryField
{
    boundary
    {
        type            empty;
    }
    inlet
    {
        type            fixedValue;
        value           uniform 0;
    }
    outlet
    {
        type            zeroGradient;
    }
}


// ************************************************************************* //
