/*--------------------------------*- C++ -*----------------------------------*\
  =========                 |
  \\      /  F ield         | OpenFOAM: The Open Source CFD Toolbox
   \\    /   O peration     | Website:  https://openfoam.org
    \\  /    A nd           | Version:  7
     \\/     M anipulation  |
\*---------------------------------------------------------------------------*/
FoamFile
{
    version     2.0;
    format      ascii;
    class       volScalarField;
    location    "0.00071";
    object      O;
}
// * * * * * * * * * * * * * * * * * * * * * * * * * * * * * * * * * * * * * //

dimensions      [0 0 0 0 0 0 0];

internalField   nonuniform List<scalar> 
500
(
1.57398e-47
3.75085e-47
5.93428e-47
8.11239e-47
1.02827e-46
1.24456e-46
1.46024e-46
1.67552e-46
1.89064e-46
2.10585e-46
2.3214e-46
2.5375e-46
2.75433e-46
2.97205e-46
3.19075e-46
3.41052e-46
3.63143e-46
3.85353e-46
4.0769e-46
4.30165e-46
4.52791e-46
4.75591e-46
4.98591e-46
5.21828e-46
5.45346e-46
5.69198e-46
5.93448e-46
6.18167e-46
6.43434e-46
6.69338e-46
6.95972e-46
7.23432e-46
7.51816e-46
7.8122e-46
8.11735e-46
8.43442e-46
8.76408e-46
9.10683e-46
9.46294e-46
9.83242e-46
1.0215e-45
1.061e-45
1.10166e-45
1.14334e-45
1.18587e-45
1.22907e-45
1.2727e-45
1.3165e-45
1.36022e-45
1.40356e-45
1.44624e-45
1.48797e-45
1.52847e-45
1.56749e-45
1.60479e-45
1.64018e-45
1.67348e-45
1.70456e-45
1.73335e-45
1.75979e-45
1.78388e-45
1.80564e-45
1.82513e-45
1.84246e-45
1.85773e-45
1.87108e-45
1.88265e-45
1.8926e-45
1.90109e-45
1.90827e-45
1.9143e-45
1.91931e-45
1.92346e-45
1.92685e-45
1.92961e-45
1.93184e-45
1.93363e-45
1.93505e-45
1.93616e-45
1.93704e-45
1.93773e-45
1.93825e-45
1.93866e-45
1.93897e-45
1.93921e-45
1.93939e-45
1.93952e-45
1.93963e-45
1.93971e-45
1.93977e-45
1.93982e-45
1.93986e-45
1.93989e-45
1.93992e-45
1.93994e-45
1.93997e-45
1.93999e-45
1.94001e-45
1.94003e-45
1.94006e-45
1.94008e-45
1.94011e-45
1.94013e-45
1.94016e-45
1.94019e-45
1.94022e-45
1.94025e-45
1.94028e-45
1.94032e-45
1.94035e-45
1.94039e-45
1.94043e-45
1.94047e-45
1.94052e-45
1.94056e-45
1.94061e-45
1.94066e-45
1.94071e-45
1.94076e-45
1.94081e-45
1.94084e-45
1.94082e-45
1.94066e-45
1.94008e-45
1.93826e-45
1.93562e-45
1.9357e-45
1.93579e-45
1.93588e-45
1.93598e-45
1.93608e-45
1.93619e-45
1.9363e-45
1.93643e-45
1.93658e-45
1.93675e-45
1.93695e-45
1.93717e-45
1.93743e-45
1.93773e-45
1.93806e-45
1.93843e-45
1.93882e-45
1.93924e-45
1.93968e-45
1.94013e-45
1.94059e-45
1.94103e-45
1.94147e-45
1.94188e-45
1.94227e-45
1.94263e-45
1.94296e-45
1.94325e-45
1.94352e-45
1.94376e-45
1.94397e-45
1.94416e-45
1.94433e-45
1.94448e-45
1.94462e-45
1.94475e-45
1.94488e-45
1.94501e-45
1.94513e-45
1.94526e-45
1.94539e-45
1.94552e-45
1.94566e-45
1.94581e-45
1.94596e-45
1.94613e-45
1.9463e-45
1.94648e-45
1.94666e-45
1.94685e-45
1.94705e-45
1.94725e-45
1.94745e-45
1.94766e-45
1.94787e-45
1.94807e-45
1.94827e-45
1.94847e-45
1.94866e-45
1.94885e-45
1.94903e-45
1.9492e-45
1.94936e-45
1.94951e-45
1.94966e-45
1.94979e-45
1.94994e-45
1.95016e-45
1.95071e-45
1.95255e-45
1.95938e-45
1.98533e-45
2.08377e-45
2.45543e-45
3.84979e-45
9.04721e-45
2.82943e-44
9.91063e-44
3.57938e-43
1.29789e-42
4.68925e-42
1.68466e-41
6.01491e-41
2.13402e-40
7.5235e-40
2.63576e-39
9.17654e-39
3.17514e-38
1.09191e-37
3.73236e-37
1.26821e-36
4.284e-36
1.43882e-35
4.80518e-35
1.59594e-34
5.27219e-34
1.73259e-33
5.66506e-33
1.84329e-32
5.96957e-32
1.9246e-31
6.17837e-31
1.97532e-30
6.29109e-30
1.99635e-29
6.31349e-29
1.99032e-28
6.25595e-28
1.96102e-27
6.1317e-27
1.91288e-26
5.95513e-26
1.85046e-25
5.7403e-25
1.77803e-24
5.50002e-24
1.69935e-23
5.24516e-23
1.61753e-22
4.98445e-22
1.53498e-21
4.72446e-21
1.45346e-20
4.46973e-20
1.37407e-19
4.24289e-19
1.30725e-18
4.01811e-18
1.23377e-17
3.7858e-17
1.16096e-16
3.55789e-16
1.08959e-15
3.33426e-15
1.01949e-14
3.11462e-14
9.50763e-14
2.90008e-13
8.84026e-13
2.69345e-12
8.20418e-12
2.49893e-11
7.61356e-11
2.32095e-10
7.08201e-10
2.16504e-09
6.65588e-09
2.08935e-08
7.07779e-08
2.97309e-07
1.76218e-06
1.21905e-05
6.54884e-05
0.00027284
0.000870685
0.00196847
0.00332853
0.00457939
0.00550218
0.00608887
0.00635519
0.00643743
0.00640483
0.00630462
0.00616737
0.00601199
0.00584984
0.00568753
0.00552879
0.00537558
0.00522886
0.00508897
0.00495589
0.00482943
0.00470927
0.00459508
0.00448649
0.00438314
0.00428468
0.00419078
0.00410115
0.0040155
0.00393357
0.00385513
0.00377999
0.00370797
0.00364102
0.00357773
0.00351652
0.00345728
0.0033999
0.00334428
0.00329035
0.00323802
0.00318724
0.00313792
0.00309
0.00304344
0.00299817
0.00295415
0.00291132
0.00286963
0.00282906
0.00278954
0.00275104
0.00271353
0.00267697
0.00264132
0.00260654
0.00257262
0.00253951
0.00250719
0.00247563
0.0024448
0.00241468
0.00238524
0.00235646
0.00232831
0.00230078
0.00227384
0.00224747
0.00222166
0.00219639
0.00217163
0.00214738
0.00212362
0.00210032
0.00207749
0.0020551
0.00203314
0.0020116
0.00199046
0.00196972
0.00194936
0.00192938
0.00190975
0.00189048
0.00187155
0.00185296
0.00183469
0.00181674
0.00179909
0.00178175
0.0017647
0.00174794
0.00173147
0.00171526
0.00169933
0.00168366
0.00166826
0.00165309
0.00163813
0.00162339
0.00160889
0.00159461
0.00158055
0.00156671
0.00155308
0.00153966
0.00152643
0.00151341
0.00150058
0.00148794
0.00147549
0.00146322
0.00145113
0.00143922
0.00142748
0.0014159
0.0014045
0.00139325
0.00138217
0.00137124
0.00136046
0.00134983
0.00133935
0.00132902
0.00131883
0.00130877
0.00129886
0.00128907
0.00127942
0.0012699
0.0012605
0.00125122
0.00124207
0.00123303
0.00122411
0.0012153
0.00120661
0.00119802
0.00118954
0.00118117
0.0011729
0.00116472
0.00115665
0.00114868
0.00114079
0.001133
0.00112531
0.0011177
0.00111018
0.00110274
0.00109539
0.00108812
0.00108094
0.00107383
0.0010668
0.00105985
0.00105297
0.00104617
0.00103944
0.00103278
0.0010262
0.00101968
0.00101323
0.00100684
0.00100052
0.000994264
0.000988069
0.000981935
0.00097586
0.000969842
0.00096388
0.000957973
0.000952117
0.000946313
0.000940558
0.000934849
0.000929185
0.000923564
0.000917983
0.000912441
0.000906934
0.000901459
0.000896015
0.000890598
0.000885206
0.000879834
0.00087448
0.00086914
0.000863809
0.000858482
0.000853151
0.000847817
0.000842628
0.000835535
0.000830095
0.000824656
0.000819191
0.000813691
0.000808154
0.000802576
0.000796952
0.000791281
0.000785558
0.00077978
0.000773944
0.000768049
0.000762091
0.00075607
0.000749985
0.000743837
0.000737628
0.000731362
0.000725046
0.000718695
0.000712332
0.000705996
0.000699757
0.000693739
0.000688166
0.000683449
0.000680356
)
;

boundaryField
{
    boundary
    {
        type            empty;
    }
    inlet
    {
        type            fixedValue;
        value           uniform 0;
    }
    outlet
    {
        type            zeroGradient;
    }
}


// ************************************************************************* //
