/*--------------------------------*- C++ -*----------------------------------*\
  =========                 |
  \\      /  F ield         | OpenFOAM: The Open Source CFD Toolbox
   \\    /   O peration     | Website:  https://openfoam.org
    \\  /    A nd           | Version:  7
     \\/     M anipulation  |
\*---------------------------------------------------------------------------*/
FoamFile
{
    version     2.0;
    format      ascii;
    class       volScalarField;
    location    "0.00071";
    object      OH;
}
// * * * * * * * * * * * * * * * * * * * * * * * * * * * * * * * * * * * * * //

dimensions      [0 0 0 0 0 0 0];

internalField   nonuniform List<scalar> 
500
(
9.37134e-48
1.82451e-47
2.42889e-47
2.83539e-47
3.10711e-47
3.28786e-47
3.40749e-47
3.48629e-47
3.53802e-47
3.57203e-47
3.59465e-47
3.61015e-47
3.62139e-47
3.63027e-47
3.63803e-47
3.64546e-47
3.65303e-47
3.66103e-47
3.66962e-47
3.6789e-47
3.68894e-47
3.69978e-47
3.71152e-47
3.72425e-47
3.7381e-47
3.75325e-47
3.76991e-47
3.78833e-47
3.80879e-47
3.8316e-47
3.85711e-47
3.88568e-47
3.91769e-47
3.95351e-47
3.99353e-47
4.03811e-47
4.08757e-47
4.14223e-47
4.20231e-47
4.26799e-47
4.33938e-47
4.41648e-47
4.4992e-47
4.58733e-47
4.68056e-47
4.77846e-47
4.88047e-47
4.98594e-47
5.09409e-47
5.2041e-47
5.31504e-47
5.42597e-47
5.53592e-47
5.64394e-47
5.7491e-47
5.85056e-47
5.94755e-47
6.03942e-47
6.12564e-47
6.20582e-47
6.27969e-47
6.34714e-47
6.40815e-47
6.46285e-47
6.51146e-47
6.55426e-47
6.59163e-47
6.62397e-47
6.65172e-47
6.67533e-47
6.69526e-47
6.71194e-47
6.72578e-47
6.73719e-47
6.74651e-47
6.75407e-47
6.76016e-47
6.76503e-47
6.76889e-47
6.77194e-47
6.77432e-47
6.77618e-47
6.77762e-47
6.77873e-47
6.77958e-47
6.78023e-47
6.78074e-47
6.78112e-47
6.78143e-47
6.78166e-47
6.78185e-47
6.78201e-47
6.78215e-47
6.78226e-47
6.78237e-47
6.78247e-47
6.78256e-47
6.78266e-47
6.78275e-47
6.78285e-47
6.78295e-47
6.78305e-47
6.78316e-47
6.78327e-47
6.78339e-47
6.78351e-47
6.78364e-47
6.78377e-47
6.78391e-47
6.78405e-47
6.7842e-47
6.78435e-47
6.78452e-47
6.78468e-47
6.78486e-47
6.78504e-47
6.78523e-47
6.78543e-47
6.78563e-47
6.78585e-47
6.78607e-47
6.78632e-47
6.78658e-47
6.78688e-47
6.78719e-47
6.78752e-47
6.788e-47
6.78851e-47
6.789e-47
6.78946e-47
6.78986e-47
6.79018e-47
6.79044e-47
6.79064e-47
6.7908e-47
6.79093e-47
6.79105e-47
6.79118e-47
6.79133e-47
6.79151e-47
6.79174e-47
6.79202e-47
6.79235e-47
6.79273e-47
6.79315e-47
6.79361e-47
6.79409e-47
6.79461e-47
6.79513e-47
6.79567e-47
6.79621e-47
6.79675e-47
6.79729e-47
6.79783e-47
6.79836e-47
6.79889e-47
6.79942e-47
6.79995e-47
6.80047e-47
6.801e-47
6.80153e-47
6.80206e-47
6.80259e-47
6.80313e-47
6.80367e-47
6.80422e-47
6.80478e-47
6.80534e-47
6.80591e-47
6.80649e-47
6.80707e-47
6.80766e-47
6.80826e-47
6.80886e-47
6.80946e-47
6.81007e-47
6.81068e-47
6.81128e-47
6.81189e-47
6.81249e-47
6.81308e-47
6.81367e-47
6.81424e-47
6.8148e-47
6.81535e-47
6.81588e-47
6.81639e-47
6.81688e-47
6.81735e-47
6.8178e-47
6.81822e-47
6.81861e-47
6.81898e-47
6.81933e-47
6.81971e-47
6.82028e-47
6.82169e-47
6.8264e-47
6.84373e-47
6.90876e-47
7.15249e-47
8.06113e-47
1.14272e-46
2.38157e-46
6.91147e-46
2.33677e-45
8.27633e-45
2.95759e-44
1.05467e-43
3.74146e-43
1.31932e-42
4.62341e-42
1.61016e-41
5.57296e-41
1.91708e-40
6.55491e-40
2.22792e-39
7.52799e-39
2.52902e-38
8.44831e-38
2.80665e-37
9.27399e-37
3.04841e-36
9.96963e-36
3.2446e-35
1.051e-34
3.3891e-34
1.08819e-33
3.47978e-33
1.10848e-32
3.51827e-32
1.11292e-31
3.50941e-31
1.10345e-30
3.46042e-30
1.08265e-29
3.38027e-29
1.05357e-28
3.27935e-28
1.0198e-27
3.17022e-27
9.85868e-27
3.06985e-26
9.58389e-26
3.00507e-25
9.48612e-25
3.02425e-24
9.77705e-24
3.22119e-23
1.0876e-22
3.78424e-22
1.3701e-21
5.13398e-21
1.99291e-20
8.00364e-20
3.31129e-19
1.40369e-18
6.06431e-18
2.65753e-17
1.17683e-16
5.25083e-16
2.35564e-15
1.06097e-14
4.79253e-14
2.16958e-13
9.83828e-13
4.46721e-12
2.0305e-11
9.23676e-11
4.24342e-10
1.97168e-09
9.22913e-09
4.35512e-08
2.1095e-07
1.10759e-06
6.82566e-06
4.6696e-05
0.00024604
0.000609896
0.000824556
0.000995369
0.00141863
0.00226978
0.00349423
0.00487202
0.00634248
0.00749199
0.00841863
0.0091475
0.00971545
0.0101587
0.010507
0.0107833
0.0110044
0.0111827
0.0113274
0.0114451
0.0115411
0.0116191
0.0116821
0.0117326
0.0117725
0.0118032
0.0118262
0.0118423
0.0118526
0.0118577
0.0118583
0.011855
0.0118481
0.011838
0.0118253
0.0118106
0.0117943
0.0117763
0.0117568
0.0117358
0.0117134
0.0116899
0.0116653
0.0116397
0.0116133
0.0115861
0.0115581
0.0115296
0.0115005
0.0114709
0.0114408
0.0114104
0.0113796
0.0113486
0.0113173
0.0112858
0.0112542
0.0112223
0.0111904
0.0111583
0.0111262
0.0110941
0.0110619
0.0110296
0.0109974
0.0109652
0.010933
0.0109008
0.0108687
0.0108366
0.0108046
0.0107727
0.0107408
0.010709
0.0106773
0.0106457
0.0106142
0.0105827
0.0105514
0.0105202
0.0104891
0.0104582
0.0104273
0.0103966
0.010366
0.0103355
0.0103051
0.0102749
0.0102448
0.0102149
0.0101851
0.0101554
0.0101259
0.0100965
0.0100673
0.0100382
0.0100093
0.00998046
0.00995181
0.00992329
0.00989486
0.00986658
0.00983845
0.00981047
0.00978264
0.00975496
0.00972743
0.00970006
0.00967283
0.00964576
0.00961885
0.00959208
0.00956547
0.00953902
0.00951272
0.00948658
0.00946059
0.00943476
0.00940908
0.00938356
0.0093582
0.00933299
0.00930794
0.00928304
0.0092583
0.0092337
0.00920927
0.00918498
0.00916084
0.00913686
0.00911302
0.00908932
0.00906578
0.00904237
0.00901911
0.00899599
0.00897301
0.00895016
0.00892745
0.00890487
0.00888242
0.0088601
0.00883791
0.00881584
0.00879389
0.00877207
0.00875036
0.00872878
0.0087073
0.00868595
0.0086647
0.00864357
0.00862254
0.00860163
0.00858082
0.00856011
0.00853951
0.00851902
0.00849863
0.00847833
0.00845814
0.00843805
0.00841805
0.00839815
0.00837834
0.00835862
0.00833899
0.00831945
0.0083
0.00828063
0.00826133
0.00824212
0.00822297
0.00820389
0.00818487
0.0081659
0.00814699
0.00812812
0.00810928
0.00809048
0.00807169
0.00805291
0.00803414
0.00801535
0.00799653
0.00797768
0.00795879
0.00793982
0.00792077
0.00790163
0.00788236
0.00786294
0.00784335
0.00782366
0.00780434
0.00777774
0.00775713
0.00773625
0.00771505
0.00769352
0.00767163
0.00764937
0.00762672
0.00760365
0.00758015
0.0075562
0.00753179
0.00750689
0.0074815
0.00745561
0.00742921
0.00740232
0.00737493
0.00734708
0.00731879
0.00729015
0.00726126
0.00723233
0.00720371
0.00717599
0.00715028
0.00712849
0.00711418
)
;

boundaryField
{
    boundary
    {
        type            empty;
    }
    inlet
    {
        type            fixedValue;
        value           uniform 0;
    }
    outlet
    {
        type            zeroGradient;
    }
}


// ************************************************************************* //
