/*--------------------------------*- C++ -*----------------------------------*\
  =========                 |
  \\      /  F ield         | OpenFOAM: The Open Source CFD Toolbox
   \\    /   O peration     | Website:  https://openfoam.org
    \\  /    A nd           | Version:  7
     \\/     M anipulation  |
\*---------------------------------------------------------------------------*/
FoamFile
{
    version     2.0;
    format      ascii;
    class       surfaceScalarField;
    location    "0.00071";
    object      phi;
}
// * * * * * * * * * * * * * * * * * * * * * * * * * * * * * * * * * * * * * //

dimensions      [1 0 -1 0 0 0 0];

internalField   nonuniform List<scalar> 
499
(
6.9298e-06
6.92989e-06
6.93e-06
6.93014e-06
6.93029e-06
6.93046e-06
6.93064e-06
6.93083e-06
6.93102e-06
6.9312e-06
6.93137e-06
6.93152e-06
6.93165e-06
6.93175e-06
6.93183e-06
6.93189e-06
6.93192e-06
6.93193e-06
6.93193e-06
6.9319e-06
6.93186e-06
6.93181e-06
6.93174e-06
6.93165e-06
6.93154e-06
6.93142e-06
6.93127e-06
6.9311e-06
6.9309e-06
6.93066e-06
6.93039e-06
6.93008e-06
6.92972e-06
6.9293e-06
6.92883e-06
6.92829e-06
6.92769e-06
6.92703e-06
6.92629e-06
6.92548e-06
6.9246e-06
6.92366e-06
6.92265e-06
6.92158e-06
6.92046e-06
6.91929e-06
6.91809e-06
6.91687e-06
6.91562e-06
6.91438e-06
6.91313e-06
6.91191e-06
6.91071e-06
6.90955e-06
6.90844e-06
6.90738e-06
6.90638e-06
6.90545e-06
6.90458e-06
6.90379e-06
6.90306e-06
6.90241e-06
6.90183e-06
6.90131e-06
6.90086e-06
6.90047e-06
6.90014e-06
6.89985e-06
6.89962e-06
6.89942e-06
6.89926e-06
6.89914e-06
6.89904e-06
6.89897e-06
6.89892e-06
6.89889e-06
6.89887e-06
6.89887e-06
6.89887e-06
6.89888e-06
6.8989e-06
6.89893e-06
6.89896e-06
6.89899e-06
6.89903e-06
6.89907e-06
6.89911e-06
6.89915e-06
6.89919e-06
6.89923e-06
6.89927e-06
6.89931e-06
6.89936e-06
6.8994e-06
6.89944e-06
6.89949e-06
6.89953e-06
6.89957e-06
6.89962e-06
6.89966e-06
6.8997e-06
6.89975e-06
6.89979e-06
6.89983e-06
6.89988e-06
6.89992e-06
6.89996e-06
6.90001e-06
6.90005e-06
6.90009e-06
6.90013e-06
6.90018e-06
6.90022e-06
6.90026e-06
6.9003e-06
6.90035e-06
6.90039e-06
6.90043e-06
6.90047e-06
6.90051e-06
6.90055e-06
6.9006e-06
6.90064e-06
6.90068e-06
6.90072e-06
6.90076e-06
6.9008e-06
6.90083e-06
6.90087e-06
6.90091e-06
6.90095e-06
6.90099e-06
6.90103e-06
6.90107e-06
6.90111e-06
6.90115e-06
6.9012e-06
6.90124e-06
6.90128e-06
6.90132e-06
6.90136e-06
6.9014e-06
6.90144e-06
6.90148e-06
6.90152e-06
6.90156e-06
6.9016e-06
6.90164e-06
6.90168e-06
6.90172e-06
6.90175e-06
6.90179e-06
6.90183e-06
6.90187e-06
6.9019e-06
6.90194e-06
6.90198e-06
6.90202e-06
6.90205e-06
6.90209e-06
6.90213e-06
6.90216e-06
6.9022e-06
6.90224e-06
6.90227e-06
6.90231e-06
6.90235e-06
6.90238e-06
6.90242e-06
6.90245e-06
6.90249e-06
6.90253e-06
6.90256e-06
6.9026e-06
6.90263e-06
6.90267e-06
6.9027e-06
6.90274e-06
6.90277e-06
6.90281e-06
6.90284e-06
6.90288e-06
6.90291e-06
6.90295e-06
6.90298e-06
6.90302e-06
6.90305e-06
6.90309e-06
6.90312e-06
6.90316e-06
6.9032e-06
6.90323e-06
6.90327e-06
6.9033e-06
6.90334e-06
6.90338e-06
6.90341e-06
6.90345e-06
6.90349e-06
6.90353e-06
6.90357e-06
6.9036e-06
6.90364e-06
6.90368e-06
6.90372e-06
6.90376e-06
6.9038e-06
6.90384e-06
6.90388e-06
6.90393e-06
6.90397e-06
6.90401e-06
6.90406e-06
6.9041e-06
6.90414e-06
6.90419e-06
6.90424e-06
6.90428e-06
6.90433e-06
6.90438e-06
6.90443e-06
6.90448e-06
6.90453e-06
6.90458e-06
6.90463e-06
6.90469e-06
6.90474e-06
6.9048e-06
6.90485e-06
6.90491e-06
6.90497e-06
6.90503e-06
6.90509e-06
6.90515e-06
6.90521e-06
6.90527e-06
6.90534e-06
6.9054e-06
6.90547e-06
6.90554e-06
6.90561e-06
6.90568e-06
6.90575e-06
6.90582e-06
6.9059e-06
6.90597e-06
6.90605e-06
6.90613e-06
6.90621e-06
6.90629e-06
6.90637e-06
6.90645e-06
6.90653e-06
6.90661e-06
6.90669e-06
6.90678e-06
6.90687e-06
6.90695e-06
6.90705e-06
6.90714e-06
6.90723e-06
6.90733e-06
6.90742e-06
6.90752e-06
6.90762e-06
6.90772e-06
6.90782e-06
6.90792e-06
6.90804e-06
6.90818e-06
6.90843e-06
6.909e-06
6.91054e-06
6.91491e-06
6.92703e-06
6.95673e-06
7.0101e-06
7.06981e-06
7.11493e-06
7.14418e-06
7.16353e-06
7.177e-06
7.18639e-06
7.19236e-06
7.19664e-06
7.20039e-06
7.20358e-06
7.20605e-06
7.20806e-06
7.20972e-06
7.21114e-06
7.21236e-06
7.21344e-06
7.21439e-06
7.21525e-06
7.21602e-06
7.21673e-06
7.21737e-06
7.21796e-06
7.21851e-06
7.21902e-06
7.21949e-06
7.21993e-06
7.22034e-06
7.22073e-06
7.2211e-06
7.22144e-06
7.22177e-06
7.22208e-06
7.22238e-06
7.22266e-06
7.22293e-06
7.22317e-06
7.22341e-06
7.22363e-06
7.22385e-06
7.22406e-06
7.22426e-06
7.22445e-06
7.22463e-06
7.22481e-06
7.22498e-06
7.22515e-06
7.22531e-06
7.22546e-06
7.22561e-06
7.22575e-06
7.22589e-06
7.22602e-06
7.22615e-06
7.22627e-06
7.22639e-06
7.22651e-06
7.22663e-06
7.22674e-06
7.22685e-06
7.22695e-06
7.22706e-06
7.22716e-06
7.22726e-06
7.22736e-06
7.22745e-06
7.22755e-06
7.22764e-06
7.22773e-06
7.22782e-06
7.2279e-06
7.22799e-06
7.22807e-06
7.22815e-06
7.22823e-06
7.22831e-06
7.22839e-06
7.22846e-06
7.22853e-06
7.2286e-06
7.22867e-06
7.22874e-06
7.22881e-06
7.22887e-06
7.22893e-06
7.229e-06
7.22906e-06
7.22912e-06
7.22917e-06
7.22923e-06
7.22929e-06
7.22934e-06
7.2294e-06
7.22945e-06
7.2295e-06
7.22955e-06
7.2296e-06
7.22965e-06
7.2297e-06
7.22975e-06
7.22979e-06
7.22984e-06
7.22988e-06
7.22993e-06
7.22997e-06
7.23001e-06
7.23005e-06
7.23009e-06
7.23013e-06
7.23017e-06
7.23021e-06
7.23025e-06
7.23029e-06
7.23032e-06
7.23036e-06
7.23039e-06
7.23042e-06
7.23045e-06
7.23049e-06
7.23051e-06
7.23054e-06
7.23057e-06
7.2306e-06
7.23062e-06
7.23064e-06
7.23066e-06
7.23068e-06
7.2307e-06
7.23072e-06
7.23074e-06
7.23075e-06
7.23076e-06
7.23078e-06
7.23079e-06
7.2308e-06
7.2308e-06
7.23081e-06
7.23082e-06
7.23082e-06
7.23082e-06
7.23083e-06
7.23083e-06
7.23083e-06
7.23083e-06
7.23083e-06
7.23083e-06
7.23082e-06
7.23082e-06
7.23082e-06
7.23081e-06
7.2308e-06
7.2308e-06
7.23079e-06
7.23078e-06
7.23077e-06
7.23076e-06
7.23075e-06
7.23073e-06
7.23072e-06
7.2307e-06
7.23068e-06
7.23066e-06
7.23064e-06
7.23062e-06
7.23059e-06
7.23056e-06
7.23053e-06
7.2305e-06
7.23046e-06
7.23042e-06
7.23038e-06
7.23034e-06
7.2303e-06
7.23025e-06
7.2302e-06
7.23014e-06
7.23009e-06
7.23003e-06
7.22998e-06
7.22992e-06
7.22986e-06
7.2298e-06
7.22974e-06
7.22968e-06
7.22962e-06
7.22957e-06
7.22952e-06
7.22947e-06
7.22943e-06
7.22939e-06
7.22936e-06
7.22934e-06
7.22933e-06
7.22936e-06
7.22914e-06
7.22896e-06
7.22865e-06
7.22862e-06
7.22863e-06
7.22866e-06
7.2287e-06
7.22875e-06
7.22882e-06
7.2289e-06
7.229e-06
7.22911e-06
7.22923e-06
7.22937e-06
7.22952e-06
7.22968e-06
7.22985e-06
7.23003e-06
7.23022e-06
7.2304e-06
7.23058e-06
7.23075e-06
7.23092e-06
7.23106e-06
7.23118e-06
7.23128e-06
7.23134e-06
7.23137e-06
7.23136e-06
)
;

boundaryField
{
    boundary
    {
        type            empty;
        value           nonuniform 0();
    }
    inlet
    {
        type            calculated;
        value           uniform -6.92973e-06;
    }
    outlet
    {
        type            calculated;
        value           uniform 7.23133e-06;
    }
}


// ************************************************************************* //
