/*--------------------------------*- C++ -*----------------------------------*\
  =========                 |
  \\      /  F ield         | OpenFOAM: The Open Source CFD Toolbox
   \\    /   O peration     | Website:  https://openfoam.org
    \\  /    A nd           | Version:  7
     \\/     M anipulation  |
\*---------------------------------------------------------------------------*/
FoamFile
{
    version     2.0;
    format      ascii;
    class       volScalarField;
    location    "0.00071";
    object      Qdot;
}
// * * * * * * * * * * * * * * * * * * * * * * * * * * * * * * * * * * * * * //

dimensions      [1 -1 -3 0 0 0 0];

internalField   nonuniform List<scalar> 
500
(
-2.45072e-27
-1.85969e-27
-1.73078e-27
-1.70118e-27
-1.69268e-27
-1.68849e-27
-1.68512e-27
-1.68193e-27
-1.67892e-27
-1.67617e-27
-1.67378e-27
-1.67184e-27
-1.6704e-27
-1.66947e-27
-1.66905e-27
-1.66914e-27
-1.66969e-27
-1.67068e-27
-1.67207e-27
-1.67383e-27
-1.67594e-27
-1.6784e-27
-1.68121e-27
-1.6844e-27
-1.68801e-27
-1.69208e-27
-1.6967e-27
-1.70194e-27
-1.7079e-27
-1.71469e-27
-1.72243e-27
-1.73124e-27
-1.74124e-27
-1.75258e-27
-1.76536e-27
-1.77972e-27
-1.79575e-27
-1.81355e-27
-1.8332e-27
-1.85474e-27
-1.8782e-27
-1.90356e-27
-1.93078e-27
-1.95978e-27
-1.99043e-27
-2.02259e-27
-2.05606e-27
-2.0906e-27
-2.12596e-27
-2.16184e-27
-2.19794e-27
-2.23396e-27
-2.26957e-27
-2.30445e-27
-2.33833e-27
-2.37092e-27
-2.402e-27
-2.43135e-27
-2.45882e-27
-2.48431e-27
-2.50772e-27
-2.52905e-27
-2.54829e-27
-2.5655e-27
-2.58076e-27
-2.59416e-27
-2.60584e-27
-2.61593e-27
-2.62456e-27
-2.6319e-27
-2.63808e-27
-2.64325e-27
-2.64753e-27
-2.65105e-27
-2.65392e-27
-2.65625e-27
-2.65812e-27
-2.65962e-27
-2.6608e-27
-2.66173e-27
-2.66246e-27
-2.66303e-27
-2.66347e-27
-2.66381e-27
-2.66407e-27
-2.66427e-27
-2.66442e-27
-2.66454e-27
-2.66463e-27
-2.6647e-27
-2.66476e-27
-2.66481e-27
-2.66485e-27
-2.66488e-27
-2.66492e-27
-2.66495e-27
-2.66498e-27
-2.66501e-27
-2.66504e-27
-2.66507e-27
-2.6651e-27
-2.66513e-27
-2.66516e-27
-2.6652e-27
-2.66524e-27
-2.66527e-27
-2.66531e-27
-2.66536e-27
-2.6654e-27
-2.66544e-27
-2.66549e-27
-2.66554e-27
-2.66559e-27
-2.66564e-27
-2.6657e-27
-2.66576e-27
-2.66581e-27
-2.66588e-27
-2.66594e-27
-2.66601e-27
-2.66608e-27
-2.66616e-27
-2.66626e-27
-2.66638e-27
-2.66656e-27
-2.6668e-27
-2.66698e-27
-2.66716e-27
-2.66733e-27
-2.66748e-27
-2.66761e-27
-2.66772e-27
-2.6678e-27
-2.66786e-27
-2.6679e-27
-2.66793e-27
-2.66796e-27
-2.66798e-27
-2.66802e-27
-2.66806e-27
-2.66812e-27
-2.66819e-27
-2.66828e-27
-2.66838e-27
-2.66849e-27
-2.66862e-27
-2.66875e-27
-2.6689e-27
-2.66904e-27
-2.6692e-27
-2.66935e-27
-2.66951e-27
-2.66967e-27
-2.66983e-27
-2.66999e-27
-2.67015e-27
-2.67032e-27
-2.67048e-27
-2.67064e-27
-2.67081e-27
-2.67098e-27
-2.67114e-27
-2.67131e-27
-2.67148e-27
-2.67166e-27
-2.67183e-27
-2.67201e-27
-2.67219e-27
-2.67237e-27
-2.67255e-27
-2.67273e-27
-2.67292e-27
-2.67311e-27
-2.6733e-27
-2.67349e-27
-2.67368e-27
-2.67387e-27
-2.67405e-27
-2.67424e-27
-2.67443e-27
-2.67461e-27
-2.6748e-27
-2.67497e-27
-2.67515e-27
-2.67532e-27
-2.67548e-27
-2.67564e-27
-2.67579e-27
-2.67594e-27
-2.67608e-27
-2.67621e-27
-2.67633e-27
-2.67644e-27
-2.67655e-27
-2.67664e-27
-2.67672e-27
-2.67679e-27
-2.67685e-27
-2.6769e-27
-2.67693e-27
-2.67695e-27
-2.67696e-27
-2.67695e-27
-2.67692e-27
-2.67688e-27
-2.67682e-27
-2.67673e-27
-2.67661e-27
-2.67641e-27
-2.67595e-27
-2.67468e-27
-2.67061e-27
-2.65688e-27
-2.60996e-27
-2.44957e-27
-1.90324e-27
-5.2175e-29
6.18458e-27
2.70793e-26
9.66917e-26
3.27345e-25
1.08753e-24
3.58002e-24
1.17116e-23
3.81127e-23
1.23435e-22
3.97962e-22
1.27755e-21
4.08454e-21
1.30088e-20
4.12818e-20
1.30559e-19
4.11613e-19
1.29391e-18
4.05661e-18
1.26874e-17
3.95955e-17
1.23339e-16
3.83588e-16
1.19148e-15
3.69768e-15
1.14711e-14
3.55937e-14
1.10556e-13
3.44115e-13
1.0749e-12
3.37641e-12
1.06938e-11
3.42724e-11
1.11644e-10
3.71613e-10
1.27742e-09
4.52342e-09
1.65765e-08
6.30427e-08
2.4859e-07
1.01275e-06
4.24135e-06
1.8161e-05
7.9116e-05
0.000349175
0.00155669
0.00699606
0.0316621
0.144286
0.662691
3.07408
14.4544
72.4882
398.737
2568.69
18875.9
155231
1.41052e+06
1.34342e+07
1.24049e+08
9.49313e+08
4.36435e+09
1.00814e+10
1.32765e+10
1.38574e+10
1.39062e+10
1.37986e+10
1.30302e+10
1.13855e+10
9.35388e+09
7.60387e+09
6.26251e+09
5.23174e+09
4.44759e+09
3.84436e+09
3.37177e+09
2.99407e+09
2.68633e+09
2.43117e+09
2.21637e+09
2.03312e+09
1.87503e+09
1.73729e+09
1.61628e+09
1.50919e+09
1.41378e+09
1.32832e+09
1.25135e+09
1.18174e+09
1.11849e+09
1.06083e+09
1.00806e+09
9.59619e+08
9.15036e+08
8.73909e+08
8.35955e+08
8.01775e+08
7.70455e+08
7.40994e+08
7.13318e+08
6.87261e+08
6.62694e+08
6.39486e+08
6.17539e+08
5.9676e+08
5.77062e+08
5.58367e+08
5.40605e+08
5.23714e+08
5.07634e+08
4.92313e+08
4.77701e+08
4.63753e+08
4.5043e+08
4.37691e+08
4.25502e+08
4.13831e+08
4.02648e+08
3.91924e+08
3.81634e+08
3.71754e+08
3.62262e+08
3.53135e+08
3.44356e+08
3.35905e+08
3.27767e+08
3.19924e+08
3.12363e+08
3.05069e+08
2.9803e+08
2.91231e+08
2.84665e+08
2.78318e+08
2.72181e+08
2.66243e+08
2.60497e+08
2.54934e+08
2.49546e+08
2.44324e+08
2.39263e+08
2.34355e+08
2.29594e+08
2.24975e+08
2.2049e+08
2.16135e+08
2.11904e+08
2.07794e+08
2.03799e+08
1.99914e+08
1.96136e+08
1.9246e+08
1.88884e+08
1.85402e+08
1.82012e+08
1.78711e+08
1.75496e+08
1.72363e+08
1.69312e+08
1.66342e+08
1.63453e+08
1.60633e+08
1.57869e+08
1.55167e+08
1.52531e+08
1.49957e+08
1.47445e+08
1.44991e+08
1.42593e+08
1.40251e+08
1.37962e+08
1.35725e+08
1.33537e+08
1.31399e+08
1.29307e+08
1.27261e+08
1.2526e+08
1.23302e+08
1.21385e+08
1.1951e+08
1.17673e+08
1.15875e+08
1.14115e+08
1.1239e+08
1.10701e+08
1.09046e+08
1.07425e+08
1.05835e+08
1.04278e+08
1.02751e+08
1.01254e+08
9.97863e+07
9.83469e+07
9.69351e+07
9.55501e+07
9.41914e+07
9.28582e+07
9.155e+07
9.02657e+07
8.90054e+07
8.77681e+07
8.65533e+07
8.53604e+07
8.41889e+07
8.30384e+07
8.19082e+07
8.0798e+07
7.97072e+07
7.86353e+07
7.75821e+07
7.6547e+07
7.55295e+07
7.45294e+07
7.35461e+07
7.25798e+07
7.16293e+07
7.06947e+07
6.97756e+07
6.88717e+07
6.79826e+07
6.71081e+07
6.62479e+07
6.54016e+07
6.4569e+07
6.37498e+07
6.29438e+07
6.21506e+07
6.13701e+07
6.0602e+07
5.9846e+07
5.9102e+07
5.83697e+07
5.76491e+07
5.69387e+07
5.62405e+07
5.5553e+07
5.48761e+07
5.42096e+07
5.35534e+07
5.29073e+07
5.22711e+07
5.16446e+07
5.10278e+07
5.04199e+07
4.98218e+07
4.92326e+07
4.86523e+07
4.80807e+07
4.75176e+07
4.6963e+07
4.64168e+07
4.58794e+07
4.53516e+07
4.48358e+07
4.43421e+07
4.38504e+07
4.34638e+07
4.25064e+07
4.20813e+07
4.16473e+07
4.11843e+07
4.0715e+07
4.02462e+07
3.97804e+07
3.93186e+07
3.88609e+07
3.84074e+07
3.79576e+07
3.75113e+07
3.70684e+07
3.66283e+07
3.61908e+07
3.57556e+07
3.53224e+07
3.48907e+07
3.446e+07
3.40297e+07
3.35989e+07
3.31662e+07
3.27295e+07
3.22862e+07
3.18334e+07
3.13703e+07
3.09106e+07
3.05544e+07
)
;

boundaryField
{
    boundary
    {
        type            empty;
    }
    inlet
    {
        type            calculated;
        value           uniform 0;
    }
    outlet
    {
        type            calculated;
        value           uniform 0;
    }
}


// ************************************************************************* //
