/*--------------------------------*- C++ -*----------------------------------*\
  =========                 |
  \\      /  F ield         | OpenFOAM: The Open Source CFD Toolbox
   \\    /   O peration     | Website:  https://openfoam.org
    \\  /    A nd           | Version:  7
     \\/     M anipulation  |
\*---------------------------------------------------------------------------*/
FoamFile
{
    version     2.0;
    format      ascii;
    class       volScalarField;
    location    "0.00071";
    object      rho;
}
// * * * * * * * * * * * * * * * * * * * * * * * * * * * * * * * * * * * * * //

dimensions      [1 -3 0 0 0 0 0];

internalField   nonuniform List<scalar> 
500
(
0.864626
0.864633
0.864643
0.864655
0.864669
0.864686
0.864703
0.86472
0.864737
0.864753
0.864767
0.864778
0.864787
0.864792
0.864795
0.864794
0.864792
0.864786
0.864778
0.864768
0.864756
0.864742
0.864727
0.864708
0.864688
0.864665
0.864639
0.864609
0.864576
0.864538
0.864495
0.864446
0.864391
0.864329
0.86426
0.864183
0.864097
0.864003
0.8639
0.863788
0.863668
0.86354
0.863405
0.863262
0.863114
0.862961
0.862804
0.862644
0.862484
0.862323
0.862165
0.862009
0.861857
0.861711
0.86157
0.861437
0.861312
0.861195
0.861087
0.860987
0.860896
0.860814
0.860741
0.860676
0.860618
0.860568
0.860524
0.860487
0.860454
0.860427
0.860404
0.860385
0.860369
0.860356
0.860345
0.860337
0.86033
0.860324
0.86032
0.860316
0.860314
0.860312
0.86031
0.860309
0.860308
0.860307
0.860307
0.860306
0.860306
0.860305
0.860305
0.860305
0.860305
0.860305
0.860305
0.860305
0.860305
0.860304
0.860304
0.860304
0.860304
0.860304
0.860304
0.860304
0.860304
0.860304
0.860304
0.860303
0.860303
0.860303
0.860303
0.860303
0.860303
0.860302
0.860302
0.860302
0.860302
0.860302
0.860301
0.860301
0.860301
0.860301
0.8603
0.8603
0.860299
0.860299
0.860298
0.860297
0.860297
0.860296
0.860296
0.860295
0.860295
0.860295
0.860295
0.860295
0.860295
0.860295
0.860294
0.860294
0.860294
0.860294
0.860294
0.860293
0.860293
0.860292
0.860292
0.860292
0.860291
0.860291
0.86029
0.860289
0.860289
0.860288
0.860288
0.860287
0.860287
0.860286
0.860286
0.860285
0.860284
0.860284
0.860283
0.860283
0.860282
0.860282
0.860281
0.86028
0.86028
0.860279
0.860278
0.860278
0.860277
0.860277
0.860276
0.860275
0.860275
0.860274
0.860273
0.860273
0.860272
0.860272
0.860271
0.86027
0.86027
0.860269
0.860269
0.860268
0.860268
0.860267
0.860267
0.860266
0.860266
0.860266
0.860265
0.860265
0.860265
0.860265
0.860265
0.860265
0.860265
0.860265
0.860265
0.860265
0.860265
0.860265
0.860266
0.860266
0.860266
0.860267
0.860268
0.860268
0.860269
0.86027
0.860271
0.860272
0.860273
0.860274
0.860276
0.860277
0.860278
0.86028
0.860282
0.860284
0.860286
0.860288
0.86029
0.860293
0.860295
0.860298
0.8603
0.860303
0.860306
0.86031
0.860313
0.860317
0.86032
0.860324
0.860328
0.860332
0.860336
0.860341
0.860345
0.86035
0.860355
0.86036
0.860365
0.860371
0.860376
0.860382
0.860388
0.860393
0.860399
0.860405
0.860412
0.860418
0.860425
0.860432
0.860439
0.860446
0.860454
0.860461
0.860469
0.860478
0.860486
0.860495
0.860504
0.860509
0.860501
0.860446
0.860242
0.859576
0.857527
0.851436
0.834027
0.788489
0.693076
0.559008
0.43739
0.353522
0.298911
0.261599
0.235094
0.21648
0.202792
0.192358
0.184933
0.17948
0.175143
0.171612
0.16867
0.166169
0.164009
0.162118
0.160444
0.158949
0.157602
0.156381
0.155267
0.154245
0.153304
0.152434
0.151626
0.150873
0.150169
0.14951
0.14889
0.148307
0.147757
0.147237
0.146745
0.14628
0.14585
0.145449
0.145062
0.144691
0.144334
0.143991
0.14366
0.143341
0.143033
0.142736
0.142448
0.14217
0.141901
0.14164
0.141387
0.141142
0.140904
0.140673
0.140448
0.14023
0.140017
0.139811
0.139609
0.139413
0.139222
0.139036
0.138854
0.138677
0.138504
0.138335
0.13817
0.138009
0.137851
0.137697
0.137546
0.137398
0.137254
0.137112
0.136974
0.136838
0.136705
0.136575
0.136447
0.136321
0.136198
0.136078
0.135959
0.135843
0.135729
0.135616
0.135506
0.135398
0.135292
0.135187
0.135084
0.134983
0.134884
0.134786
0.13469
0.134595
0.134502
0.13441
0.134321
0.134232
0.134145
0.134059
0.133974
0.13389
0.133808
0.133727
0.133647
0.133568
0.13349
0.133413
0.133337
0.133263
0.133189
0.133117
0.133045
0.132974
0.132904
0.132835
0.132767
0.1327
0.132634
0.132569
0.132504
0.13244
0.132377
0.132315
0.132253
0.132192
0.132132
0.132073
0.132014
0.131956
0.131898
0.131842
0.131785
0.13173
0.131675
0.131621
0.131567
0.131514
0.131461
0.131409
0.131358
0.131307
0.131257
0.131207
0.131157
0.131109
0.13106
0.131013
0.130965
0.130918
0.130872
0.130826
0.13078
0.130735
0.130691
0.130647
0.130603
0.130559
0.130516
0.130474
0.130431
0.13039
0.130348
0.130307
0.130266
0.130226
0.130185
0.130146
0.130106
0.130067
0.130028
0.129989
0.129951
0.129913
0.129875
0.129838
0.129801
0.129764
0.129728
0.129691
0.129656
0.12962
0.129585
0.12955
0.129516
0.129482
0.129448
0.129415
0.129382
0.129349
0.129317
0.129285
0.129254
0.129222
0.129181
0.129149
0.129119
0.12909
0.129061
0.129032
0.129004
0.128977
0.12895
0.128923
0.128898
0.128872
0.128847
0.128822
0.128798
0.128774
0.12875
0.128727
0.128703
0.12868
0.128656
0.128633
0.128609
0.128586
0.128562
0.12854
0.12852
0.128508
)
;

boundaryField
{
    boundary
    {
        type            empty;
    }
    inlet
    {
        type            calculated;
        value           uniform 0.864622;
    }
    outlet
    {
        type            calculated;
        value           uniform 0.128508;
    }
}


// ************************************************************************* //
