/*--------------------------------*- C++ -*----------------------------------*\
  =========                 |
  \\      /  F ield         | OpenFOAM: The Open Source CFD Toolbox
   \\    /   O peration     | Website:  https://openfoam.org
    \\  /    A nd           | Version:  7
     \\/     M anipulation  |
\*---------------------------------------------------------------------------*/
FoamFile
{
    version     2.0;
    format      ascii;
    class       volScalarField;
    location    "0.00071";
    object      T;
}
// * * * * * * * * * * * * * * * * * * * * * * * * * * * * * * * * * * * * * //

dimensions      [0 0 0 1 0 0 0];

internalField   nonuniform List<scalar> 
500
(
299.999
299.996
299.993
299.989
299.984
299.978
299.972
299.966
299.96
299.955
299.95
299.946
299.943
299.941
299.94
299.94
299.941
299.943
299.946
299.949
299.953
299.958
299.964
299.97
299.977
299.985
299.994
300.004
300.016
300.029
300.044
300.061
300.08
300.102
300.126
300.153
300.182
300.215
300.251
300.29
300.331
300.376
300.423
300.473
300.524
300.578
300.632
300.688
300.744
300.8
300.855
300.91
300.963
301.014
301.063
301.109
301.153
301.194
301.232
301.267
301.299
301.327
301.353
301.376
301.396
301.414
301.429
301.442
301.453
301.463
301.471
301.478
301.483
301.488
301.491
301.495
301.497
301.499
301.5
301.502
301.503
301.503
301.504
301.504
301.505
301.505
301.505
301.505
301.505
301.506
301.506
301.506
301.506
301.506
301.506
301.506
301.506
301.506
301.506
301.506
301.506
301.506
301.506
301.506
301.506
301.506
301.506
301.506
301.506
301.506
301.507
301.507
301.507
301.507
301.507
301.507
301.507
301.507
301.507
301.507
301.507
301.507
301.508
301.508
301.508
301.508
301.508
301.509
301.509
301.509
301.509
301.509
301.509
301.51
301.51
301.51
301.51
301.51
301.51
301.51
301.51
301.51
301.51
301.51
301.51
301.51
301.511
301.511
301.511
301.511
301.511
301.512
301.512
301.512
301.512
301.512
301.513
301.513
301.513
301.513
301.513
301.514
301.514
301.514
301.514
301.515
301.515
301.515
301.515
301.515
301.516
301.516
301.516
301.516
301.517
301.517
301.517
301.517
301.518
301.518
301.518
301.518
301.518
301.519
301.519
301.519
301.519
301.52
301.52
301.52
301.52
301.52
301.52
301.52
301.521
301.521
301.521
301.521
301.521
301.521
301.521
301.521
301.521
301.521
301.521
301.521
301.521
301.521
301.52
301.52
301.52
301.52
301.52
301.519
301.519
301.519
301.518
301.518
301.517
301.517
301.516
301.516
301.515
301.515
301.514
301.513
301.512
301.512
301.511
301.51
301.509
301.508
301.507
301.506
301.505
301.503
301.502
301.501
301.499
301.498
301.497
301.495
301.493
301.492
301.49
301.488
301.487
301.485
301.483
301.481
301.479
301.477
301.475
301.473
301.47
301.468
301.466
301.464
301.461
301.458
301.456
301.453
301.451
301.448
301.445
301.443
301.442
301.444
301.455
301.49
301.596
301.901
302.769
305.239
312.232
331.524
379.646
475.204
614.358
769.376
920.696
1063.03
1192.73
1303.22
1397.53
1477.34
1540.55
1590.85
1633.45
1670.03
1701.94
1730.16
1755.4
1778.17
1798.89
1817.86
1835.32
1851.48
1866.5
1880.52
1893.63
1905.94
1917.53
1928.47
1938.82
1948.63
1957.95
1966.81
1975.25
1983.3
1990.99
1998.33
2005.15
2011.58
2017.79
2023.81
2029.62
2035.26
2040.72
2046.02
2051.16
2056.15
2061
2065.72
2070.31
2074.77
2079.12
2083.36
2087.5
2091.53
2095.46
2099.3
2103.05
2106.72
2110.3
2113.8
2117.22
2120.58
2123.86
2127.07
2130.21
2133.3
2136.32
2139.28
2142.18
2145.03
2147.82
2150.57
2153.26
2155.9
2158.5
2161.05
2163.55
2166.02
2168.44
2170.82
2173.16
2175.46
2177.72
2179.95
2182.15
2184.3
2186.43
2188.52
2190.58
2192.61
2194.61
2196.58
2198.52
2200.43
2202.31
2204.17
2206
2207.8
2209.57
2211.32
2213.04
2214.75
2216.44
2218.1
2219.75
2221.37
2222.97
2224.55
2226.11
2227.66
2229.18
2230.68
2232.17
2233.64
2235.09
2236.52
2237.94
2239.34
2240.72
2242.09
2243.44
2244.78
2246.11
2247.41
2248.71
2249.99
2251.25
2252.51
2253.75
2254.97
2256.19
2257.39
2258.58
2259.75
2260.92
2262.07
2263.21
2264.34
2265.46
2266.57
2267.66
2268.75
2269.82
2270.89
2271.94
2272.98
2274.02
2275.04
2276.05
2277.05
2278.05
2279.03
2280.01
2280.97
2281.93
2282.87
2283.81
2284.74
2285.66
2286.57
2287.48
2288.37
2289.26
2290.14
2291.01
2291.87
2292.73
2293.57
2294.41
2295.24
2296.07
2296.89
2297.69
2298.5
2299.29
2300.08
2300.85
2301.62
2302.39
2303.14
2303.89
2304.62
2305.35
2306.07
2306.78
2307.48
2308.17
2308.85
2309.52
2310.18
2310.83
2311.46
2312.09
2312.7
2313.3
2313.91
2314.65
2315.26
2315.8
2316.34
2316.87
2317.38
2317.87
2318.35
2318.82
2319.27
2319.7
2320.12
2320.53
2320.92
2321.3
2321.67
2322.03
2322.37
2322.71
2323.04
2323.37
2323.69
2324.01
2324.32
2324.63
2324.92
2325.18
2325.34
)
;

boundaryField
{
    boundary
    {
        type            empty;
    }
    inlet
    {
        type            fixedValue;
        value           uniform 300;
    }
    outlet
    {
        type            zeroGradient;
    }
}


// ************************************************************************* //
