/*--------------------------------*- C++ -*----------------------------------*\
  =========                 |
  \\      /  F ield         | OpenFOAM: The Open Source CFD Toolbox
   \\    /   O peration     | Website:  https://openfoam.org
    \\  /    A nd           | Version:  7
     \\/     M anipulation  |
\*---------------------------------------------------------------------------*/
FoamFile
{
    version     2.0;
    format      ascii;
    class       volVectorField;
    location    "0.00071";
    object      U;
}
// * * * * * * * * * * * * * * * * * * * * * * * * * * * * * * * * * * * * * //

dimensions      [0 1 -1 0 0 0 0];

internalField   nonuniform List<vector> 
500
(
(2.34893 0 0)
(2.34894 0 0)
(2.34895 0 0)
(2.34896 0 0)
(2.34897 0 0)
(2.34898 0 0)
(2.34899 0 0)
(2.34901 0 0)
(2.34903 0 0)
(2.34905 0 0)
(2.34907 0 0)
(2.34909 0 0)
(2.34912 0 0)
(2.34914 0 0)
(2.34917 0 0)
(2.34919 0 0)
(2.34921 0 0)
(2.34924 0 0)
(2.34926 0 0)
(2.34928 0 0)
(2.3493 0 0)
(2.34932 0 0)
(2.34935 0 0)
(2.34937 0 0)
(2.34939 0 0)
(2.34941 0 0)
(2.34944 0 0)
(2.34947 0 0)
(2.34949 0 0)
(2.34952 0 0)
(2.34955 0 0)
(2.34959 0 0)
(2.34962 0 0)
(2.34966 0 0)
(2.3497 0 0)
(2.34974 0 0)
(2.34978 0 0)
(2.34982 0 0)
(2.34986 0 0)
(2.3499 0 0)
(2.34994 0 0)
(2.34998 0 0)
(2.35002 0 0)
(2.35005 0 0)
(2.35009 0 0)
(2.35011 0 0)
(2.35014 0 0)
(2.35016 0 0)
(2.35018 0 0)
(2.35019 0 0)
(2.3502 0 0)
(2.3502 0 0)
(2.35021 0 0)
(2.3502 0 0)
(2.3502 0 0)
(2.35019 0 0)
(2.35018 0 0)
(2.35017 0 0)
(2.35016 0 0)
(2.35015 0 0)
(2.35014 0 0)
(2.35013 0 0)
(2.35012 0 0)
(2.35011 0 0)
(2.3501 0 0)
(2.3501 0 0)
(2.35009 0 0)
(2.35009 0 0)
(2.35009 0 0)
(2.35009 0 0)
(2.3501 0 0)
(2.3501 0 0)
(2.35011 0 0)
(2.35012 0 0)
(2.35012 0 0)
(2.35013 0 0)
(2.35014 0 0)
(2.35016 0 0)
(2.35017 0 0)
(2.35018 0 0)
(2.35019 0 0)
(2.35021 0 0)
(2.35022 0 0)
(2.35024 0 0)
(2.35025 0 0)
(2.35026 0 0)
(2.35028 0 0)
(2.35029 0 0)
(2.35031 0 0)
(2.35032 0 0)
(2.35034 0 0)
(2.35035 0 0)
(2.35037 0 0)
(2.35038 0 0)
(2.3504 0 0)
(2.35041 0 0)
(2.35043 0 0)
(2.35044 0 0)
(2.35046 0 0)
(2.35047 0 0)
(2.35049 0 0)
(2.3505 0 0)
(2.35052 0 0)
(2.35053 0 0)
(2.35055 0 0)
(2.35056 0 0)
(2.35058 0 0)
(2.35059 0 0)
(2.35061 0 0)
(2.35062 0 0)
(2.35064 0 0)
(2.35065 0 0)
(2.35067 0 0)
(2.35068 0 0)
(2.3507 0 0)
(2.35071 0 0)
(2.35073 0 0)
(2.35074 0 0)
(2.35076 0 0)
(2.35077 0 0)
(2.35079 0 0)
(2.3508 0 0)
(2.35082 0 0)
(2.35083 0 0)
(2.35085 0 0)
(2.35087 0 0)
(2.35088 0 0)
(2.35089 0 0)
(2.35091 0 0)
(2.35092 0 0)
(2.35094 0 0)
(2.35095 0 0)
(2.35097 0 0)
(2.35098 0 0)
(2.35099 0 0)
(2.35101 0 0)
(2.35102 0 0)
(2.35104 0 0)
(2.35105 0 0)
(2.35107 0 0)
(2.35108 0 0)
(2.3511 0 0)
(2.35111 0 0)
(2.35113 0 0)
(2.35114 0 0)
(2.35115 0 0)
(2.35117 0 0)
(2.35118 0 0)
(2.3512 0 0)
(2.35121 0 0)
(2.35123 0 0)
(2.35124 0 0)
(2.35126 0 0)
(2.35127 0 0)
(2.35128 0 0)
(2.3513 0 0)
(2.35131 0 0)
(2.35133 0 0)
(2.35134 0 0)
(2.35135 0 0)
(2.35137 0 0)
(2.35138 0 0)
(2.3514 0 0)
(2.35141 0 0)
(2.35143 0 0)
(2.35144 0 0)
(2.35145 0 0)
(2.35147 0 0)
(2.35148 0 0)
(2.3515 0 0)
(2.35151 0 0)
(2.35152 0 0)
(2.35154 0 0)
(2.35155 0 0)
(2.35156 0 0)
(2.35158 0 0)
(2.35159 0 0)
(2.35161 0 0)
(2.35162 0 0)
(2.35163 0 0)
(2.35165 0 0)
(2.35166 0 0)
(2.35167 0 0)
(2.35169 0 0)
(2.3517 0 0)
(2.35171 0 0)
(2.35173 0 0)
(2.35174 0 0)
(2.35175 0 0)
(2.35177 0 0)
(2.35178 0 0)
(2.35179 0 0)
(2.35181 0 0)
(2.35182 0 0)
(2.35183 0 0)
(2.35185 0 0)
(2.35186 0 0)
(2.35187 0 0)
(2.35189 0 0)
(2.3519 0 0)
(2.35191 0 0)
(2.35193 0 0)
(2.35194 0 0)
(2.35195 0 0)
(2.35197 0 0)
(2.35198 0 0)
(2.35199 0 0)
(2.352 0 0)
(2.35202 0 0)
(2.35203 0 0)
(2.35204 0 0)
(2.35205 0 0)
(2.35207 0 0)
(2.35208 0 0)
(2.35209 0 0)
(2.3521 0 0)
(2.35212 0 0)
(2.35213 0 0)
(2.35214 0 0)
(2.35215 0 0)
(2.35217 0 0)
(2.35218 0 0)
(2.35219 0 0)
(2.3522 0 0)
(2.35222 0 0)
(2.35223 0 0)
(2.35224 0 0)
(2.35225 0 0)
(2.35227 0 0)
(2.35228 0 0)
(2.35229 0 0)
(2.3523 0 0)
(2.35231 0 0)
(2.35233 0 0)
(2.35234 0 0)
(2.35235 0 0)
(2.35236 0 0)
(2.35237 0 0)
(2.35238 0 0)
(2.3524 0 0)
(2.35241 0 0)
(2.35242 0 0)
(2.35243 0 0)
(2.35244 0 0)
(2.35246 0 0)
(2.35247 0 0)
(2.35248 0 0)
(2.35249 0 0)
(2.3525 0 0)
(2.35251 0 0)
(2.35253 0 0)
(2.35254 0 0)
(2.35255 0 0)
(2.35256 0 0)
(2.35257 0 0)
(2.35258 0 0)
(2.35259 0 0)
(2.3526 0 0)
(2.35261 0 0)
(2.35263 0 0)
(2.35264 0 0)
(2.35265 0 0)
(2.35266 0 0)
(2.35267 0 0)
(2.35268 0 0)
(2.35269 0 0)
(2.3527 0 0)
(2.35273 0 0)
(2.3528 0 0)
(2.35303 0 0)
(2.3538 0 0)
(2.35622 0 0)
(2.36346 0 0)
(2.38353 0 0)
(2.4344 0 0)
(2.5551 0 0)
(2.8276 0 0)
(3.39991 0 0)
(4.37778 0 0)
(5.58917 0 0)
(6.80712 0 0)
(7.91262 0 0)
(8.87562 0 0)
(9.69237 0 0)
(10.3769 0 0)
(10.9463 0 0)
(11.4046 0 0)
(11.7661 0 0)
(12.0603 0 0)
(12.3103 0 0)
(12.5276 0 0)
(12.7188 0 0)
(12.8886 0 0)
(13.0408 0 0)
(13.1786 0 0)
(13.3042 0 0)
(13.4193 0 0)
(13.5254 0 0)
(13.6236 0 0)
(13.715 0 0)
(13.8002 0 0)
(13.8799 0 0)
(13.9548 0 0)
(14.0253 0 0)
(14.0918 0 0)
(14.1547 0 0)
(14.2143 0 0)
(14.2709 0 0)
(14.3246 0 0)
(14.3758 0 0)
(14.4246 0 0)
(14.4711 0 0)
(14.5143 0 0)
(14.5548 0 0)
(14.594 0 0)
(14.6319 0 0)
(14.6685 0 0)
(14.7039 0 0)
(14.7381 0 0)
(14.7713 0 0)
(14.8035 0 0)
(14.8347 0 0)
(14.865 0 0)
(14.8944 0 0)
(14.923 0 0)
(14.9508 0 0)
(14.9778 0 0)
(15.0042 0 0)
(15.0298 0 0)
(15.0548 0 0)
(15.0791 0 0)
(15.1029 0 0)
(15.126 0 0)
(15.1486 0 0)
(15.1707 0 0)
(15.1923 0 0)
(15.2133 0 0)
(15.2339 0 0)
(15.2541 0 0)
(15.2738 0 0)
(15.2931 0 0)
(15.312 0 0)
(15.3305 0 0)
(15.3486 0 0)
(15.3663 0 0)
(15.3837 0 0)
(15.4008 0 0)
(15.4175 0 0)
(15.4339 0 0)
(15.45 0 0)
(15.4658 0 0)
(15.4813 0 0)
(15.4966 0 0)
(15.5115 0 0)
(15.5262 0 0)
(15.5406 0 0)
(15.5548 0 0)
(15.5688 0 0)
(15.5825 0 0)
(15.596 0 0)
(15.6092 0 0)
(15.6223 0 0)
(15.6351 0 0)
(15.6478 0 0)
(15.6602 0 0)
(15.6724 0 0)
(15.6845 0 0)
(15.6964 0 0)
(15.708 0 0)
(15.7196 0 0)
(15.7309 0 0)
(15.7421 0 0)
(15.7531 0 0)
(15.7639 0 0)
(15.7746 0 0)
(15.785 0 0)
(15.7954 0 0)
(15.8056 0 0)
(15.8158 0 0)
(15.8257 0 0)
(15.8356 0 0)
(15.8453 0 0)
(15.8549 0 0)
(15.8644 0 0)
(15.8737 0 0)
(15.8829 0 0)
(15.892 0 0)
(15.901 0 0)
(15.9099 0 0)
(15.9186 0 0)
(15.9273 0 0)
(15.9358 0 0)
(15.9443 0 0)
(15.9526 0 0)
(15.9608 0 0)
(15.969 0 0)
(15.977 0 0)
(15.985 0 0)
(15.9928 0 0)
(16.0006 0 0)
(16.0083 0 0)
(16.0159 0 0)
(16.0234 0 0)
(16.0308 0 0)
(16.0381 0 0)
(16.0454 0 0)
(16.0526 0 0)
(16.0597 0 0)
(16.0667 0 0)
(16.0736 0 0)
(16.0805 0 0)
(16.0873 0 0)
(16.094 0 0)
(16.1007 0 0)
(16.1073 0 0)
(16.1138 0 0)
(16.1202 0 0)
(16.1266 0 0)
(16.1329 0 0)
(16.1392 0 0)
(16.1454 0 0)
(16.1515 0 0)
(16.1576 0 0)
(16.1636 0 0)
(16.1695 0 0)
(16.1754 0 0)
(16.1812 0 0)
(16.187 0 0)
(16.1927 0 0)
(16.1984 0 0)
(16.204 0 0)
(16.2096 0 0)
(16.2151 0 0)
(16.2206 0 0)
(16.226 0 0)
(16.2313 0 0)
(16.2366 0 0)
(16.2419 0 0)
(16.2471 0 0)
(16.2523 0 0)
(16.2574 0 0)
(16.2625 0 0)
(16.2675 0 0)
(16.2725 0 0)
(16.2774 0 0)
(16.2823 0 0)
(16.2872 0 0)
(16.292 0 0)
(16.2968 0 0)
(16.3015 0 0)
(16.3062 0 0)
(16.3109 0 0)
(16.3155 0 0)
(16.32 0 0)
(16.3246 0 0)
(16.3291 0 0)
(16.3335 0 0)
(16.3379 0 0)
(16.3423 0 0)
(16.3467 0 0)
(16.351 0 0)
(16.3552 0 0)
(16.3595 0 0)
(16.3637 0 0)
(16.3678 0 0)
(16.372 0 0)
(16.376 0 0)
(16.3801 0 0)
(16.3841 0 0)
(16.3882 0 0)
(16.392 0 0)
(16.3959 0 0)
(16.3999 0 0)
(16.4038 0 0)
(16.4077 0 0)
(16.4114 0 0)
(16.4152 0 0)
(16.4189 0 0)
(16.4226 0 0)
(16.4263 0 0)
(16.4299 0 0)
(16.4335 0 0)
(16.4371 0 0)
(16.4406 0 0)
(16.4442 0 0)
(16.4477 0 0)
(16.4512 0 0)
(16.4546 0 0)
(16.4581 0 0)
(16.4615 0 0)
(16.4649 0 0)
(16.4683 0 0)
(16.4717 0 0)
(16.4751 0 0)
(16.4784 0 0)
(16.4817 0 0)
(16.4849 0 0)
(16.4878 0 0)
(16.4903 0 0)
(16.4919 0 0)
)
;

boundaryField
{
    boundary
    {
        type            empty;
    }
    inlet
    {
        type            fixedValue;
        value           uniform (2.34893 0 0);
    }
    outlet
    {
        type            zeroGradient;
    }
}


// ************************************************************************* //
