/*--------------------------------*- C++ -*----------------------------------*\
  =========                 |
  \\      /  F ield         | OpenFOAM: The Open Source CFD Toolbox
   \\    /   O peration     | Website:  https://openfoam.org
    \\  /    A nd           | Version:  7
     \\/     M anipulation  |
\*---------------------------------------------------------------------------*/
FoamFile
{
    version     2.0;
    format      ascii;
    class       volScalarField;
    location    "0.00071";
    object      OH;
}
// * * * * * * * * * * * * * * * * * * * * * * * * * * * * * * * * * * * * * //

dimensions      [0 0 0 0 0 0 0];

internalField   nonuniform List<scalar> 
125
(
9.37134e-48
1.82451e-47
2.42889e-47
2.83539e-47
3.10711e-47
3.28786e-47
3.40749e-47
3.48629e-47
3.53802e-47
3.57203e-47
3.59465e-47
3.61015e-47
3.62139e-47
3.63027e-47
3.63803e-47
3.64546e-47
3.65303e-47
3.66103e-47
3.66962e-47
3.6789e-47
3.68894e-47
3.69978e-47
3.71152e-47
3.72425e-47
3.7381e-47
3.75325e-47
3.76991e-47
3.78833e-47
3.80879e-47
3.8316e-47
3.85711e-47
3.88568e-47
3.91769e-47
3.95351e-47
3.99353e-47
4.03811e-47
4.08757e-47
4.14223e-47
4.20231e-47
4.26799e-47
4.33938e-47
4.41648e-47
4.4992e-47
4.58733e-47
4.68056e-47
4.77846e-47
4.88047e-47
4.98594e-47
5.09409e-47
5.2041e-47
5.31504e-47
5.42597e-47
5.53592e-47
5.64394e-47
5.7491e-47
5.85056e-47
5.94755e-47
6.03942e-47
6.12564e-47
6.20582e-47
6.27969e-47
6.34714e-47
6.40815e-47
6.46285e-47
6.51146e-47
6.55426e-47
6.59163e-47
6.62397e-47
6.65172e-47
6.67533e-47
6.69526e-47
6.71194e-47
6.72578e-47
6.73719e-47
6.74651e-47
6.75407e-47
6.76016e-47
6.76503e-47
6.76889e-47
6.77194e-47
6.77432e-47
6.77618e-47
6.77762e-47
6.77873e-47
6.77958e-47
6.78023e-47
6.78074e-47
6.78112e-47
6.78143e-47
6.78166e-47
6.78185e-47
6.78201e-47
6.78215e-47
6.78226e-47
6.78237e-47
6.78247e-47
6.78256e-47
6.78266e-47
6.78275e-47
6.78285e-47
6.78295e-47
6.78305e-47
6.78316e-47
6.78327e-47
6.78339e-47
6.78351e-47
6.78364e-47
6.78377e-47
6.78391e-47
6.78405e-47
6.7842e-47
6.78435e-47
6.78452e-47
6.78468e-47
6.78486e-47
6.78504e-47
6.78523e-47
6.78543e-47
6.78563e-47
6.78585e-47
6.78607e-47
6.78632e-47
6.78658e-47
6.78688e-47
6.78719e-47
)
;

boundaryField
{
    boundary
    {
        type            empty;
    }
    inlet
    {
        type            fixedValue;
        value           uniform 0;
    }
    outlet
    {
        type            zeroGradient;
    }
    procBoundary2to3
    {
        type            processor;
        value           uniform 6.78752e-47;
    }
}


// ************************************************************************* //
