/*--------------------------------*- C++ -*----------------------------------*\
  =========                 |
  \\      /  F ield         | OpenFOAM: The Open Source CFD Toolbox
   \\    /   O peration     | Website:  https://openfoam.org
    \\  /    A nd           | Version:  7
     \\/     M anipulation  |
\*---------------------------------------------------------------------------*/
FoamFile
{
    version     2.0;
    format      ascii;
    class       volVectorField;
    location    "0.00071";
    object      U;
}
// * * * * * * * * * * * * * * * * * * * * * * * * * * * * * * * * * * * * * //

dimensions      [0 1 -1 0 0 0 0];

internalField   nonuniform List<vector> 
125
(
(2.34893 0 0)
(2.34894 0 0)
(2.34895 0 0)
(2.34896 0 0)
(2.34897 0 0)
(2.34898 0 0)
(2.34899 0 0)
(2.34901 0 0)
(2.34903 0 0)
(2.34905 0 0)
(2.34907 0 0)
(2.34909 0 0)
(2.34912 0 0)
(2.34914 0 0)
(2.34917 0 0)
(2.34919 0 0)
(2.34921 0 0)
(2.34924 0 0)
(2.34926 0 0)
(2.34928 0 0)
(2.3493 0 0)
(2.34932 0 0)
(2.34935 0 0)
(2.34937 0 0)
(2.34939 0 0)
(2.34941 0 0)
(2.34944 0 0)
(2.34947 0 0)
(2.34949 0 0)
(2.34952 0 0)
(2.34955 0 0)
(2.34959 0 0)
(2.34962 0 0)
(2.34966 0 0)
(2.3497 0 0)
(2.34974 0 0)
(2.34978 0 0)
(2.34982 0 0)
(2.34986 0 0)
(2.3499 0 0)
(2.34994 0 0)
(2.34998 0 0)
(2.35002 0 0)
(2.35005 0 0)
(2.35009 0 0)
(2.35011 0 0)
(2.35014 0 0)
(2.35016 0 0)
(2.35018 0 0)
(2.35019 0 0)
(2.3502 0 0)
(2.3502 0 0)
(2.35021 0 0)
(2.3502 0 0)
(2.3502 0 0)
(2.35019 0 0)
(2.35018 0 0)
(2.35017 0 0)
(2.35016 0 0)
(2.35015 0 0)
(2.35014 0 0)
(2.35013 0 0)
(2.35012 0 0)
(2.35011 0 0)
(2.3501 0 0)
(2.3501 0 0)
(2.35009 0 0)
(2.35009 0 0)
(2.35009 0 0)
(2.35009 0 0)
(2.3501 0 0)
(2.3501 0 0)
(2.35011 0 0)
(2.35012 0 0)
(2.35012 0 0)
(2.35013 0 0)
(2.35014 0 0)
(2.35016 0 0)
(2.35017 0 0)
(2.35018 0 0)
(2.35019 0 0)
(2.35021 0 0)
(2.35022 0 0)
(2.35024 0 0)
(2.35025 0 0)
(2.35026 0 0)
(2.35028 0 0)
(2.35029 0 0)
(2.35031 0 0)
(2.35032 0 0)
(2.35034 0 0)
(2.35035 0 0)
(2.35037 0 0)
(2.35038 0 0)
(2.3504 0 0)
(2.35041 0 0)
(2.35043 0 0)
(2.35044 0 0)
(2.35046 0 0)
(2.35047 0 0)
(2.35049 0 0)
(2.3505 0 0)
(2.35052 0 0)
(2.35053 0 0)
(2.35055 0 0)
(2.35056 0 0)
(2.35058 0 0)
(2.35059 0 0)
(2.35061 0 0)
(2.35062 0 0)
(2.35064 0 0)
(2.35065 0 0)
(2.35067 0 0)
(2.35068 0 0)
(2.3507 0 0)
(2.35071 0 0)
(2.35073 0 0)
(2.35074 0 0)
(2.35076 0 0)
(2.35077 0 0)
(2.35079 0 0)
(2.3508 0 0)
(2.35082 0 0)
(2.35083 0 0)
(2.35085 0 0)
)
;

boundaryField
{
    boundary
    {
        type            empty;
    }
    inlet
    {
        type            fixedValue;
        value           uniform (2.34893 0 0);
    }
    outlet
    {
        type            zeroGradient;
    }
    procBoundary2to3
    {
        type            processor;
        value           uniform (2.35087 0 0);
    }
}


// ************************************************************************* //
