/*--------------------------------*- C++ -*----------------------------------*\
  =========                 |
  \\      /  F ield         | OpenFOAM: The Open Source CFD Toolbox
   \\    /   O peration     | Website:  https://openfoam.org
    \\  /    A nd           | Version:  7
     \\/     M anipulation  |
\*---------------------------------------------------------------------------*/
FoamFile
{
    version     2.0;
    format      ascii;
    class       surfaceScalarField;
    location    "0.00034";
    object      phi;
}
// * * * * * * * * * * * * * * * * * * * * * * * * * * * * * * * * * * * * * //

dimensions      [1 0 -1 0 0 0 0];

internalField   nonuniform List<scalar> 
123
(
7.21885e-06
7.21946e-06
7.22011e-06
7.22078e-06
7.22146e-06
7.22215e-06
7.22285e-06
7.22355e-06
7.22423e-06
7.22488e-06
7.2255e-06
7.22606e-06
7.22656e-06
7.22698e-06
7.22729e-06
7.22749e-06
7.22755e-06
7.22745e-06
7.22717e-06
7.2267e-06
7.22599e-06
7.22504e-06
7.22382e-06
7.22231e-06
7.22048e-06
7.21832e-06
7.2158e-06
7.21291e-06
7.20962e-06
7.20593e-06
7.20181e-06
7.19727e-06
7.19229e-06
7.18687e-06
7.181e-06
7.1747e-06
7.16797e-06
7.16081e-06
7.15325e-06
7.1453e-06
7.13698e-06
7.12832e-06
7.11935e-06
7.11009e-06
7.10058e-06
7.09087e-06
7.08098e-06
7.07097e-06
7.06087e-06
7.05072e-06
7.04057e-06
7.03047e-06
7.02045e-06
7.01056e-06
7.00085e-06
6.99134e-06
6.98209e-06
6.97312e-06
6.96447e-06
6.95617e-06
6.94825e-06
6.94072e-06
6.93362e-06
6.92695e-06
6.92074e-06
6.91498e-06
6.90969e-06
6.90487e-06
6.90052e-06
6.89664e-06
6.89321e-06
6.89023e-06
6.88769e-06
6.88557e-06
6.88385e-06
6.88252e-06
6.88155e-06
6.88093e-06
6.88062e-06
6.88062e-06
6.88088e-06
6.88139e-06
6.88212e-06
6.88305e-06
6.88416e-06
6.88541e-06
6.88679e-06
6.88828e-06
6.88985e-06
6.89149e-06
6.89317e-06
6.89489e-06
6.89662e-06
6.89836e-06
6.90008e-06
6.90177e-06
6.90344e-06
6.90506e-06
6.90664e-06
6.90815e-06
6.90961e-06
6.91101e-06
6.91233e-06
6.91359e-06
6.91478e-06
6.91589e-06
6.91693e-06
6.91791e-06
6.91881e-06
6.91965e-06
6.92042e-06
6.92112e-06
6.92177e-06
6.92235e-06
6.92288e-06
6.92336e-06
6.92379e-06
6.92417e-06
6.92451e-06
6.92482e-06
6.92508e-06
6.92532e-06
6.92554e-06
)
;

boundaryField
{
    boundary
    {
        type            empty;
        value           nonuniform 0();
    }
    inlet
    {
        type            calculated;
        value           nonuniform 0();
    }
    outlet
    {
        type            calculated;
        value           uniform 6.92574e-06;
    }
    procBoundary0to1
    {
        type            processor;
        value           uniform -7.21826e-06;
    }
}


// ************************************************************************* //
