/*--------------------------------*- C++ -*----------------------------------*\
  =========                 |
  \\      /  F ield         | OpenFOAM: The Open Source CFD Toolbox
   \\    /   O peration     | Website:  https://openfoam.org
    \\  /    A nd           | Version:  7
     \\/     M anipulation  |
\*---------------------------------------------------------------------------*/
FoamFile
{
    version     2.0;
    format      ascii;
    class       volScalarField;
    location    "0.00072";
    object      H;
}
// * * * * * * * * * * * * * * * * * * * * * * * * * * * * * * * * * * * * * //

dimensions      [0 0 0 0 0 0 0];

internalField   nonuniform List<scalar> 
500
(
1.48523e-41
2.01072e-41
2.12246e-41
2.14455e-41
2.14691e-41
2.14467e-41
2.1412e-41
2.13737e-41
2.1335e-41
2.1298e-41
2.12643e-41
2.12352e-41
2.12118e-41
2.11945e-41
2.11837e-41
2.11794e-41
2.11814e-41
2.11894e-41
2.12031e-41
2.12221e-41
2.1246e-41
2.12748e-41
2.13083e-41
2.13469e-41
2.13907e-41
2.14404e-41
2.14968e-41
2.15607e-41
2.16334e-41
2.1716e-41
2.18101e-41
2.19171e-41
2.20387e-41
2.21766e-41
2.23323e-41
2.25074e-41
2.27035e-41
2.29218e-41
2.31636e-41
2.34297e-41
2.37206e-41
2.40365e-41
2.43773e-41
2.47422e-41
2.513e-41
2.55392e-41
2.59675e-41
2.64124e-41
2.68709e-41
2.73394e-41
2.78142e-41
2.82914e-41
2.87668e-41
2.92365e-41
2.96963e-41
3.01424e-41
3.05716e-41
3.09806e-41
3.1367e-41
3.17286e-41
3.20642e-41
3.23727e-41
3.26538e-41
3.29077e-41
3.3135e-41
3.33367e-41
3.35143e-41
3.36691e-41
3.38031e-41
3.39181e-41
3.40159e-41
3.40985e-41
3.41676e-41
3.42251e-41
3.42725e-41
3.43113e-41
3.43428e-41
3.43682e-41
3.43886e-41
3.44047e-41
3.44175e-41
3.44276e-41
3.44354e-41
3.44415e-41
3.44462e-41
3.44498e-41
3.44526e-41
3.44548e-41
3.44564e-41
3.44578e-41
3.44588e-41
3.44596e-41
3.44603e-41
3.44609e-41
3.44614e-41
3.44619e-41
3.44623e-41
3.44627e-41
3.44631e-41
3.44636e-41
3.4464e-41
3.44644e-41
3.44649e-41
3.44653e-41
3.44658e-41
3.44663e-41
3.44668e-41
3.44674e-41
3.4468e-41
3.44686e-41
3.44692e-41
3.44698e-41
3.44705e-41
3.44712e-41
3.44719e-41
3.44727e-41
3.44735e-41
3.44743e-41
3.44752e-41
3.44761e-41
3.4477e-41
3.44781e-41
3.44794e-41
3.4481e-41
3.44832e-41
3.44857e-41
3.4488e-41
3.44903e-41
3.44926e-41
3.44947e-41
3.44967e-41
3.44983e-41
3.44997e-41
3.45008e-41
3.45016e-41
3.45022e-41
3.45027e-41
3.45032e-41
3.45037e-41
3.45042e-41
3.45049e-41
3.45057e-41
3.45067e-41
3.4508e-41
3.45093e-41
3.45109e-41
3.45126e-41
3.45144e-41
3.45163e-41
3.45183e-41
3.45204e-41
3.45225e-41
3.45246e-41
3.45268e-41
3.45289e-41
3.45311e-41
3.45333e-41
3.45355e-41
3.45377e-41
3.45399e-41
3.45421e-41
3.45444e-41
3.45467e-41
3.4549e-41
3.45513e-41
3.45536e-41
3.4556e-41
3.45584e-41
3.45608e-41
3.45632e-41
3.45657e-41
3.45682e-41
3.45707e-41
3.45732e-41
3.45757e-41
3.45783e-41
3.45808e-41
3.45834e-41
3.45859e-41
3.45885e-41
3.4591e-41
3.45934e-41
3.45959e-41
3.45982e-41
3.46006e-41
3.46028e-41
3.4605e-41
3.46071e-41
3.46092e-41
3.46111e-41
3.46129e-41
3.46146e-41
3.46163e-41
3.46177e-41
3.46191e-41
3.46203e-41
3.46214e-41
3.46223e-41
3.4623e-41
3.46236e-41
3.4624e-41
3.46242e-41
3.46243e-41
3.46241e-41
3.46237e-41
3.4623e-41
3.46222e-41
3.46211e-41
3.462e-41
3.4619e-41
3.46195e-41
3.46256e-41
3.46515e-41
3.47457e-41
3.50724e-41
3.61831e-41
3.99217e-41
5.24188e-41
9.39468e-41
2.31194e-40
6.82426e-40
2.15853e-39
6.96398e-39
2.25353e-38
7.27672e-38
2.3412e-37
7.50315e-37
2.39536e-36
7.61894e-36
2.41492e-35
7.62944e-35
2.40304e-34
7.5476e-34
2.36449e-33
7.39014e-33
2.30494e-32
7.1758e-32
2.23053e-31
6.92476e-31
2.14792e-30
6.65943e-30
2.0649e-29
6.40797e-29
1.99213e-28
6.21246e-28
1.94689e-27
6.1463e-27
1.96105e-26
6.34997e-26
2.09725e-25
7.10497e-25
2.4952e-24
9.04555e-24
3.39919e-23
1.32531e-22
5.34749e-22
2.22284e-21
9.46945e-21
4.11376e-20
1.81501e-19
8.10949e-19
3.66354e-18
1.67314e-17
7.73536e-17
3.63148e-16
1.73984e-15
8.56617e-15
4.37133e-14
2.33292e-13
1.37183e-12
9.70898e-12
8.56104e-11
8.03314e-10
7.51369e-09
6.99468e-08
6.23814e-07
4.92687e-06
3.02201e-05
0.000122085
0.000311994
0.000589923
0.000932887
0.00129305
0.00159972
0.00180434
0.00190739
0.00192554
0.0018934
0.00183384
0.00176176
0.00168599
0.00161134
0.00154024
0.00147373
0.00141208
0.00135517
0.0013027
0.0012543
0.00120957
0.00116815
0.00112971
0.00109393
0.00106054
0.00102932
0.00100005
0.000972554
0.000946663
0.000922239
0.000899158
0.000877309
0.000856592
0.00083692
0.000818763
0.000801844
0.000785603
0.000769999
0.000754995
0.000740556
0.000726649
0.000713243
0.000700312
0.00068783
0.000675772
0.000664117
0.000652843
0.000641933
0.000631367
0.000621129
0.000611203
0.000601576
0.000592233
0.000583161
0.000574349
0.000565784
0.000557458
0.000549358
0.000541477
0.000533804
0.000526333
0.000519054
0.00051196
0.000505044
0.000498299
0.00049172
0.000485298
0.00047903
0.000472909
0.00046693
0.000461088
0.000455379
0.000449798
0.00044434
0.000439002
0.000433779
0.000428668
0.000423665
0.000418767
0.00041397
0.000409272
0.000404669
0.000400158
0.000395738
0.000391404
0.000387155
0.000382988
0.000378901
0.000374892
0.000370959
0.000367099
0.000363311
0.000359594
0.000355945
0.000352363
0.000348847
0.000345395
0.000342008
0.000338672
0.000335381
0.000332146
0.000328966
0.000325839
0.000322765
0.00031974
0.000316766
0.00031384
0.00031096
0.000308127
0.000305339
0.000302595
0.000299894
0.000297235
0.000294617
0.000292039
0.0002895
0.000287
0.000284537
0.000282111
0.000279721
0.000277366
0.000275046
0.00027276
0.000270507
0.000268287
0.000266098
0.00026394
0.000261813
0.000259716
0.000257649
0.00025561
0.0002536
0.000251617
0.000249662
0.000247734
0.000245831
0.000243955
0.000242104
0.000240278
0.000238477
0.000236699
0.000234945
0.000233215
0.000231507
0.000229822
0.000228159
0.000226518
0.000224898
0.000223299
0.000221722
0.000220164
0.000218627
0.00021711
0.000215613
0.000214135
0.000212676
0.000211235
0.000209814
0.000208411
0.000207026
0.000205659
0.00020431
0.000202979
0.000201665
0.000200368
0.000199089
0.000197826
0.00019658
0.00019535
0.000194138
0.000192941
0.000191761
0.000190596
0.000189448
0.000188316
0.000187199
0.000186099
0.000185013
0.000183943
0.000182889
0.00018185
0.000180826
0.000179817
0.000178823
0.000177845
0.000176881
0.000175932
0.000174997
0.000174077
0.000173172
0.000172281
0.000171404
0.000170541
0.000169691
0.000168851
0.000168014
0.000167178
0.00016626
0.000165457
0.000164674
0.000163906
0.000163151
0.000162408
0.000161675
0.000160953
0.000160241
0.000159538
0.000158845
0.000158161
0.000157487
0.000156821
0.000156164
0.000155516
0.000154878
0.00015425
0.000153636
0.00015304
0.000152469
0.000151935
0.000151462
0.000151084
0.000150859
)
;

boundaryField
{
    boundary
    {
        type            empty;
    }
    inlet
    {
        type            fixedValue;
        value           uniform 0;
    }
    outlet
    {
        type            zeroGradient;
    }
}


// ************************************************************************* //
