/*--------------------------------*- C++ -*----------------------------------*\
  =========                 |
  \\      /  F ield         | OpenFOAM: The Open Source CFD Toolbox
   \\    /   O peration     | Website:  https://openfoam.org
    \\  /    A nd           | Version:  7
     \\/     M anipulation  |
\*---------------------------------------------------------------------------*/
FoamFile
{
    version     2.0;
    format      ascii;
    class       volScalarField;
    location    "0.00072";
    object      H2O;
}
// * * * * * * * * * * * * * * * * * * * * * * * * * * * * * * * * * * * * * //

dimensions      [0 0 0 0 0 0 0];

internalField   nonuniform List<scalar> 
500
(
7.86357e-48
2.27022e-47
4.08014e-47
6.10783e-47
8.28026e-47
1.05488e-46
1.28816e-46
1.52584e-46
1.76664e-46
2.00984e-46
2.25504e-46
2.50204e-46
2.75078e-46
3.00123e-46
3.25343e-46
3.50738e-46
3.7631e-46
4.02062e-46
4.27998e-46
4.54123e-46
4.80449e-46
5.06991e-46
5.33775e-46
5.60832e-46
5.88206e-46
6.1595e-46
6.4413e-46
6.72823e-46
7.02117e-46
7.32114e-46
7.62924e-46
7.94666e-46
8.27463e-46
8.61443e-46
8.96729e-46
9.33441e-46
9.71683e-46
1.01154e-45
1.05309e-45
1.09635e-45
1.14132e-45
1.18797e-45
1.2362e-45
1.28588e-45
1.33683e-45
1.38883e-45
1.4416e-45
1.49484e-45
1.54821e-45
1.60134e-45
1.65387e-45
1.70542e-45
1.75561e-45
1.80411e-45
1.8506e-45
1.89479e-45
1.93645e-45
1.9754e-45
2.01151e-45
2.04468e-45
2.07492e-45
2.10222e-45
2.12668e-45
2.14839e-45
2.1675e-45
2.18417e-45
2.19859e-45
2.21097e-45
2.22149e-45
2.23037e-45
2.23779e-45
2.24394e-45
2.24901e-45
2.25314e-45
2.25649e-45
2.25917e-45
2.26131e-45
2.26301e-45
2.26433e-45
2.26537e-45
2.26617e-45
2.26678e-45
2.26725e-45
2.26761e-45
2.26788e-45
2.26809e-45
2.26824e-45
2.26836e-45
2.26844e-45
2.26851e-45
2.26857e-45
2.26861e-45
2.26864e-45
2.26867e-45
2.2687e-45
2.26873e-45
2.26875e-45
2.26878e-45
2.2688e-45
2.26883e-45
2.26886e-45
2.26888e-45
2.26891e-45
2.26894e-45
2.26897e-45
2.26901e-45
2.26904e-45
2.26908e-45
2.26912e-45
2.26916e-45
2.2692e-45
2.26925e-45
2.2693e-45
2.26935e-45
2.2694e-45
2.26945e-45
2.26951e-45
2.26957e-45
2.26963e-45
2.26969e-45
2.26974e-45
2.26978e-45
2.26971e-45
2.26928e-45
2.26749e-45
2.26416e-45
2.26425e-45
2.26435e-45
2.26444e-45
2.26454e-45
2.26464e-45
2.26474e-45
2.26484e-45
2.26494e-45
2.26505e-45
2.26516e-45
2.26529e-45
2.26544e-45
2.26561e-45
2.26581e-45
2.26604e-45
2.26631e-45
2.26662e-45
2.26696e-45
2.26735e-45
2.26778e-45
2.26824e-45
2.26873e-45
2.26925e-45
2.26977e-45
2.2703e-45
2.27081e-45
2.27132e-45
2.27179e-45
2.27223e-45
2.27264e-45
2.273e-45
2.27332e-45
2.27359e-45
2.27383e-45
2.27402e-45
2.27418e-45
2.27432e-45
2.27443e-45
2.27454e-45
2.27463e-45
2.27472e-45
2.27482e-45
2.27493e-45
2.27505e-45
2.27518e-45
2.27534e-45
2.27552e-45
2.27571e-45
2.27593e-45
2.27616e-45
2.27641e-45
2.27667e-45
2.27695e-45
2.27723e-45
2.27751e-45
2.27779e-45
2.27807e-45
2.27835e-45
2.27862e-45
2.27888e-45
2.27913e-45
2.27936e-45
2.27958e-45
2.27979e-45
2.27998e-45
2.28016e-45
2.28032e-45
2.28046e-45
2.28059e-45
2.28071e-45
2.28084e-45
2.28104e-45
2.28158e-45
2.28343e-45
2.29024e-45
2.3157e-45
2.41053e-45
2.76197e-45
4.05698e-45
8.80273e-45
2.61042e-44
8.88777e-44
3.15651e-43
1.13186e-42
4.06093e-42
1.45513e-41
5.20904e-41
1.86487e-40
6.68636e-40
2.4049e-39
8.69258e-39
3.16329e-38
1.16099e-37
4.30398e-37
1.61341e-36
6.11927e-36
2.34818e-35
9.11142e-35
3.57109e-34
1.41178e-33
5.62084e-33
2.25011e-32
9.04311e-32
3.64381e-31
1.47035e-30
5.93613e-30
2.39602e-29
9.66375e-29
3.89315e-28
1.5662e-27
6.29098e-27
2.52286e-26
1.01011e-25
4.03805e-25
1.6119e-24
6.42566e-24
2.55837e-23
1.0175e-22
4.04284e-22
1.60502e-21
6.36748e-21
2.52463e-20
1.00049e-19
3.96313e-19
1.56927e-18
6.2489e-18
2.47947e-17
9.81327e-17
3.88017e-16
1.53322e-15
6.05449e-15
2.38909e-14
9.41942e-14
3.71031e-13
1.45999e-12
5.73866e-12
2.25307e-11
8.83581e-11
3.46136e-10
1.35465e-09
5.29743e-09
2.07043e-08
8.08967e-08
3.16069e-07
1.23505e-06
4.82592e-06
1.88401e-05
7.32642e-05
0.000281351
0.00104229
0.00352523
0.00991699
0.0216832
0.0376409
0.0570386
0.0802969
0.106131
0.130747
0.150518
0.167915
0.17831
0.1853
0.190024
0.193298
0.195656
0.19744
0.198856
0.200035
0.201053
0.20196
0.202785
0.203549
0.204263
0.204937
0.205575
0.206182
0.206762
0.207317
0.20785
0.208361
0.208853
0.209327
0.209784
0.210225
0.210651
0.211062
0.211447
0.211815
0.212174
0.212524
0.212865
0.213199
0.213525
0.213844
0.214156
0.214461
0.214761
0.215054
0.215341
0.215622
0.215898
0.216169
0.216435
0.216695
0.216951
0.217202
0.217449
0.217691
0.217929
0.218162
0.218392
0.218618
0.21884
0.219058
0.219272
0.219483
0.219691
0.219895
0.220096
0.220294
0.220489
0.22068
0.220869
0.221055
0.221238
0.221419
0.221597
0.221772
0.221945
0.222116
0.222284
0.22245
0.222614
0.222775
0.222935
0.223092
0.223247
0.223401
0.223552
0.223702
0.22385
0.223996
0.22414
0.224282
0.224423
0.224563
0.2247
0.224836
0.22497
0.225103
0.225234
0.225365
0.225493
0.225621
0.225746
0.225871
0.225994
0.226116
0.226237
0.226356
0.226474
0.226591
0.226707
0.226821
0.226934
0.227046
0.227157
0.227267
0.227376
0.227483
0.22759
0.227695
0.2278
0.227903
0.228006
0.228107
0.228207
0.228307
0.228405
0.228503
0.228599
0.228695
0.22879
0.228884
0.228977
0.229069
0.22916
0.229251
0.22934
0.229429
0.229517
0.229605
0.229691
0.229777
0.229863
0.229947
0.230031
0.230114
0.230197
0.230279
0.23036
0.230441
0.230521
0.2306
0.230679
0.230758
0.230835
0.230913
0.23099
0.231066
0.231142
0.231218
0.231293
0.231367
0.231442
0.231516
0.231589
0.231662
0.231735
0.231808
0.23188
0.231952
0.232024
0.232096
0.232167
0.232239
0.23231
0.232381
0.232452
0.232523
0.232594
0.232665
0.232737
0.232808
0.23288
0.232951
0.233023
0.233096
0.233169
0.233242
0.233315
0.233389
0.233464
0.23354
0.233616
0.233692
0.23377
0.233849
0.233931
0.234042
0.234124
0.234208
0.234294
0.234381
0.234469
0.234559
0.234651
0.234744
0.234839
0.234936
0.235034
0.235134
0.235236
0.235339
0.235444
0.23555
0.235658
0.235766
0.235875
0.235983
0.236088
0.236186
0.236272
0.23633
)
;

boundaryField
{
    boundary
    {
        type            empty;
    }
    inlet
    {
        type            fixedValue;
        value           uniform 0;
    }
    outlet
    {
        type            zeroGradient;
    }
}


// ************************************************************************* //
