/*--------------------------------*- C++ -*----------------------------------*\
  =========                 |
  \\      /  F ield         | OpenFOAM: The Open Source CFD Toolbox
   \\    /   O peration     | Website:  https://openfoam.org
    \\  /    A nd           | Version:  7
     \\/     M anipulation  |
\*---------------------------------------------------------------------------*/
FoamFile
{
    version     2.0;
    format      ascii;
    class       volScalarField;
    location    "0.00072";
    object      H2O2;
}
// * * * * * * * * * * * * * * * * * * * * * * * * * * * * * * * * * * * * * //

dimensions      [0 0 0 0 0 0 0];

internalField   nonuniform List<scalar> 
500
(
1.98661e-52
6.3763e-52
1.26623e-51
2.08376e-51
3.08958e-51
4.28329e-51
5.6649e-51
7.2349e-51
8.99431e-51
1.09446e-50
1.30875e-50
1.54252e-50
1.79597e-50
2.06933e-50
2.3628e-50
2.6766e-50
3.01091e-50
3.36596e-50
3.74197e-50
4.13921e-50
4.55804e-50
4.99887e-50
5.46225e-50
5.94887e-50
6.45959e-50
6.99547e-50
7.55777e-50
8.14798e-50
8.76781e-50
9.41923e-50
1.01044e-49
1.08256e-49
1.15853e-49
1.2386e-49
1.32301e-49
1.41198e-49
1.50573e-49
1.60439e-49
1.70806e-49
1.81676e-49
1.93042e-49
2.04887e-49
2.17182e-49
2.29887e-49
2.42949e-49
2.56304e-49
2.69875e-49
2.83578e-49
2.9732e-49
3.11e-49
3.24519e-49
3.37773e-49
3.50664e-49
3.63099e-49
3.74993e-49
3.86273e-49
3.96877e-49
4.06759e-49
4.15887e-49
4.24242e-49
4.31823e-49
4.38639e-49
4.44713e-49
4.50077e-49
4.54772e-49
4.58845e-49
4.62347e-49
4.65331e-49
4.67853e-49
4.69965e-49
4.71719e-49
4.73163e-49
4.74342e-49
4.75297e-49
4.76063e-49
4.76674e-49
4.77157e-49
4.77536e-49
4.7783e-49
4.78058e-49
4.78233e-49
4.78366e-49
4.78467e-49
4.78543e-49
4.786e-49
4.78643e-49
4.78675e-49
4.78699e-49
4.78718e-49
4.78732e-49
4.78743e-49
4.78752e-49
4.78759e-49
4.78766e-49
4.78772e-49
4.78778e-49
4.78783e-49
4.78789e-49
4.78794e-49
4.788e-49
4.78806e-49
4.78813e-49
4.78819e-49
4.78826e-49
4.78834e-49
4.78841e-49
4.7885e-49
4.78858e-49
4.78867e-49
4.78877e-49
4.78887e-49
4.78897e-49
4.78908e-49
4.78919e-49
4.78931e-49
4.78944e-49
4.78956e-49
4.7897e-49
4.78984e-49
4.78998e-49
4.7901e-49
4.79015e-49
4.78987e-49
4.78829e-49
4.78158e-49
4.76823e-49
4.76844e-49
4.76865e-49
4.76888e-49
4.7691e-49
4.76933e-49
4.76956e-49
4.76979e-49
4.77002e-49
4.77026e-49
4.77053e-49
4.77082e-49
4.77115e-49
4.77153e-49
4.77198e-49
4.77251e-49
4.77313e-49
4.77385e-49
4.77469e-49
4.77564e-49
4.77671e-49
4.77788e-49
4.77916e-49
4.7805e-49
4.7819e-49
4.78331e-49
4.78472e-49
4.78608e-49
4.78736e-49
4.78853e-49
4.78958e-49
4.79048e-49
4.79124e-49
4.79184e-49
4.79231e-49
4.79266e-49
4.79291e-49
4.79309e-49
4.79323e-49
4.79336e-49
4.79352e-49
4.79372e-49
4.79398e-49
4.79434e-49
4.79479e-49
4.79534e-49
4.796e-49
4.79676e-49
4.79761e-49
4.79854e-49
4.79953e-49
4.80058e-49
4.80166e-49
4.80276e-49
4.80386e-49
4.80495e-49
4.80601e-49
4.80704e-49
4.80803e-49
4.80896e-49
4.80983e-49
4.81065e-49
4.81141e-49
4.8121e-49
4.81273e-49
4.81331e-49
4.81382e-49
4.81428e-49
4.81469e-49
4.81505e-49
4.81535e-49
4.81561e-49
4.81583e-49
4.816e-49
4.81614e-49
4.81628e-49
4.81661e-49
4.81812e-49
4.8261e-49
4.86828e-49
5.08918e-49
6.236e-49
1.21424e-48
4.2327e-48
1.95413e-47
9.65945e-47
4.81518e-46
2.3901e-45
1.17835e-44
5.76769e-44
2.80275e-43
1.35223e-42
6.47805e-42
3.08185e-41
1.45615e-40
6.83414e-40
3.18647e-39
1.47623e-38
6.79662e-38
3.11033e-37
1.41509e-36
6.40202e-36
2.88078e-35
1.28964e-34
5.74516e-34
2.54759e-33
1.12479e-32
4.946e-32
2.16671e-31
9.45889e-31
4.11622e-30
1.78608e-29
7.72987e-29
3.33756e-28
1.43809e-27
6.18517e-27
2.65599e-26
1.13895e-25
4.8784e-25
2.08747e-24
8.92487e-24
3.81319e-23
1.62828e-22
6.94969e-22
2.96501e-21
1.26451e-20
5.42494e-20
2.31814e-19
9.88019e-19
4.2069e-18
1.78996e-17
7.61021e-17
3.23279e-16
1.37195e-15
5.81605e-15
2.4627e-14
1.04151e-13
4.39928e-13
1.85603e-12
7.82209e-12
3.29366e-11
1.386e-10
5.83065e-10
2.45293e-09
1.03228e-08
4.34596e-08
1.82925e-07
7.67434e-07
3.17351e-06
1.24538e-05
4.14157e-05
9.15095e-05
0.00012234
0.000110706
6.3787e-05
2.74949e-05
1.10909e-05
5.63708e-06
4.43452e-06
4.65938e-06
5.35482e-06
5.94055e-06
6.37262e-06
6.6348e-06
6.75276e-06
6.76184e-06
6.69396e-06
6.57432e-06
6.42148e-06
6.24863e-06
6.065e-06
5.87687e-06
5.68851e-06
5.50278e-06
5.32156e-06
5.14602e-06
4.97687e-06
4.81447e-06
4.65897e-06
4.51037e-06
4.36854e-06
4.23329e-06
4.1044e-06
3.9816e-06
3.86464e-06
3.7533e-06
3.64737e-06
3.5497e-06
3.45782e-06
3.36961e-06
3.2849e-06
3.20351e-06
3.12527e-06
3.05004e-06
2.97766e-06
2.90801e-06
2.84094e-06
2.77634e-06
2.71409e-06
2.65408e-06
2.5962e-06
2.54036e-06
2.48646e-06
2.43441e-06
2.38414e-06
2.33555e-06
2.28859e-06
2.24316e-06
2.19922e-06
2.15669e-06
2.11551e-06
2.07563e-06
2.03699e-06
1.99954e-06
1.96323e-06
1.92801e-06
1.89384e-06
1.86068e-06
1.82848e-06
1.79721e-06
1.76682e-06
1.7373e-06
1.70859e-06
1.68067e-06
1.65352e-06
1.62709e-06
1.60137e-06
1.57632e-06
1.55193e-06
1.52817e-06
1.50501e-06
1.48243e-06
1.46042e-06
1.43896e-06
1.41801e-06
1.39758e-06
1.37763e-06
1.35816e-06
1.33915e-06
1.32058e-06
1.30244e-06
1.28471e-06
1.26738e-06
1.25045e-06
1.23389e-06
1.2177e-06
1.20187e-06
1.18638e-06
1.17124e-06
1.15644e-06
1.14196e-06
1.12778e-06
1.11384e-06
1.10018e-06
1.0868e-06
1.07368e-06
1.06083e-06
1.04824e-06
1.03589e-06
1.02379e-06
1.01192e-06
1.00028e-06
9.88868e-07
9.7767e-07
9.66684e-07
9.55905e-07
9.45326e-07
9.34943e-07
9.24751e-07
9.14745e-07
9.0492e-07
8.95273e-07
8.85798e-07
8.76492e-07
8.6735e-07
8.58369e-07
8.49544e-07
8.40873e-07
8.3235e-07
8.23973e-07
8.15739e-07
8.07644e-07
7.99684e-07
7.91858e-07
7.84161e-07
7.7659e-07
7.69144e-07
7.61818e-07
7.54611e-07
7.47519e-07
7.40541e-07
7.33672e-07
7.26912e-07
7.20257e-07
7.13706e-07
7.07255e-07
7.00904e-07
6.94648e-07
6.88488e-07
6.82419e-07
6.76441e-07
6.70551e-07
6.64748e-07
6.5903e-07
6.53394e-07
6.4784e-07
6.42365e-07
6.36968e-07
6.31646e-07
6.264e-07
6.21226e-07
6.16124e-07
6.11092e-07
6.06128e-07
6.01232e-07
5.96401e-07
5.91635e-07
5.86932e-07
5.82291e-07
5.7771e-07
5.73189e-07
5.68726e-07
5.6432e-07
5.59969e-07
5.55673e-07
5.51431e-07
5.4724e-07
5.43101e-07
5.39012e-07
5.34971e-07
5.30978e-07
5.27032e-07
5.23131e-07
5.19274e-07
5.15459e-07
5.11687e-07
5.07954e-07
5.04261e-07
5.00606e-07
4.96987e-07
4.93404e-07
4.89855e-07
4.86338e-07
4.82852e-07
4.79397e-07
4.75971e-07
4.72572e-07
4.69196e-07
4.65771e-07
4.62443e-07
4.57901e-07
4.54609e-07
4.51296e-07
4.47976e-07
4.44656e-07
4.41337e-07
4.38017e-07
4.34696e-07
4.3137e-07
4.28039e-07
4.247e-07
4.21352e-07
4.17992e-07
4.1462e-07
4.11233e-07
4.07833e-07
4.04421e-07
4.01e-07
3.97581e-07
3.94179e-07
3.90828e-07
3.8759e-07
3.84578e-07
3.82007e-07
3.80301e-07
)
;

boundaryField
{
    boundary
    {
        type            empty;
    }
    inlet
    {
        type            fixedValue;
        value           uniform 0;
    }
    outlet
    {
        type            zeroGradient;
    }
}


// ************************************************************************* //
