/*--------------------------------*- C++ -*----------------------------------*\
  =========                 |
  \\      /  F ield         | OpenFOAM: The Open Source CFD Toolbox
   \\    /   O peration     | Website:  https://openfoam.org
    \\  /    A nd           | Version:  7
     \\/     M anipulation  |
\*---------------------------------------------------------------------------*/
FoamFile
{
    version     2.0;
    format      ascii;
    class       volScalarField;
    location    "0.00072";
    object      HO2;
}
// * * * * * * * * * * * * * * * * * * * * * * * * * * * * * * * * * * * * * //

dimensions      [0 0 0 0 0 0 0];

internalField   nonuniform List<scalar> 
500
(
5.58552e-38
1.27022e-37
1.98324e-37
2.69531e-37
3.40585e-37
4.11482e-37
4.82244e-37
5.52916e-37
6.23555e-37
6.94229e-37
7.65003e-37
8.35943e-37
9.07104e-37
9.7853e-37
1.05025e-36
1.1223e-36
1.19468e-36
1.2674e-36
1.34047e-36
1.4139e-36
1.48772e-36
1.56195e-36
1.63664e-36
1.71186e-36
1.78769e-36
1.86424e-36
1.94165e-36
2.02009e-36
2.09973e-36
2.18078e-36
2.26347e-36
2.34804e-36
2.43475e-36
2.52384e-36
2.61557e-36
2.71014e-36
2.80776e-36
2.90856e-36
3.01265e-36
3.12003e-36
3.23065e-36
3.34434e-36
3.46085e-36
3.57983e-36
3.70081e-36
3.82325e-36
3.94651e-36
4.06987e-36
4.19256e-36
4.3138e-36
4.43275e-36
4.54863e-36
4.66067e-36
4.76816e-36
4.87046e-36
4.96705e-36
5.05749e-36
5.14148e-36
5.21881e-36
5.28943e-36
5.35335e-36
5.41072e-36
5.46178e-36
5.50683e-36
5.54624e-36
5.58041e-36
5.60981e-36
5.63487e-36
5.65606e-36
5.67383e-36
5.68861e-36
5.7008e-36
5.71077e-36
5.71886e-36
5.72538e-36
5.73058e-36
5.73471e-36
5.73795e-36
5.74049e-36
5.74245e-36
5.74397e-36
5.74513e-36
5.74601e-36
5.74667e-36
5.74718e-36
5.74756e-36
5.74784e-36
5.74806e-36
5.74822e-36
5.74835e-36
5.74845e-36
5.74853e-36
5.7486e-36
5.74865e-36
5.74871e-36
5.74876e-36
5.74881e-36
5.74886e-36
5.74891e-36
5.74896e-36
5.74901e-36
5.74907e-36
5.74912e-36
5.74918e-36
5.74925e-36
5.74932e-36
5.74939e-36
5.74946e-36
5.74954e-36
5.74962e-36
5.7497e-36
5.74979e-36
5.74989e-36
5.74998e-36
5.75009e-36
5.75019e-36
5.7503e-36
5.75042e-36
5.75054e-36
5.75066e-36
5.75077e-36
5.75084e-36
5.75071e-36
5.7498e-36
5.7458e-36
5.73783e-36
5.73802e-36
5.73821e-36
5.7384e-36
5.73859e-36
5.73879e-36
5.73898e-36
5.73917e-36
5.73936e-36
5.73956e-36
5.73976e-36
5.73998e-36
5.74023e-36
5.74052e-36
5.74084e-36
5.74123e-36
5.74167e-36
5.74219e-36
5.74278e-36
5.74344e-36
5.74418e-36
5.74498e-36
5.74584e-36
5.74675e-36
5.74767e-36
5.74861e-36
5.74952e-36
5.7504e-36
5.75122e-36
5.75197e-36
5.75264e-36
5.75321e-36
5.75368e-36
5.75407e-36
5.75437e-36
5.75461e-36
5.75479e-36
5.75494e-36
5.75508e-36
5.75522e-36
5.75539e-36
5.75561e-36
5.75588e-36
5.75621e-36
5.75661e-36
5.75709e-36
5.75763e-36
5.75825e-36
5.75892e-36
5.75964e-36
5.7604e-36
5.7612e-36
5.76201e-36
5.76283e-36
5.76364e-36
5.76445e-36
5.76523e-36
5.76598e-36
5.76671e-36
5.76739e-36
5.76803e-36
5.76864e-36
5.76919e-36
5.76971e-36
5.77018e-36
5.77061e-36
5.771e-36
5.77135e-36
5.77166e-36
5.77193e-36
5.77217e-36
5.77237e-36
5.77254e-36
5.77268e-36
5.77278e-36
5.77285e-36
5.77288e-36
5.77288e-36
5.77284e-36
5.77277e-36
5.77266e-36
5.77251e-36
5.77232e-36
5.77209e-36
5.77182e-36
5.77151e-36
5.77118e-36
5.77087e-36
5.77079e-36
5.7716e-36
5.77555e-36
5.79033e-36
5.84184e-36
6.01691e-36
6.60519e-36
8.5678e-36
1.50785e-35
3.65697e-35
1.07189e-34
3.38293e-34
1.09185e-33
3.54156e-33
1.14869e-32
3.72214e-32
1.20555e-31
3.90743e-31
1.26941e-30
4.14191e-30
1.36066e-29
4.51321e-29
1.51628e-28
5.17665e-28
1.80145e-27
6.40579e-27
2.33111e-26
8.6843e-26
3.30902e-25
1.28712e-24
5.09762e-24
2.04968e-23
8.3432e-23
3.42908e-22
1.41986e-21
5.91205e-21
2.47174e-20
1.0364e-19
4.38104e-19
1.84785e-18
7.78246e-18
3.27666e-17
1.37912e-16
5.80129e-16
2.43834e-15
1.02382e-14
4.29382e-14
1.79851e-13
7.52336e-13
3.14305e-12
1.3115e-11
5.46679e-11
2.27683e-10
9.47674e-10
3.94284e-09
1.63993e-08
6.81582e-08
2.82675e-07
1.16527e-06
4.73429e-06
1.86209e-05
6.79859e-05
0.000209186
0.000438587
0.00052022
0.000453278
0.000341331
0.000242474
0.000170121
0.000119123
8.35367e-05
5.95978e-05
4.1196e-05
3.09615e-05
2.4401e-05
2.01091e-05
1.72095e-05
1.51702e-05
1.36726e-05
1.25261e-05
1.16153e-05
1.08685e-05
1.02405e-05
9.7015e-06
9.23136e-06
8.81606e-06
8.44542e-06
8.11188e-06
7.80965e-06
7.5342e-06
7.2819e-06
7.04981e-06
6.83549e-06
6.63692e-06
6.45237e-06
6.2804e-06
6.11978e-06
5.96949e-06
5.82869e-06
5.70066e-06
5.58149e-06
5.46825e-06
5.36048e-06
5.25779e-06
5.15982e-06
5.06625e-06
4.97677e-06
4.89113e-06
4.80909e-06
4.73042e-06
4.65491e-06
4.58239e-06
4.51269e-06
4.44565e-06
4.38112e-06
4.31897e-06
4.25908e-06
4.20133e-06
4.14561e-06
4.09184e-06
4.0399e-06
3.98972e-06
3.94121e-06
3.8943e-06
3.84891e-06
3.80498e-06
3.76244e-06
3.72123e-06
3.68129e-06
3.64257e-06
3.60501e-06
3.56858e-06
3.53321e-06
3.49887e-06
3.46552e-06
3.4331e-06
3.4016e-06
3.37097e-06
3.34117e-06
3.31218e-06
3.28396e-06
3.25648e-06
3.22972e-06
3.20365e-06
3.17825e-06
3.15348e-06
3.12933e-06
3.10578e-06
3.0828e-06
3.06038e-06
3.0385e-06
3.01713e-06
2.99626e-06
2.97588e-06
2.95596e-06
2.9365e-06
2.91748e-06
2.89889e-06
2.88071e-06
2.86294e-06
2.84555e-06
2.82856e-06
2.81194e-06
2.79567e-06
2.7797e-06
2.76406e-06
2.74874e-06
2.73374e-06
2.71905e-06
2.70465e-06
2.69055e-06
2.67673e-06
2.66318e-06
2.64991e-06
2.63689e-06
2.62413e-06
2.61162e-06
2.59935e-06
2.58732e-06
2.57551e-06
2.56394e-06
2.55258e-06
2.54144e-06
2.53051e-06
2.51978e-06
2.50925e-06
2.49892e-06
2.48877e-06
2.47882e-06
2.46904e-06
2.45945e-06
2.45002e-06
2.44077e-06
2.43168e-06
2.42276e-06
2.41399e-06
2.40538e-06
2.39691e-06
2.38859e-06
2.38042e-06
2.37238e-06
2.36448e-06
2.35671e-06
2.34907e-06
2.34155e-06
2.33415e-06
2.32687e-06
2.31971e-06
2.31265e-06
2.3057e-06
2.29886e-06
2.29212e-06
2.28548e-06
2.27893e-06
2.27247e-06
2.2661e-06
2.25981e-06
2.25361e-06
2.24749e-06
2.24145e-06
2.23548e-06
2.22958e-06
2.22375e-06
2.21799e-06
2.21229e-06
2.20665e-06
2.20107e-06
2.19555e-06
2.19008e-06
2.18466e-06
2.17929e-06
2.17396e-06
2.16868e-06
2.16343e-06
2.15822e-06
2.15305e-06
2.1479e-06
2.14277e-06
2.13767e-06
2.13259e-06
2.12752e-06
2.12246e-06
2.1174e-06
2.11234e-06
2.10727e-06
2.10219e-06
2.0971e-06
2.09197e-06
2.08682e-06
2.08162e-06
2.07638e-06
2.07109e-06
2.06572e-06
2.06029e-06
2.05478e-06
2.04917e-06
2.04347e-06
2.03768e-06
2.03178e-06
2.02577e-06
2.01962e-06
2.0128e-06
2.00348e-06
1.99671e-06
1.98972e-06
1.98249e-06
1.97501e-06
1.96726e-06
1.95926e-06
1.95098e-06
1.94243e-06
1.9336e-06
1.92448e-06
1.91506e-06
1.90533e-06
1.89531e-06
1.88498e-06
1.87436e-06
1.86344e-06
1.85225e-06
1.84082e-06
1.8292e-06
1.81748e-06
1.80586e-06
1.79469e-06
1.78475e-06
1.77771e-06
)
;

boundaryField
{
    boundary
    {
        type            empty;
    }
    inlet
    {
        type            fixedValue;
        value           uniform 0;
    }
    outlet
    {
        type            zeroGradient;
    }
}


// ************************************************************************* //
