/*--------------------------------*- C++ -*----------------------------------*\
  =========                 |
  \\      /  F ield         | OpenFOAM: The Open Source CFD Toolbox
   \\    /   O peration     | Website:  https://openfoam.org
    \\  /    A nd           | Version:  7
     \\/     M anipulation  |
\*---------------------------------------------------------------------------*/
FoamFile
{
    version     2.0;
    format      ascii;
    class       volScalarField;
    location    "0.00072";
    object      O;
}
// * * * * * * * * * * * * * * * * * * * * * * * * * * * * * * * * * * * * * //

dimensions      [0 0 0 0 0 0 0];

internalField   nonuniform List<scalar> 
500
(
1.57439e-47
3.75231e-47
5.93725e-47
8.11714e-47
1.02892e-46
1.24533e-46
1.46104e-46
1.67621e-46
1.89107e-46
2.10587e-46
2.32085e-46
2.53626e-46
2.7523e-46
2.96915e-46
3.18695e-46
3.4058e-46
3.62579e-46
3.84698e-46
4.06945e-46
4.29328e-46
4.51861e-46
4.74559e-46
4.97447e-46
5.20555e-46
5.43923e-46
5.67598e-46
5.91636e-46
6.16105e-46
6.41078e-46
6.66637e-46
6.92873e-46
7.1988e-46
7.47753e-46
7.76591e-46
8.06487e-46
8.37527e-46
8.69787e-46
9.0333e-46
9.38195e-46
9.74403e-46
1.01194e-45
1.05078e-45
1.09083e-45
1.13201e-45
1.17416e-45
1.21711e-45
1.26066e-45
1.30457e-45
1.34859e-45
1.39244e-45
1.43584e-45
1.47851e-45
1.52015e-45
1.56051e-45
1.59933e-45
1.63639e-45
1.67149e-45
1.70448e-45
1.73524e-45
1.76369e-45
1.78979e-45
1.81355e-45
1.83499e-45
1.85419e-45
1.87125e-45
1.88627e-45
1.89939e-45
1.91077e-45
1.92054e-45
1.92888e-45
1.93594e-45
1.94186e-45
1.9468e-45
1.95087e-45
1.95421e-45
1.95693e-45
1.95913e-45
1.96089e-45
1.96229e-45
1.9634e-45
1.96426e-45
1.96494e-45
1.96546e-45
1.96587e-45
1.96618e-45
1.96641e-45
1.96659e-45
1.96673e-45
1.96683e-45
1.96691e-45
1.96698e-45
1.96703e-45
1.96707e-45
1.9671e-45
1.96713e-45
1.96716e-45
1.96718e-45
1.9672e-45
1.96723e-45
1.96725e-45
1.96727e-45
1.9673e-45
1.96732e-45
1.96735e-45
1.96738e-45
1.96741e-45
1.96744e-45
1.96747e-45
1.96751e-45
1.96754e-45
1.96758e-45
1.96762e-45
1.96766e-45
1.96771e-45
1.96775e-45
1.9678e-45
1.96785e-45
1.9679e-45
1.96795e-45
1.96799e-45
1.96802e-45
1.968e-45
1.96784e-45
1.96726e-45
1.96544e-45
1.9628e-45
1.96289e-45
1.96297e-45
1.96306e-45
1.96316e-45
1.96326e-45
1.96336e-45
1.96348e-45
1.9636e-45
1.96374e-45
1.96389e-45
1.96407e-45
1.96428e-45
1.96452e-45
1.96479e-45
1.9651e-45
1.96544e-45
1.96581e-45
1.96621e-45
1.96664e-45
1.96708e-45
1.96752e-45
1.96797e-45
1.96841e-45
1.96884e-45
1.96924e-45
1.96962e-45
1.96997e-45
1.97029e-45
1.97058e-45
1.97084e-45
1.97108e-45
1.97129e-45
1.97147e-45
1.97164e-45
1.9718e-45
1.97194e-45
1.97208e-45
1.97221e-45
1.97234e-45
1.97247e-45
1.9726e-45
1.97273e-45
1.97287e-45
1.97302e-45
1.97317e-45
1.97333e-45
1.9735e-45
1.97367e-45
1.97385e-45
1.97404e-45
1.97424e-45
1.97444e-45
1.97464e-45
1.97485e-45
1.97505e-45
1.97526e-45
1.97547e-45
1.97567e-45
1.97587e-45
1.97606e-45
1.97625e-45
1.97642e-45
1.97659e-45
1.97675e-45
1.97691e-45
1.97706e-45
1.97722e-45
1.97749e-45
1.9782e-45
1.98059e-45
1.98947e-45
2.02296e-45
2.14907e-45
2.62156e-45
4.38091e-45
1.08901e-44
3.48182e-44
1.22215e-43
4.39385e-43
1.58308e-42
5.68097e-42
2.02709e-41
7.1889e-41
2.53369e-40
8.87454e-40
3.0893e-39
1.06885e-38
3.67578e-38
1.25656e-37
4.2703e-37
1.44282e-36
4.8472e-36
1.61936e-35
5.3805e-35
1.77824e-34
5.84666e-34
1.91269e-33
6.22699e-33
2.01782e-32
6.50946e-32
2.09097e-31
6.68938e-31
2.13181e-30
6.7691e-30
2.14206e-29
6.75684e-29
2.12504e-28
6.66495e-28
2.0851e-27
6.50805e-27
2.02702e-26
6.30137e-26
1.95553e-25
6.05939e-25
1.87499e-24
5.79493e-24
1.78912e-23
5.51869e-23
1.70094e-22
5.23905e-22
1.61275e-21
4.96212e-21
1.52611e-20
4.6918e-20
1.44191e-19
4.45105e-19
1.37092e-18
4.21214e-18
1.29276e-17
3.96478e-17
1.21514e-16
3.72163e-16
1.13898e-15
3.48303e-15
1.06427e-14
3.24939e-14
9.91365e-14
3.02267e-13
9.21168e-13
2.80648e-12
8.54992e-12
2.60523e-11
7.94185e-11
2.42262e-10
7.39714e-10
2.26276e-09
6.96105e-09
2.18865e-08
7.4527e-08
3.16888e-07
1.90208e-06
1.31163e-05
6.95512e-05
0.000287376
0.00090497
0.00201948
0.00338208
0.00462357
0.00553412
0.00610702
0.00636306
0.00643839
0.00640145
0.00629863
0.0061599
0.00600373
0.0058412
0.00567876
0.00552002
0.0053669
0.00522029
0.00508053
0.0049476
0.00482129
0.00470129
0.00458727
0.00447885
0.00437568
0.00427743
0.00418375
0.00409435
0.00400896
0.0039273
0.00384915
0.00377431
0.0037026
0.00363596
0.00357299
0.00351209
0.00345316
0.00339609
0.00334078
0.00328714
0.0032351
0.00318458
0.00313552
0.00308784
0.00304149
0.00299642
0.00295257
0.00290989
0.00286834
0.00282788
0.00278845
0.00275004
0.00271259
0.00267607
0.00264046
0.00260571
0.0025718
0.0025387
0.00250639
0.00247482
0.00244399
0.00241386
0.00238441
0.00235562
0.00232747
0.00229993
0.00227299
0.00224662
0.00222081
0.00219553
0.00217078
0.00214654
0.00212278
0.0020995
0.00207668
0.0020543
0.00203235
0.00201083
0.00198971
0.00196898
0.00194864
0.00192868
0.00190907
0.00188982
0.00187091
0.00185234
0.00183409
0.00181616
0.00179853
0.00178121
0.00176419
0.00174745
0.00173099
0.0017148
0.00169889
0.00168324
0.00166787
0.00165271
0.00163776
0.00162304
0.00160855
0.00159428
0.00158023
0.0015664
0.00155277
0.00153936
0.00152614
0.00151312
0.0015003
0.00148766
0.00147521
0.00146294
0.00145085
0.00143894
0.00142719
0.00141562
0.0014042
0.00139295
0.00138186
0.00137093
0.00136015
0.00134951
0.00133903
0.00132869
0.00131849
0.00130843
0.0012985
0.00128871
0.00127905
0.00126952
0.00126012
0.00125084
0.00124168
0.00123264
0.00122372
0.00121491
0.00120622
0.00119763
0.00118915
0.00118078
0.00117251
0.00116434
0.00115628
0.00114831
0.00114043
0.00113265
0.00112497
0.00111737
0.00110986
0.00110243
0.0010951
0.00108784
0.00108067
0.00107358
0.00106656
0.00105963
0.00105277
0.00104598
0.00103927
0.00103263
0.00102606
0.00101956
0.00101312
0.00100676
0.00100046
0.000994218
0.000988044
0.000981932
0.000975879
0.000969886
0.000963949
0.000958069
0.000952243
0.000946469
0.000940747
0.000935074
0.000929449
0.00092387
0.000918334
0.00091284
0.000907386
0.000901969
0.000896587
0.000891238
0.000885918
0.000880626
0.000875358
0.000870111
0.000864882
0.00085967
0.00085447
0.000849279
0.000844094
0.0008389
0.000833649
0.000828332
0.00082149
0.000816221
0.000810917
0.000805573
0.000800188
0.000794761
0.000789289
0.00078377
0.000778199
0.000772575
0.000766894
0.000761155
0.000755357
0.000749498
0.00074358
0.000737605
0.00073158
0.000725517
0.000719435
0.000713374
0.000707399
0.00070163
0.000696282
0.000691751
0.000688779
)
;

boundaryField
{
    boundary
    {
        type            empty;
    }
    inlet
    {
        type            fixedValue;
        value           uniform 0;
    }
    outlet
    {
        type            zeroGradient;
    }
}


// ************************************************************************* //
