/*--------------------------------*- C++ -*----------------------------------*\
  =========                 |
  \\      /  F ield         | OpenFOAM: The Open Source CFD Toolbox
   \\    /   O peration     | Website:  https://openfoam.org
    \\  /    A nd           | Version:  7
     \\/     M anipulation  |
\*---------------------------------------------------------------------------*/
FoamFile
{
    version     2.0;
    format      ascii;
    class       volScalarField;
    location    "0.00072";
    object      O2;
}
// * * * * * * * * * * * * * * * * * * * * * * * * * * * * * * * * * * * * * //

dimensions      [0 0 0 0 0 0 0];

internalField   nonuniform List<scalar> 
500
(
0.226269
0.226269
0.226269
0.226269
0.226269
0.226269
0.226269
0.226269
0.226269
0.226269
0.226269
0.226269
0.226269
0.226269
0.226269
0.226269
0.226269
0.226269
0.226269
0.226269
0.226269
0.226269
0.226269
0.226269
0.226269
0.226269
0.226269
0.226269
0.226269
0.226269
0.226269
0.226269
0.226269
0.226269
0.226269
0.226269
0.226269
0.226269
0.226269
0.226269
0.226269
0.226269
0.226269
0.226269
0.226269
0.226269
0.226269
0.226269
0.226269
0.226269
0.226269
0.226269
0.226269
0.226269
0.226269
0.226269
0.226269
0.226269
0.226269
0.226269
0.226269
0.226269
0.226269
0.226269
0.226269
0.226269
0.226269
0.226269
0.226269
0.226269
0.226269
0.226269
0.226269
0.226269
0.226269
0.226269
0.226269
0.226269
0.226269
0.226269
0.226269
0.226269
0.226269
0.226269
0.226269
0.226269
0.226269
0.226269
0.226269
0.226269
0.226269
0.226269
0.226269
0.226269
0.226269
0.226269
0.226269
0.226269
0.226269
0.226269
0.226269
0.226269
0.226269
0.226269
0.226269
0.226269
0.226269
0.226269
0.226269
0.226269
0.226269
0.226269
0.226269
0.226269
0.226269
0.226269
0.226269
0.226269
0.226269
0.226269
0.226269
0.226269
0.226269
0.226269
0.226269
0.226269
0.226269
0.226269
0.226269
0.226269
0.226269
0.226269
0.226269
0.226269
0.226269
0.226269
0.226269
0.226269
0.226269
0.226269
0.226269
0.226269
0.226269
0.226269
0.226269
0.226269
0.226269
0.226269
0.226269
0.226269
0.226269
0.226269
0.226269
0.226269
0.226269
0.226269
0.226269
0.226269
0.226269
0.226269
0.226269
0.226269
0.226269
0.226269
0.226269
0.226269
0.226269
0.226269
0.226269
0.226269
0.226269
0.226269
0.226269
0.226269
0.226269
0.226269
0.226269
0.226269
0.226269
0.226269
0.226269
0.226269
0.226269
0.226269
0.226269
0.226269
0.226269
0.226269
0.226269
0.226269
0.226269
0.226269
0.226269
0.226269
0.226269
0.226269
0.226269
0.226269
0.226269
0.226269
0.226269
0.226269
0.226269
0.226269
0.226269
0.226269
0.226269
0.226269
0.226269
0.226269
0.226269
0.226269
0.226269
0.226269
0.226269
0.226269
0.226269
0.226269
0.226269
0.226269
0.226269
0.226269
0.226269
0.226269
0.226269
0.226269
0.226269
0.226269
0.226269
0.226269
0.226269
0.226269
0.226269
0.226269
0.226269
0.226269
0.226269
0.226269
0.226269
0.226269
0.226269
0.226269
0.226269
0.226269
0.226269
0.226269
0.226269
0.226269
0.226269
0.226269
0.226269
0.226269
0.226269
0.226269
0.226269
0.226269
0.226269
0.226269
0.226269
0.226269
0.226269
0.226269
0.226269
0.226269
0.226269
0.226269
0.226269
0.22627
0.22627
0.226272
0.226274
0.226277
0.226277
0.226251
0.2261
0.225477
0.223454
0.218266
0.208413
0.194947
0.177949
0.156257
0.130889
0.105913
0.0855209
0.0668883
0.0557628
0.0482215
0.0431212
0.0396152
0.0371319
0.0353035
0.0338982
0.0327715
0.0318331
0.0310263
0.0303148
0.0296752
0.0290918
0.0285539
0.0280539
0.0275863
0.0271468
0.0267321
0.0263396
0.0259671
0.0256128
0.025275
0.0249524
0.024644
0.0243486
0.0240658
0.0238033
0.0235537
0.0233118
0.0230771
0.0228492
0.0226277
0.0224123
0.0222026
0.0219984
0.0217993
0.0216052
0.0214157
0.0212308
0.0210502
0.0208738
0.0207014
0.0205328
0.020368
0.0202067
0.020049
0.0198946
0.0197434
0.0195954
0.0194505
0.0193086
0.0191695
0.0190332
0.0188996
0.0187686
0.0186402
0.0185142
0.0183905
0.0182692
0.0181501
0.0180332
0.0179183
0.0178054
0.0176946
0.0175855
0.0174784
0.017373
0.0172693
0.0171672
0.0170668
0.0169679
0.0168706
0.0167747
0.0166803
0.0165872
0.0164955
0.0164051
0.016316
0.0162281
0.0161414
0.0160559
0.0159716
0.0158883
0.0158062
0.0157251
0.0156451
0.0155661
0.0154881
0.0154111
0.0153351
0.0152601
0.0151858
0.0151125
0.01504
0.0149684
0.0148977
0.0148277
0.0147586
0.0146904
0.0146229
0.0145561
0.0144902
0.014425
0.0143606
0.0142969
0.0142339
0.0141716
0.01411
0.0140491
0.0139889
0.0139294
0.0138705
0.0138123
0.0137547
0.0136978
0.0136414
0.0135857
0.0135306
0.0134761
0.0134222
0.0133688
0.013316
0.0132638
0.0132121
0.0131609
0.0131102
0.0130601
0.0130104
0.0129612
0.0129125
0.0128642
0.0128164
0.0127691
0.0127221
0.0126756
0.0126294
0.0125837
0.0125383
0.0124933
0.0124486
0.0124042
0.0123602
0.0123165
0.0122731
0.01223
0.0121871
0.0121445
0.0121022
0.0120601
0.0120182
0.0119766
0.0119352
0.0118939
0.0118528
0.011812
0.0117712
0.0117306
0.0116902
0.0116498
0.0116096
0.0115695
0.0115294
0.0114894
0.0114494
0.0114094
0.0113694
0.0113294
0.0112894
0.0112493
0.011209
0.0111687
0.0111282
0.0110875
0.0110466
0.0110054
0.0109639
0.0109221
0.0108799
0.0108373
0.0107942
0.0107506
0.0107064
0.0106617
0.0106163
0.0105703
0.0105237
0.0104764
0.0104276
0.0103751
0.0103026
0.0102504
0.0101969
0.0101419
0.0100854
0.0100273
0.00996775
0.00990658
0.0098438
0.00977938
0.00971328
0.00964548
0.00957596
0.00950472
0.00943175
0.00935708
0.00928078
0.00920294
0.00912378
0.00904363
0.00896315
0.00888359
0.00880744
0.00873991
0.00869258
)
;

boundaryField
{
    boundary
    {
        type            empty;
    }
    inlet
    {
        type            fixedValue;
        value           uniform 0.226269;
    }
    outlet
    {
        type            zeroGradient;
    }
}


// ************************************************************************* //
