/*--------------------------------*- C++ -*----------------------------------*\
  =========                 |
  \\      /  F ield         | OpenFOAM: The Open Source CFD Toolbox
   \\    /   O peration     | Website:  https://openfoam.org
    \\  /    A nd           | Version:  7
     \\/     M anipulation  |
\*---------------------------------------------------------------------------*/
FoamFile
{
    version     2.0;
    format      ascii;
    class       surfaceScalarField;
    location    "0.00072";
    object      phi;
}
// * * * * * * * * * * * * * * * * * * * * * * * * * * * * * * * * * * * * * //

dimensions      [1 0 -1 0 0 0 0];

internalField   nonuniform List<scalar> 
499
(
6.92973e-06
6.92979e-06
6.92986e-06
6.92996e-06
6.93007e-06
6.9302e-06
6.93035e-06
6.9305e-06
6.93066e-06
6.93082e-06
6.93097e-06
6.9311e-06
6.93122e-06
6.93131e-06
6.93139e-06
6.93144e-06
6.93146e-06
6.93147e-06
6.93145e-06
6.93142e-06
6.93136e-06
6.93129e-06
6.93121e-06
6.93111e-06
6.93099e-06
6.93085e-06
6.93069e-06
6.93051e-06
6.9303e-06
6.93007e-06
6.92979e-06
6.92948e-06
6.92912e-06
6.92872e-06
6.92826e-06
6.92774e-06
6.92716e-06
6.92651e-06
6.9258e-06
6.92501e-06
6.92416e-06
6.92324e-06
6.92225e-06
6.92121e-06
6.9201e-06
6.91895e-06
6.91775e-06
6.91653e-06
6.91528e-06
6.91401e-06
6.91275e-06
6.91149e-06
6.91026e-06
6.90905e-06
6.90789e-06
6.90677e-06
6.9057e-06
6.9047e-06
6.90376e-06
6.90289e-06
6.90209e-06
6.90135e-06
6.90069e-06
6.9001e-06
6.89957e-06
6.89911e-06
6.8987e-06
6.89835e-06
6.89805e-06
6.89779e-06
6.89758e-06
6.8974e-06
6.89725e-06
6.89713e-06
6.89704e-06
6.89696e-06
6.8969e-06
6.89686e-06
6.89682e-06
6.8968e-06
6.89679e-06
6.89678e-06
6.89677e-06
6.89677e-06
6.89678e-06
6.89679e-06
6.89679e-06
6.8968e-06
6.89681e-06
6.89683e-06
6.89684e-06
6.89685e-06
6.89686e-06
6.89688e-06
6.89689e-06
6.8969e-06
6.89692e-06
6.89693e-06
6.89694e-06
6.89696e-06
6.89697e-06
6.89698e-06
6.89699e-06
6.89701e-06
6.89702e-06
6.89703e-06
6.89704e-06
6.89705e-06
6.89707e-06
6.89708e-06
6.89709e-06
6.8971e-06
6.89711e-06
6.89712e-06
6.89713e-06
6.89714e-06
6.89715e-06
6.89716e-06
6.89717e-06
6.89718e-06
6.89719e-06
6.8972e-06
6.89721e-06
6.89722e-06
6.89723e-06
6.89723e-06
6.89724e-06
6.89725e-06
6.89725e-06
6.89726e-06
6.89726e-06
6.89727e-06
6.89728e-06
6.89728e-06
6.89729e-06
6.8973e-06
6.89731e-06
6.89732e-06
6.89733e-06
6.89734e-06
6.89734e-06
6.89735e-06
6.89736e-06
6.89737e-06
6.89737e-06
6.89738e-06
6.89739e-06
6.89739e-06
6.8974e-06
6.8974e-06
6.8974e-06
6.89741e-06
6.89741e-06
6.89742e-06
6.89742e-06
6.89742e-06
6.89743e-06
6.89743e-06
6.89743e-06
6.89744e-06
6.89744e-06
6.89744e-06
6.89745e-06
6.89745e-06
6.89745e-06
6.89746e-06
6.89746e-06
6.89746e-06
6.89746e-06
6.89746e-06
6.89747e-06
6.89747e-06
6.89747e-06
6.89747e-06
6.89747e-06
6.89747e-06
6.89747e-06
6.89748e-06
6.89748e-06
6.89748e-06
6.89748e-06
6.89748e-06
6.89748e-06
6.89748e-06
6.89748e-06
6.89748e-06
6.89748e-06
6.89748e-06
6.89749e-06
6.89749e-06
6.89749e-06
6.89749e-06
6.89749e-06
6.89749e-06
6.89749e-06
6.8975e-06
6.8975e-06
6.8975e-06
6.8975e-06
6.8975e-06
6.89751e-06
6.89751e-06
6.89751e-06
6.89752e-06
6.89752e-06
6.89753e-06
6.89753e-06
6.89754e-06
6.89754e-06
6.89755e-06
6.89755e-06
6.89756e-06
6.89757e-06
6.89757e-06
6.89758e-06
6.89759e-06
6.8976e-06
6.89761e-06
6.89762e-06
6.89763e-06
6.89764e-06
6.89765e-06
6.89767e-06
6.89768e-06
6.8977e-06
6.89771e-06
6.89773e-06
6.89774e-06
6.89776e-06
6.89778e-06
6.8978e-06
6.89782e-06
6.89785e-06
6.89787e-06
6.89789e-06
6.89792e-06
6.89795e-06
6.89797e-06
6.898e-06
6.89803e-06
6.89806e-06
6.8981e-06
6.89813e-06
6.89817e-06
6.8982e-06
6.89824e-06
6.89828e-06
6.89832e-06
6.89837e-06
6.89841e-06
6.89846e-06
6.8985e-06
6.89855e-06
6.89859e-06
6.89864e-06
6.89869e-06
6.89875e-06
6.8988e-06
6.89886e-06
6.89892e-06
6.89898e-06
6.89904e-06
6.8991e-06
6.89917e-06
6.89923e-06
6.8993e-06
6.89936e-06
6.89944e-06
6.89952e-06
6.89963e-06
6.89986e-06
6.90043e-06
6.90204e-06
6.90664e-06
6.91941e-06
6.95047e-06
7.00537e-06
7.06572e-06
7.11088e-06
7.14015e-06
7.15961e-06
7.1733e-06
7.1831e-06
7.19014e-06
7.19516e-06
7.19875e-06
7.20146e-06
7.2036e-06
7.20535e-06
7.20684e-06
7.20815e-06
7.2093e-06
7.21033e-06
7.21125e-06
7.21209e-06
7.21285e-06
7.21354e-06
7.21417e-06
7.21475e-06
7.21529e-06
7.21579e-06
7.21626e-06
7.21669e-06
7.2171e-06
7.21748e-06
7.21784e-06
7.21818e-06
7.2185e-06
7.2188e-06
7.21909e-06
7.21937e-06
7.21963e-06
7.21987e-06
7.2201e-06
7.22032e-06
7.22053e-06
7.22074e-06
7.22093e-06
7.22113e-06
7.22132e-06
7.2215e-06
7.22167e-06
7.22184e-06
7.22201e-06
7.22217e-06
7.22233e-06
7.22248e-06
7.22262e-06
7.22276e-06
7.2229e-06
7.22303e-06
7.22316e-06
7.22328e-06
7.2234e-06
7.22352e-06
7.22363e-06
7.22374e-06
7.22385e-06
7.22395e-06
7.22405e-06
7.22415e-06
7.22425e-06
7.22434e-06
7.22443e-06
7.22452e-06
7.22461e-06
7.22469e-06
7.22478e-06
7.22486e-06
7.22494e-06
7.22502e-06
7.22509e-06
7.22517e-06
7.22524e-06
7.22531e-06
7.22538e-06
7.22545e-06
7.22552e-06
7.22558e-06
7.22564e-06
7.22571e-06
7.22577e-06
7.22583e-06
7.22588e-06
7.22594e-06
7.226e-06
7.22605e-06
7.2261e-06
7.22616e-06
7.22621e-06
7.22626e-06
7.22631e-06
7.22635e-06
7.2264e-06
7.22645e-06
7.22649e-06
7.22653e-06
7.22658e-06
7.22662e-06
7.22666e-06
7.2267e-06
7.22674e-06
7.22678e-06
7.22681e-06
7.22685e-06
7.22689e-06
7.22692e-06
7.22696e-06
7.22699e-06
7.22703e-06
7.22706e-06
7.22709e-06
7.22712e-06
7.22715e-06
7.22718e-06
7.22721e-06
7.22724e-06
7.22726e-06
7.22729e-06
7.22731e-06
7.22734e-06
7.22736e-06
7.22738e-06
7.2274e-06
7.22741e-06
7.22743e-06
7.22744e-06
7.22746e-06
7.22747e-06
7.22748e-06
7.22749e-06
7.2275e-06
7.2275e-06
7.22751e-06
7.22751e-06
7.22751e-06
7.22751e-06
7.22751e-06
7.22751e-06
7.22751e-06
7.22751e-06
7.22751e-06
7.2275e-06
7.2275e-06
7.22749e-06
7.22748e-06
7.22747e-06
7.22746e-06
7.22745e-06
7.22744e-06
7.22743e-06
7.22742e-06
7.2274e-06
7.22739e-06
7.22737e-06
7.22735e-06
7.22733e-06
7.22731e-06
7.22729e-06
7.22727e-06
7.22724e-06
7.22722e-06
7.22719e-06
7.22715e-06
7.22712e-06
7.22708e-06
7.22705e-06
7.22701e-06
7.22696e-06
7.22692e-06
7.22687e-06
7.22682e-06
7.22676e-06
7.22671e-06
7.22665e-06
7.22659e-06
7.22653e-06
7.22647e-06
7.22641e-06
7.22634e-06
7.22628e-06
7.22622e-06
7.22615e-06
7.22609e-06
7.22604e-06
7.22598e-06
7.22593e-06
7.22589e-06
7.22585e-06
7.22582e-06
7.22579e-06
7.22578e-06
7.22584e-06
7.22567e-06
7.22527e-06
7.22498e-06
7.22503e-06
7.22505e-06
7.22508e-06
7.22513e-06
7.22519e-06
7.22525e-06
7.22534e-06
7.22543e-06
7.22554e-06
7.22566e-06
7.2258e-06
7.22594e-06
7.2261e-06
7.22626e-06
7.22643e-06
7.2266e-06
7.22677e-06
7.22694e-06
7.2271e-06
7.22724e-06
7.22737e-06
7.22748e-06
7.22757e-06
)
;

boundaryField
{
    boundary
    {
        type            empty;
        value           nonuniform 0();
    }
    inlet
    {
        type            calculated;
        value           uniform -6.92969e-06;
    }
    outlet
    {
        type            calculated;
        value           uniform 7.22765e-06;
    }
}


// ************************************************************************* //
