/*--------------------------------*- C++ -*----------------------------------*\
  =========                 |
  \\      /  F ield         | OpenFOAM: The Open Source CFD Toolbox
   \\    /   O peration     | Website:  https://openfoam.org
    \\  /    A nd           | Version:  7
     \\/     M anipulation  |
\*---------------------------------------------------------------------------*/
FoamFile
{
    version     2.0;
    format      ascii;
    class       volScalarField;
    location    "0.00072";
    object      Qdot;
}
// * * * * * * * * * * * * * * * * * * * * * * * * * * * * * * * * * * * * * //

dimensions      [1 -1 -3 0 0 0 0];

internalField   nonuniform List<scalar> 
500
(
-2.45088e-27
-1.86009e-27
-1.73148e-27
-1.7022e-27
-1.69402e-27
-1.69013e-27
-1.68698e-27
-1.68392e-27
-1.68092e-27
-1.67808e-27
-1.67551e-27
-1.6733e-27
-1.67154e-27
-1.67026e-27
-1.66947e-27
-1.66919e-27
-1.66939e-27
-1.67004e-27
-1.67111e-27
-1.67259e-27
-1.67443e-27
-1.67664e-27
-1.6792e-27
-1.68213e-27
-1.68546e-27
-1.68924e-27
-1.69351e-27
-1.69835e-27
-1.70386e-27
-1.71012e-27
-1.71726e-27
-1.72537e-27
-1.73459e-27
-1.74505e-27
-1.75686e-27
-1.77015e-27
-1.78502e-27
-1.80159e-27
-1.81993e-27
-1.8401e-27
-1.86215e-27
-1.88609e-27
-1.9119e-27
-1.93952e-27
-1.96885e-27
-1.99978e-27
-2.03213e-27
-2.0657e-27
-2.10026e-27
-2.13555e-27
-2.17127e-27
-2.20713e-27
-2.24282e-27
-2.27802e-27
-2.31244e-27
-2.34579e-27
-2.37783e-27
-2.40831e-27
-2.43707e-27
-2.46394e-27
-2.48883e-27
-2.51167e-27
-2.53245e-27
-2.55119e-27
-2.56793e-27
-2.58276e-27
-2.59579e-27
-2.60713e-27
-2.61692e-27
-2.62531e-27
-2.63244e-27
-2.63844e-27
-2.64345e-27
-2.64761e-27
-2.65104e-27
-2.65384e-27
-2.6561e-27
-2.65793e-27
-2.65938e-27
-2.66054e-27
-2.66146e-27
-2.66217e-27
-2.66273e-27
-2.66316e-27
-2.66349e-27
-2.66375e-27
-2.66395e-27
-2.6641e-27
-2.66422e-27
-2.66431e-27
-2.66439e-27
-2.66445e-27
-2.6645e-27
-2.66454e-27
-2.66458e-27
-2.66461e-27
-2.66464e-27
-2.66468e-27
-2.66471e-27
-2.66474e-27
-2.66477e-27
-2.6648e-27
-2.66484e-27
-2.66487e-27
-2.66491e-27
-2.66495e-27
-2.66499e-27
-2.66503e-27
-2.66507e-27
-2.66512e-27
-2.66516e-27
-2.66521e-27
-2.66526e-27
-2.66532e-27
-2.66537e-27
-2.66543e-27
-2.66549e-27
-2.66555e-27
-2.66561e-27
-2.66568e-27
-2.66575e-27
-2.66583e-27
-2.66592e-27
-2.66604e-27
-2.6662e-27
-2.66641e-27
-2.66658e-27
-2.66676e-27
-2.66693e-27
-2.66709e-27
-2.66723e-27
-2.66736e-27
-2.66746e-27
-2.66753e-27
-2.66759e-27
-2.66764e-27
-2.66767e-27
-2.66771e-27
-2.66774e-27
-2.66778e-27
-2.66783e-27
-2.66789e-27
-2.66797e-27
-2.66806e-27
-2.66817e-27
-2.66828e-27
-2.66841e-27
-2.66855e-27
-2.66869e-27
-2.66884e-27
-2.669e-27
-2.66916e-27
-2.66931e-27
-2.66948e-27
-2.66964e-27
-2.6698e-27
-2.66996e-27
-2.67013e-27
-2.67029e-27
-2.67046e-27
-2.67062e-27
-2.67079e-27
-2.67096e-27
-2.67113e-27
-2.6713e-27
-2.67148e-27
-2.67165e-27
-2.67183e-27
-2.67201e-27
-2.67219e-27
-2.67238e-27
-2.67256e-27
-2.67275e-27
-2.67294e-27
-2.67313e-27
-2.67332e-27
-2.67351e-27
-2.6737e-27
-2.67389e-27
-2.67407e-27
-2.67426e-27
-2.67444e-27
-2.67463e-27
-2.6748e-27
-2.67498e-27
-2.67514e-27
-2.67531e-27
-2.67546e-27
-2.67562e-27
-2.67576e-27
-2.6759e-27
-2.67602e-27
-2.67614e-27
-2.67625e-27
-2.67635e-27
-2.67644e-27
-2.67652e-27
-2.67659e-27
-2.67665e-27
-2.67669e-27
-2.67672e-27
-2.67674e-27
-2.67674e-27
-2.67672e-27
-2.67669e-27
-2.67664e-27
-2.67657e-27
-2.67646e-27
-2.67625e-27
-2.67575e-27
-2.6743e-27
-2.66958e-27
-2.65368e-27
-2.59956e-27
-2.41549e-27
-1.79204e-27
3.08731e-28
7.34864e-27
3.08109e-26
1.08583e-25
3.65023e-25
1.20627e-24
3.95227e-24
1.2873e-23
4.17201e-23
1.34594e-22
4.32348e-22
1.38316e-21
4.40796e-21
1.39967e-20
4.42931e-20
1.39723e-19
4.39459e-19
1.37846e-18
4.31316e-18
1.34657e-17
4.19571e-17
1.30508e-16
4.05367e-16
1.25771e-15
3.89945e-15
1.20869e-14
3.7478e-14
1.16341e-13
3.61951e-13
1.13022e-12
3.54929e-12
1.12397e-11
3.60199e-11
1.17338e-10
3.90595e-10
1.34285e-09
4.75591e-09
1.74322e-08
6.6315e-08
2.61582e-07
1.06612e-06
4.4671e-06
1.91391e-05
8.34316e-05
0.00036853
0.00164441
0.007397
0.0335073
0.152826
0.702414
3.25982
15.3275
76.9528
422.786
2723.06
20005.6
169018
1.54203e+06
1.46886e+07
1.3515e+08
1.02039e+09
4.57086e+09
1.02774e+10
1.33275e+10
1.38571e+10
1.39048e+10
1.37831e+10
1.29877e+10
1.13195e+10
9.28318e+09
7.53945e+09
6.21162e+09
5.19216e+09
4.41676e+09
3.82002e+09
3.35222e+09
2.97807e+09
2.673e+09
2.4199e+09
2.20669e+09
2.02472e+09
1.86764e+09
1.73075e+09
1.61044e+09
1.50393e+09
1.40903e+09
1.324e+09
1.24741e+09
1.17812e+09
1.11517e+09
1.05777e+09
1.00524e+09
9.57015e+08
9.1263e+08
8.71685e+08
8.33897e+08
7.99867e+08
7.68684e+08
7.3935e+08
7.11794e+08
6.85848e+08
6.61385e+08
6.38274e+08
6.16417e+08
5.95721e+08
5.76098e+08
5.57473e+08
5.39775e+08
5.22942e+08
5.06916e+08
4.91642e+08
4.77073e+08
4.63164e+08
4.49875e+08
4.37168e+08
4.25007e+08
4.13361e+08
4.022e+08
3.91496e+08
3.81225e+08
3.71362e+08
3.61884e+08
3.52772e+08
3.44006e+08
3.35568e+08
3.27441e+08
3.19609e+08
3.12059e+08
3.04775e+08
2.97744e+08
2.90957e+08
2.844e+08
2.78062e+08
2.71933e+08
2.66005e+08
2.60267e+08
2.54712e+08
2.49332e+08
2.44118e+08
2.39064e+08
2.34164e+08
2.2941e+08
2.24796e+08
2.20318e+08
2.15969e+08
2.11745e+08
2.0764e+08
2.0365e+08
1.99771e+08
1.95998e+08
1.92328e+08
1.88756e+08
1.85279e+08
1.81893e+08
1.78597e+08
1.75385e+08
1.72257e+08
1.69209e+08
1.66244e+08
1.6336e+08
1.60545e+08
1.57783e+08
1.55084e+08
1.52451e+08
1.4988e+08
1.4737e+08
1.44918e+08
1.42523e+08
1.40182e+08
1.37895e+08
1.3566e+08
1.33474e+08
1.31337e+08
1.29247e+08
1.27203e+08
1.25203e+08
1.23246e+08
1.21331e+08
1.19456e+08
1.17621e+08
1.15824e+08
1.14064e+08
1.1234e+08
1.10652e+08
1.08997e+08
1.07376e+08
1.05788e+08
1.04231e+08
1.02705e+08
1.01208e+08
9.97406e+07
9.83016e+07
9.68902e+07
9.55056e+07
9.41473e+07
9.28145e+07
9.15066e+07
9.02227e+07
8.89627e+07
8.77258e+07
8.65113e+07
8.53188e+07
8.41477e+07
8.29975e+07
8.18677e+07
8.07578e+07
7.96673e+07
7.85959e+07
7.7543e+07
7.65082e+07
7.5491e+07
7.44912e+07
7.35083e+07
7.25422e+07
7.15919e+07
7.06575e+07
6.97386e+07
6.88349e+07
6.7946e+07
6.70716e+07
6.62114e+07
6.53652e+07
6.45325e+07
6.37133e+07
6.29071e+07
6.21138e+07
6.13331e+07
6.05647e+07
5.98084e+07
5.9064e+07
5.83313e+07
5.76102e+07
5.68993e+07
5.62006e+07
5.55125e+07
5.48349e+07
5.41678e+07
5.35108e+07
5.28639e+07
5.22269e+07
5.15997e+07
5.0982e+07
5.03732e+07
4.97741e+07
4.9184e+07
4.86028e+07
4.80302e+07
4.74662e+07
4.69106e+07
4.63632e+07
4.58238e+07
4.52924e+07
4.47689e+07
4.42541e+07
4.37499e+07
4.32607e+07
4.28172e+07
4.23193e+07
4.18601e+07
4.09869e+07
4.06219e+07
4.0193e+07
3.97458e+07
3.92943e+07
3.88436e+07
3.83959e+07
3.79518e+07
3.75113e+07
3.70746e+07
3.66414e+07
3.62113e+07
3.57841e+07
3.53595e+07
3.49371e+07
3.45164e+07
3.40967e+07
3.36773e+07
3.32568e+07
3.28331e+07
3.24041e+07
3.19668e+07
3.15203e+07
3.10783e+07
3.07373e+07
)
;

boundaryField
{
    boundary
    {
        type            empty;
    }
    inlet
    {
        type            calculated;
        value           uniform 0;
    }
    outlet
    {
        type            calculated;
        value           uniform 0;
    }
}


// ************************************************************************* //
