/*--------------------------------*- C++ -*----------------------------------*\
  =========                 |
  \\      /  F ield         | OpenFOAM: The Open Source CFD Toolbox
   \\    /   O peration     | Website:  https://openfoam.org
    \\  /    A nd           | Version:  7
     \\/     M anipulation  |
\*---------------------------------------------------------------------------*/
FoamFile
{
    version     2.0;
    format      ascii;
    class       volVectorField;
    location    "0.00072";
    object      U;
}
// * * * * * * * * * * * * * * * * * * * * * * * * * * * * * * * * * * * * * //

dimensions      [0 1 -1 0 0 0 0];

internalField   nonuniform List<vector> 
500
(
(2.34893 0 0)
(2.34893 0 0)
(2.34893 0 0)
(2.34893 0 0)
(2.34893 0 0)
(2.34894 0 0)
(2.34894 0 0)
(2.34895 0 0)
(2.34895 0 0)
(2.34896 0 0)
(2.34898 0 0)
(2.34899 0 0)
(2.34901 0 0)
(2.34902 0 0)
(2.34904 0 0)
(2.34905 0 0)
(2.34907 0 0)
(2.34908 0 0)
(2.3491 0 0)
(2.34911 0 0)
(2.34912 0 0)
(2.34914 0 0)
(2.34915 0 0)
(2.34916 0 0)
(2.34918 0 0)
(2.34919 0 0)
(2.34921 0 0)
(2.34922 0 0)
(2.34924 0 0)
(2.34926 0 0)
(2.34928 0 0)
(2.34931 0 0)
(2.34933 0 0)
(2.34936 0 0)
(2.34939 0 0)
(2.34942 0 0)
(2.34945 0 0)
(2.34948 0 0)
(2.34951 0 0)
(2.34955 0 0)
(2.34958 0 0)
(2.34961 0 0)
(2.34964 0 0)
(2.34967 0 0)
(2.34969 0 0)
(2.34971 0 0)
(2.34973 0 0)
(2.34975 0 0)
(2.34976 0 0)
(2.34976 0 0)
(2.34977 0 0)
(2.34976 0 0)
(2.34976 0 0)
(2.34975 0 0)
(2.34974 0 0)
(2.34973 0 0)
(2.34971 0 0)
(2.34969 0 0)
(2.34967 0 0)
(2.34965 0 0)
(2.34963 0 0)
(2.34961 0 0)
(2.34959 0 0)
(2.34957 0 0)
(2.34956 0 0)
(2.34954 0 0)
(2.34953 0 0)
(2.34951 0 0)
(2.3495 0 0)
(2.34949 0 0)
(2.34949 0 0)
(2.34948 0 0)
(2.34948 0 0)
(2.34947 0 0)
(2.34947 0 0)
(2.34947 0 0)
(2.34947 0 0)
(2.34947 0 0)
(2.34947 0 0)
(2.34948 0 0)
(2.34948 0 0)
(2.34948 0 0)
(2.34949 0 0)
(2.34949 0 0)
(2.34949 0 0)
(2.3495 0 0)
(2.3495 0 0)
(2.34951 0 0)
(2.34951 0 0)
(2.34952 0 0)
(2.34952 0 0)
(2.34953 0 0)
(2.34953 0 0)
(2.34954 0 0)
(2.34954 0 0)
(2.34955 0 0)
(2.34955 0 0)
(2.34955 0 0)
(2.34956 0 0)
(2.34956 0 0)
(2.34957 0 0)
(2.34957 0 0)
(2.34958 0 0)
(2.34958 0 0)
(2.34959 0 0)
(2.34959 0 0)
(2.3496 0 0)
(2.3496 0 0)
(2.3496 0 0)
(2.34961 0 0)
(2.34961 0 0)
(2.34962 0 0)
(2.34962 0 0)
(2.34963 0 0)
(2.34963 0 0)
(2.34963 0 0)
(2.34964 0 0)
(2.34964 0 0)
(2.34965 0 0)
(2.34965 0 0)
(2.34965 0 0)
(2.34966 0 0)
(2.34966 0 0)
(2.34967 0 0)
(2.34967 0 0)
(2.34968 0 0)
(2.34968 0 0)
(2.34968 0 0)
(2.34969 0 0)
(2.34969 0 0)
(2.34969 0 0)
(2.3497 0 0)
(2.3497 0 0)
(2.3497 0 0)
(2.3497 0 0)
(2.34971 0 0)
(2.34971 0 0)
(2.34971 0 0)
(2.34972 0 0)
(2.34972 0 0)
(2.34972 0 0)
(2.34973 0 0)
(2.34973 0 0)
(2.34973 0 0)
(2.34974 0 0)
(2.34974 0 0)
(2.34974 0 0)
(2.34975 0 0)
(2.34975 0 0)
(2.34975 0 0)
(2.34976 0 0)
(2.34976 0 0)
(2.34976 0 0)
(2.34976 0 0)
(2.34977 0 0)
(2.34977 0 0)
(2.34977 0 0)
(2.34977 0 0)
(2.34978 0 0)
(2.34978 0 0)
(2.34978 0 0)
(2.34979 0 0)
(2.34979 0 0)
(2.34979 0 0)
(2.34979 0 0)
(2.3498 0 0)
(2.3498 0 0)
(2.3498 0 0)
(2.3498 0 0)
(2.34981 0 0)
(2.34981 0 0)
(2.34981 0 0)
(2.34981 0 0)
(2.34981 0 0)
(2.34982 0 0)
(2.34982 0 0)
(2.34982 0 0)
(2.34982 0 0)
(2.34983 0 0)
(2.34983 0 0)
(2.34983 0 0)
(2.34983 0 0)
(2.34983 0 0)
(2.34983 0 0)
(2.34984 0 0)
(2.34984 0 0)
(2.34984 0 0)
(2.34984 0 0)
(2.34984 0 0)
(2.34985 0 0)
(2.34985 0 0)
(2.34985 0 0)
(2.34985 0 0)
(2.34985 0 0)
(2.34985 0 0)
(2.34985 0 0)
(2.34986 0 0)
(2.34986 0 0)
(2.34986 0 0)
(2.34986 0 0)
(2.34986 0 0)
(2.34986 0 0)
(2.34986 0 0)
(2.34986 0 0)
(2.34986 0 0)
(2.34986 0 0)
(2.34987 0 0)
(2.34987 0 0)
(2.34987 0 0)
(2.34987 0 0)
(2.34987 0 0)
(2.34987 0 0)
(2.34987 0 0)
(2.34987 0 0)
(2.34987 0 0)
(2.34987 0 0)
(2.34987 0 0)
(2.34987 0 0)
(2.34987 0 0)
(2.34987 0 0)
(2.34987 0 0)
(2.34987 0 0)
(2.34987 0 0)
(2.34987 0 0)
(2.34987 0 0)
(2.34987 0 0)
(2.34987 0 0)
(2.34987 0 0)
(2.34987 0 0)
(2.34987 0 0)
(2.34986 0 0)
(2.34986 0 0)
(2.34986 0 0)
(2.34986 0 0)
(2.34986 0 0)
(2.34986 0 0)
(2.34986 0 0)
(2.34986 0 0)
(2.34986 0 0)
(2.34986 0 0)
(2.34986 0 0)
(2.34986 0 0)
(2.34986 0 0)
(2.34985 0 0)
(2.34985 0 0)
(2.34985 0 0)
(2.34985 0 0)
(2.34985 0 0)
(2.34985 0 0)
(2.34985 0 0)
(2.34985 0 0)
(2.34985 0 0)
(2.34985 0 0)
(2.34985 0 0)
(2.34985 0 0)
(2.34985 0 0)
(2.34985 0 0)
(2.34985 0 0)
(2.34985 0 0)
(2.34985 0 0)
(2.34985 0 0)
(2.34985 0 0)
(2.34985 0 0)
(2.34985 0 0)
(2.34985 0 0)
(2.34984 0 0)
(2.34985 0 0)
(2.34986 0 0)
(2.34992 0 0)
(2.35016 0 0)
(2.35095 0 0)
(2.35346 0 0)
(2.361 0 0)
(2.38184 0 0)
(2.43451 0 0)
(2.55927 0 0)
(2.8401 0 0)
(3.42817 0 0)
(4.41941 0 0)
(5.63451 0 0)
(6.84885 0 0)
(7.94848 0 0)
(8.90529 0 0)
(9.71639 0 0)
(10.3966 0 0)
(10.9626 0 0)
(11.4178 0 0)
(11.7763 0 0)
(12.0679 0 0)
(12.3159 0 0)
(12.5317 0 0)
(12.7217 0 0)
(12.8906 0 0)
(13.042 0 0)
(13.1791 0 0)
(13.3041 0 0)
(13.4187 0 0)
(13.5244 0 0)
(13.6222 0 0)
(13.7132 0 0)
(13.7981 0 0)
(13.8776 0 0)
(13.9522 0 0)
(14.0224 0 0)
(14.0887 0 0)
(14.1514 0 0)
(14.2108 0 0)
(14.2672 0 0)
(14.3208 0 0)
(14.3719 0 0)
(14.4205 0 0)
(14.4669 0 0)
(14.5099 0 0)
(14.5503 0 0)
(14.5894 0 0)
(14.6272 0 0)
(14.6637 0 0)
(14.699 0 0)
(14.7332 0 0)
(14.7664 0 0)
(14.7985 0 0)
(14.8296 0 0)
(14.8598 0 0)
(14.8892 0 0)
(14.9177 0 0)
(14.9455 0 0)
(14.9725 0 0)
(14.9988 0 0)
(15.0243 0 0)
(15.0493 0 0)
(15.0736 0 0)
(15.0973 0 0)
(15.1204 0 0)
(15.143 0 0)
(15.165 0 0)
(15.1866 0 0)
(15.2076 0 0)
(15.2282 0 0)
(15.2483 0 0)
(15.268 0 0)
(15.2872 0 0)
(15.3061 0 0)
(15.3246 0 0)
(15.3426 0 0)
(15.3604 0 0)
(15.3777 0 0)
(15.3948 0 0)
(15.4115 0 0)
(15.4278 0 0)
(15.4439 0 0)
(15.4597 0 0)
(15.4752 0 0)
(15.4904 0 0)
(15.5053 0 0)
(15.52 0 0)
(15.5344 0 0)
(15.5485 0 0)
(15.5625 0 0)
(15.5762 0 0)
(15.5896 0 0)
(15.6029 0 0)
(15.6159 0 0)
(15.6287 0 0)
(15.6413 0 0)
(15.6537 0 0)
(15.6659 0 0)
(15.678 0 0)
(15.6898 0 0)
(15.7015 0 0)
(15.713 0 0)
(15.7243 0 0)
(15.7355 0 0)
(15.7464 0 0)
(15.7573 0 0)
(15.7679 0 0)
(15.7784 0 0)
(15.7887 0 0)
(15.7989 0 0)
(15.809 0 0)
(15.819 0 0)
(15.8288 0 0)
(15.8385 0 0)
(15.8481 0 0)
(15.8575 0 0)
(15.8668 0 0)
(15.876 0 0)
(15.8851 0 0)
(15.8941 0 0)
(15.9029 0 0)
(15.9117 0 0)
(15.9203 0 0)
(15.9288 0 0)
(15.9373 0 0)
(15.9456 0 0)
(15.9538 0 0)
(15.9619 0 0)
(15.97 0 0)
(15.9779 0 0)
(15.9857 0 0)
(15.9935 0 0)
(16.0012 0 0)
(16.0087 0 0)
(16.0162 0 0)
(16.0236 0 0)
(16.031 0 0)
(16.0382 0 0)
(16.0454 0 0)
(16.0524 0 0)
(16.0594 0 0)
(16.0664 0 0)
(16.0732 0 0)
(16.08 0 0)
(16.0867 0 0)
(16.0934 0 0)
(16.0999 0 0)
(16.1064 0 0)
(16.1129 0 0)
(16.1192 0 0)
(16.1255 0 0)
(16.1318 0 0)
(16.138 0 0)
(16.1441 0 0)
(16.1501 0 0)
(16.1561 0 0)
(16.162 0 0)
(16.1679 0 0)
(16.1737 0 0)
(16.1795 0 0)
(16.1852 0 0)
(16.1909 0 0)
(16.1965 0 0)
(16.202 0 0)
(16.2075 0 0)
(16.2129 0 0)
(16.2183 0 0)
(16.2237 0 0)
(16.229 0 0)
(16.2342 0 0)
(16.2394 0 0)
(16.2446 0 0)
(16.2497 0 0)
(16.2547 0 0)
(16.2598 0 0)
(16.2647 0 0)
(16.2697 0 0)
(16.2745 0 0)
(16.2794 0 0)
(16.2842 0 0)
(16.2889 0 0)
(16.2937 0 0)
(16.2983 0 0)
(16.303 0 0)
(16.3076 0 0)
(16.3121 0 0)
(16.3167 0 0)
(16.3211 0 0)
(16.3256 0 0)
(16.33 0 0)
(16.3344 0 0)
(16.3387 0 0)
(16.343 0 0)
(16.3473 0 0)
(16.3515 0 0)
(16.3557 0 0)
(16.3598 0 0)
(16.3639 0 0)
(16.368 0 0)
(16.3721 0 0)
(16.3761 0 0)
(16.3801 0 0)
(16.384 0 0)
(16.3879 0 0)
(16.3919 0 0)
(16.3957 0 0)
(16.3994 0 0)
(16.4031 0 0)
(16.407 0 0)
(16.4108 0 0)
(16.4145 0 0)
(16.4181 0 0)
(16.4218 0 0)
(16.4254 0 0)
(16.4289 0 0)
(16.4325 0 0)
(16.436 0 0)
(16.4395 0 0)
(16.4429 0 0)
(16.4464 0 0)
(16.4498 0 0)
(16.4532 0 0)
(16.4566 0 0)
(16.46 0 0)
(16.4633 0 0)
(16.4666 0 0)
(16.4699 0 0)
(16.4732 0 0)
(16.4764 0 0)
(16.4793 0 0)
(16.4819 0 0)
(16.4837 0 0)
)
;

boundaryField
{
    boundary
    {
        type            empty;
    }
    inlet
    {
        type            fixedValue;
        value           uniform (2.34893 0 0);
    }
    outlet
    {
        type            zeroGradient;
    }
}


// ************************************************************************* //
