/*--------------------------------*- C++ -*----------------------------------*\
  =========                 |
  \\      /  F ield         | OpenFOAM: The Open Source CFD Toolbox
   \\    /   O peration     | Website:  https://openfoam.org
    \\  /    A nd           | Version:  7
     \\/     M anipulation  |
\*---------------------------------------------------------------------------*/
FoamFile
{
    version     2.0;
    format      ascii;
    class       volScalarField;
    location    "0.00087";
    object      T;
}
// * * * * * * * * * * * * * * * * * * * * * * * * * * * * * * * * * * * * * //

dimensions      [0 0 0 1 0 0 0];

internalField   nonuniform List<scalar> 
125
(
300.001
300.002
300.002
300.003
300.004
300.004
300.005
300.005
300.005
300.004
300.003
300.002
300
299.997
299.994
299.991
299.987
299.984
299.98
299.976
299.973
299.97
299.967
299.965
299.963
299.962
299.962
299.962
299.963
299.966
299.968
299.972
299.977
299.982
299.989
299.997
300.006
300.016
300.027
300.04
300.054
300.07
300.088
300.109
300.131
300.155
300.182
300.211
300.243
300.277
300.314
300.353
300.394
300.437
300.482
300.529
300.577
300.627
300.677
300.727
300.778
300.829
300.878
300.927
300.975
301.022
301.066
301.109
301.149
301.187
301.223
301.256
301.286
301.314
301.34
301.363
301.384
301.403
301.419
301.434
301.446
301.457
301.467
301.475
301.482
301.488
301.493
301.498
301.501
301.504
301.506
301.508
301.51
301.511
301.512
301.513
301.514
301.514
301.515
301.515
301.515
301.516
301.516
301.516
301.516
301.516
301.516
301.516
301.516
301.516
301.516
301.517
301.517
301.517
301.517
301.517
301.517
301.517
301.517
301.517
301.517
301.517
301.517
301.517
301.517
)
;

boundaryField
{
    boundary
    {
        type            empty;
    }
    inlet
    {
        type            fixedValue;
        value           uniform 300;
    }
    outlet
    {
        type            zeroGradient;
    }
    procBoundary2to3
    {
        type            processor;
        value           uniform 301.517;
    }
}


// ************************************************************************* //
