/*--------------------------------*- C++ -*----------------------------------*\
  =========                 |
  \\      /  F ield         | OpenFOAM: The Open Source CFD Toolbox
   \\    /   O peration     | Website:  https://openfoam.org
    \\  /    A nd           | Version:  7
     \\/     M anipulation  |
\*---------------------------------------------------------------------------*/
FoamFile
{
    version     2.0;
    format      ascii;
    class       volScalarField;
    location    "2e-05";
    object      H;
}
// * * * * * * * * * * * * * * * * * * * * * * * * * * * * * * * * * * * * * //

dimensions      [0 0 0 0 0 0 0];

internalField   nonuniform List<scalar> 
125
(
1.43223e-41
2.05345e-41
2.21611e-41
2.25855e-41
2.26969e-41
2.27275e-41
2.27376e-41
2.27429e-41
2.27472e-41
2.27517e-41
2.27565e-41
2.27618e-41
2.27676e-41
2.27738e-41
2.27805e-41
2.27877e-41
2.27954e-41
2.28035e-41
2.28121e-41
2.28211e-41
2.28307e-41
2.28407e-41
2.28511e-41
2.28621e-41
2.28735e-41
2.28853e-41
2.28977e-41
2.29105e-41
2.29237e-41
2.29374e-41
2.29516e-41
2.29663e-41
2.29813e-41
2.29969e-41
2.30129e-41
2.30293e-41
2.30462e-41
2.30636e-41
2.30813e-41
2.30995e-41
2.31182e-41
2.31372e-41
2.31567e-41
2.31767e-41
2.3197e-41
2.32177e-41
2.32389e-41
2.32604e-41
2.32824e-41
2.33047e-41
2.33274e-41
2.33505e-41
2.3374e-41
2.33978e-41
2.3422e-41
2.34465e-41
2.34713e-41
2.34965e-41
2.3522e-41
2.35478e-41
2.35738e-41
2.36002e-41
2.36269e-41
2.36538e-41
2.36809e-41
2.37083e-41
2.37359e-41
2.37638e-41
2.37918e-41
2.382e-41
2.38483e-41
2.38768e-41
2.39055e-41
2.39343e-41
2.39631e-41
2.39921e-41
2.40211e-41
2.40501e-41
2.40792e-41
2.41083e-41
2.41374e-41
2.41664e-41
2.41954e-41
2.42243e-41
2.42532e-41
2.42819e-41
2.43104e-41
2.43388e-41
2.4367e-41
2.43951e-41
2.44228e-41
2.44504e-41
2.44776e-41
2.45046e-41
2.45312e-41
2.45574e-41
2.45833e-41
2.46088e-41
2.46339e-41
2.46585e-41
2.46827e-41
2.47064e-41
2.47295e-41
2.47521e-41
2.47741e-41
2.47956e-41
2.48164e-41
2.48366e-41
2.48561e-41
2.4875e-41
2.48932e-41
2.49106e-41
2.49273e-41
2.49432e-41
2.49584e-41
2.49728e-41
2.49863e-41
2.49991e-41
2.5011e-41
2.5022e-41
2.50322e-41
2.50417e-41
2.5051e-41
2.50622e-41
2.50805e-41
)
;

boundaryField
{
    boundary
    {
        type            empty;
    }
    inlet
    {
        type            fixedValue;
        value           uniform 0;
    }
    outlet
    {
        type            zeroGradient;
    }
    procBoundary2to3
    {
        type            processor;
        value           uniform 2.50969e-41;
    }
}


// ************************************************************************* //
