/*--------------------------------*- C++ -*----------------------------------*\
  =========                 |
  \\      /  F ield         | OpenFOAM: The Open Source CFD Toolbox
   \\    /   O peration     | Website:  https://openfoam.org
    \\  /    A nd           | Version:  7
     \\/     M anipulation  |
\*---------------------------------------------------------------------------*/
FoamFile
{
    version     2.0;
    format      ascii;
    class       volScalarField;
    location    "2e-05";
    object      H2O;
}
// * * * * * * * * * * * * * * * * * * * * * * * * * * * * * * * * * * * * * //

dimensions      [0 0 0 0 0 0 0];

internalField   nonuniform List<scalar> 
125
(
4.2736e-48
8.80506e-48
1.15607e-47
1.29325e-47
1.35225e-47
1.3749e-47
1.38286e-47
1.38548e-47
1.38631e-47
1.38658e-47
1.3867e-47
1.38678e-47
1.38685e-47
1.38692e-47
1.387e-47
1.38708e-47
1.38717e-47
1.38727e-47
1.38737e-47
1.38747e-47
1.38758e-47
1.3877e-47
1.38782e-47
1.38795e-47
1.38809e-47
1.38823e-47
1.38838e-47
1.38853e-47
1.38869e-47
1.38886e-47
1.38903e-47
1.38921e-47
1.3894e-47
1.38959e-47
1.38979e-47
1.38999e-47
1.3902e-47
1.39042e-47
1.39065e-47
1.39088e-47
1.39112e-47
1.39137e-47
1.39162e-47
1.39188e-47
1.39215e-47
1.39242e-47
1.39271e-47
1.393e-47
1.39329e-47
1.3936e-47
1.39391e-47
1.39423e-47
1.39456e-47
1.3949e-47
1.39524e-47
1.39559e-47
1.39595e-47
1.39632e-47
1.3967e-47
1.39708e-47
1.39748e-47
1.39788e-47
1.39829e-47
1.39871e-47
1.39914e-47
1.39957e-47
1.40002e-47
1.40047e-47
1.40093e-47
1.4014e-47
1.40188e-47
1.40237e-47
1.40287e-47
1.40338e-47
1.4039e-47
1.40442e-47
1.40496e-47
1.4055e-47
1.40606e-47
1.40662e-47
1.40719e-47
1.40777e-47
1.40837e-47
1.40897e-47
1.40958e-47
1.4102e-47
1.41083e-47
1.41146e-47
1.41211e-47
1.41277e-47
1.41344e-47
1.41411e-47
1.4148e-47
1.41549e-47
1.4162e-47
1.41691e-47
1.41763e-47
1.41836e-47
1.4191e-47
1.41985e-47
1.42061e-47
1.42138e-47
1.42216e-47
1.42294e-47
1.42374e-47
1.42454e-47
1.42535e-47
1.42617e-47
1.427e-47
1.42783e-47
1.42868e-47
1.42953e-47
1.43039e-47
1.43126e-47
1.43213e-47
1.43302e-47
1.43391e-47
1.4348e-47
1.43571e-47
1.43661e-47
1.43748e-47
1.43815e-47
1.43753e-47
1.42971e-47
1.38473e-47
)
;

boundaryField
{
    boundary
    {
        type            empty;
    }
    inlet
    {
        type            fixedValue;
        value           uniform 0;
    }
    outlet
    {
        type            zeroGradient;
    }
    procBoundary2to3
    {
        type            processor;
        value           uniform 1.33284e-47;
    }
}


// ************************************************************************* //
