/*--------------------------------*- C++ -*----------------------------------*\
  =========                 |
  \\      /  F ield         | OpenFOAM: The Open Source CFD Toolbox
   \\    /   O peration     | Website:  https://openfoam.org
    \\  /    A nd           | Version:  7
     \\/     M anipulation  |
\*---------------------------------------------------------------------------*/
FoamFile
{
    version     2.0;
    format      ascii;
    class       volScalarField;
    location    "2e-05";
    object      H2O2;
}
// * * * * * * * * * * * * * * * * * * * * * * * * * * * * * * * * * * * * * //

dimensions      [0 0 0 0 0 0 0];

internalField   nonuniform List<scalar> 
125
(
7.85086e-53
1.61788e-52
2.11985e-52
2.36452e-52
2.46676e-52
2.50471e-52
2.51756e-52
2.52164e-52
2.52293e-52
2.52338e-52
2.52362e-52
2.5238e-52
2.52399e-52
2.52419e-52
2.5244e-52
2.52463e-52
2.52487e-52
2.52513e-52
2.52541e-52
2.5257e-52
2.526e-52
2.52633e-52
2.52666e-52
2.52702e-52
2.52739e-52
2.52778e-52
2.52818e-52
2.5286e-52
2.52904e-52
2.52949e-52
2.52996e-52
2.53045e-52
2.53095e-52
2.53148e-52
2.53201e-52
2.53257e-52
2.53315e-52
2.53374e-52
2.53435e-52
2.53498e-52
2.53562e-52
2.53629e-52
2.53697e-52
2.53767e-52
2.53839e-52
2.53913e-52
2.53988e-52
2.54066e-52
2.54145e-52
2.54227e-52
2.5431e-52
2.54396e-52
2.54483e-52
2.54572e-52
2.54663e-52
2.54757e-52
2.54852e-52
2.54949e-52
2.55048e-52
2.55149e-52
2.55253e-52
2.55358e-52
2.55465e-52
2.55575e-52
2.55686e-52
2.558e-52
2.55915e-52
2.56033e-52
2.56153e-52
2.56275e-52
2.56399e-52
2.56525e-52
2.56653e-52
2.56783e-52
2.56915e-52
2.57049e-52
2.57186e-52
2.57324e-52
2.57465e-52
2.57607e-52
2.57752e-52
2.57898e-52
2.58047e-52
2.58197e-52
2.5835e-52
2.58505e-52
2.58661e-52
2.5882e-52
2.5898e-52
2.59142e-52
2.59307e-52
2.59473e-52
2.59641e-52
2.59811e-52
2.59982e-52
2.60155e-52
2.6033e-52
2.60507e-52
2.60686e-52
2.60866e-52
2.61047e-52
2.61231e-52
2.61415e-52
2.61602e-52
2.6179e-52
2.61979e-52
2.62169e-52
2.62361e-52
2.62554e-52
2.62749e-52
2.62944e-52
2.63141e-52
2.63339e-52
2.63538e-52
2.63738e-52
2.63939e-52
2.6414e-52
2.64343e-52
2.64546e-52
2.6475e-52
2.64952e-52
2.6514e-52
2.65222e-52
2.64567e-52
2.58642e-52
)
;

boundaryField
{
    boundary
    {
        type            empty;
    }
    inlet
    {
        type            fixedValue;
        value           uniform 0;
    }
    outlet
    {
        type            zeroGradient;
    }
    procBoundary2to3
    {
        type            processor;
        value           uniform 2.5163e-52;
    }
}


// ************************************************************************* //
