/*--------------------------------*- C++ -*----------------------------------*\
  =========                 |
  \\      /  F ield         | OpenFOAM: The Open Source CFD Toolbox
   \\    /   O peration     | Website:  https://openfoam.org
    \\  /    A nd           | Version:  7
     \\/     M anipulation  |
\*---------------------------------------------------------------------------*/
FoamFile
{
    version     2.0;
    format      ascii;
    class       volScalarField;
    location    "2e-05";
    object      HO2;
}
// * * * * * * * * * * * * * * * * * * * * * * * * * * * * * * * * * * * * * //

dimensions      [0 0 0 0 0 0 0];

internalField   nonuniform List<scalar> 
125
(
4.06212e-38
7.28639e-38
8.96211e-38
9.70906e-38
1.00032e-37
1.0108e-37
1.01425e-37
1.01532e-37
1.01566e-37
1.01579e-37
1.01586e-37
1.01592e-37
1.01599e-37
1.01606e-37
1.01613e-37
1.01621e-37
1.01629e-37
1.01638e-37
1.01647e-37
1.01657e-37
1.01667e-37
1.01678e-37
1.0169e-37
1.01702e-37
1.01715e-37
1.01728e-37
1.01742e-37
1.01756e-37
1.01771e-37
1.01786e-37
1.01802e-37
1.01819e-37
1.01836e-37
1.01854e-37
1.01872e-37
1.01891e-37
1.01911e-37
1.01931e-37
1.01951e-37
1.01973e-37
1.01995e-37
1.02017e-37
1.0204e-37
1.02064e-37
1.02089e-37
1.02114e-37
1.02139e-37
1.02166e-37
1.02193e-37
1.0222e-37
1.02248e-37
1.02277e-37
1.02307e-37
1.02337e-37
1.02368e-37
1.02399e-37
1.02432e-37
1.02464e-37
1.02498e-37
1.02532e-37
1.02567e-37
1.02602e-37
1.02639e-37
1.02675e-37
1.02713e-37
1.02751e-37
1.0279e-37
1.02829e-37
1.0287e-37
1.02911e-37
1.02952e-37
1.02994e-37
1.03037e-37
1.03081e-37
1.03125e-37
1.0317e-37
1.03215e-37
1.03261e-37
1.03308e-37
1.03356e-37
1.03404e-37
1.03453e-37
1.03502e-37
1.03552e-37
1.03602e-37
1.03654e-37
1.03705e-37
1.03758e-37
1.03811e-37
1.03864e-37
1.03918e-37
1.03973e-37
1.04028e-37
1.04084e-37
1.0414e-37
1.04197e-37
1.04254e-37
1.04312e-37
1.0437e-37
1.04429e-37
1.04488e-37
1.04547e-37
1.04607e-37
1.04668e-37
1.04728e-37
1.04789e-37
1.04851e-37
1.04913e-37
1.04975e-37
1.05037e-37
1.05099e-37
1.05162e-37
1.05225e-37
1.05289e-37
1.05352e-37
1.05416e-37
1.0548e-37
1.05544e-37
1.05608e-37
1.05672e-37
1.05735e-37
1.05794e-37
1.05824e-37
1.05644e-37
1.03999e-37
)
;

boundaryField
{
    boundary
    {
        type            empty;
    }
    inlet
    {
        type            fixedValue;
        value           uniform 0;
    }
    outlet
    {
        type            zeroGradient;
    }
    procBoundary2to3
    {
        type            processor;
        value           uniform 1.02018e-37;
    }
}


// ************************************************************************* //
