/*--------------------------------*- C++ -*----------------------------------*\
  =========                 |
  \\      /  F ield         | OpenFOAM: The Open Source CFD Toolbox
   \\    /   O peration     | Website:  https://openfoam.org
    \\  /    A nd           | Version:  7
     \\/     M anipulation  |
\*---------------------------------------------------------------------------*/
FoamFile
{
    version     2.0;
    format      ascii;
    class       volScalarField;
    location    "2e-05";
    object      O;
}
// * * * * * * * * * * * * * * * * * * * * * * * * * * * * * * * * * * * * * //

dimensions      [0 0 0 0 0 0 0];

internalField   nonuniform List<scalar> 
125
(
1.13216e-47
2.14721e-47
2.7091e-47
2.97868e-47
3.09381e-47
3.1385e-47
3.15456e-47
3.16002e-47
3.16185e-47
3.16253e-47
3.16288e-47
3.16313e-47
3.16338e-47
3.16364e-47
3.16392e-47
3.16422e-47
3.16454e-47
3.16488e-47
3.16524e-47
3.16562e-47
3.16602e-47
3.16644e-47
3.16688e-47
3.16735e-47
3.16783e-47
3.16834e-47
3.16887e-47
3.16942e-47
3.16999e-47
3.17058e-47
3.1712e-47
3.17184e-47
3.1725e-47
3.17318e-47
3.17389e-47
3.17462e-47
3.17537e-47
3.17614e-47
3.17694e-47
3.17777e-47
3.17861e-47
3.17948e-47
3.18038e-47
3.1813e-47
3.18224e-47
3.18321e-47
3.1842e-47
3.18522e-47
3.18626e-47
3.18733e-47
3.18843e-47
3.18954e-47
3.19069e-47
3.19186e-47
3.19306e-47
3.19428e-47
3.19553e-47
3.1968e-47
3.19811e-47
3.19943e-47
3.20079e-47
3.20217e-47
3.20358e-47
3.20501e-47
3.20648e-47
3.20797e-47
3.20948e-47
3.21103e-47
3.2126e-47
3.21419e-47
3.21582e-47
3.21747e-47
3.21915e-47
3.22085e-47
3.22258e-47
3.22434e-47
3.22613e-47
3.22794e-47
3.22978e-47
3.23164e-47
3.23353e-47
3.23545e-47
3.23739e-47
3.23936e-47
3.24135e-47
3.24337e-47
3.24541e-47
3.24748e-47
3.24957e-47
3.25168e-47
3.25382e-47
3.25598e-47
3.25816e-47
3.26037e-47
3.2626e-47
3.26485e-47
3.26711e-47
3.2694e-47
3.27171e-47
3.27404e-47
3.27639e-47
3.27875e-47
3.28114e-47
3.28354e-47
3.28595e-47
3.28839e-47
3.29083e-47
3.29329e-47
3.29577e-47
3.29825e-47
3.30075e-47
3.30326e-47
3.30578e-47
3.30831e-47
3.31085e-47
3.3134e-47
3.31595e-47
3.31851e-47
3.32108e-47
3.32363e-47
3.3261e-47
3.32818e-47
3.32867e-47
3.3236e-47
3.29291e-47
)
;

boundaryField
{
    boundary
    {
        type            empty;
    }
    inlet
    {
        type            fixedValue;
        value           uniform 0;
    }
    outlet
    {
        type            zeroGradient;
    }
    procBoundary2to3
    {
        type            processor;
        value           uniform 3.26877e-47;
    }
}


// ************************************************************************* //
