/*--------------------------------*- C++ -*----------------------------------*\
  =========                 |
  \\      /  F ield         | OpenFOAM: The Open Source CFD Toolbox
   \\    /   O peration     | Website:  https://openfoam.org
    \\  /    A nd           | Version:  7
     \\/     M anipulation  |
\*---------------------------------------------------------------------------*/
FoamFile
{
    version     2.0;
    format      ascii;
    class       volScalarField;
    location    "2e-05";
    object      OH;
}
// * * * * * * * * * * * * * * * * * * * * * * * * * * * * * * * * * * * * * //

dimensions      [0 0 0 0 0 0 0];

internalField   nonuniform List<scalar> 
125
(
8.28853e-48
1.48265e-47
1.81433e-47
1.96373e-47
2.02458e-47
2.04737e-47
2.05535e-47
2.05803e-47
2.05896e-47
2.05933e-47
2.05956e-47
2.05975e-47
2.05995e-47
2.06015e-47
2.06038e-47
2.06062e-47
2.06087e-47
2.06114e-47
2.06143e-47
2.06174e-47
2.06206e-47
2.0624e-47
2.06275e-47
2.06312e-47
2.06351e-47
2.06392e-47
2.06434e-47
2.06478e-47
2.06524e-47
2.06571e-47
2.06621e-47
2.06672e-47
2.06725e-47
2.06779e-47
2.06836e-47
2.06894e-47
2.06954e-47
2.07016e-47
2.0708e-47
2.07145e-47
2.07213e-47
2.07282e-47
2.07354e-47
2.07427e-47
2.07502e-47
2.07579e-47
2.07658e-47
2.07739e-47
2.07822e-47
2.07907e-47
2.07994e-47
2.08083e-47
2.08173e-47
2.08266e-47
2.08361e-47
2.08458e-47
2.08557e-47
2.08658e-47
2.08761e-47
2.08866e-47
2.08973e-47
2.09082e-47
2.09193e-47
2.09307e-47
2.09422e-47
2.09539e-47
2.09659e-47
2.0978e-47
2.09904e-47
2.10029e-47
2.10157e-47
2.10286e-47
2.10418e-47
2.10551e-47
2.10687e-47
2.10824e-47
2.10964e-47
2.11105e-47
2.11249e-47
2.11394e-47
2.11541e-47
2.1169e-47
2.11841e-47
2.11994e-47
2.12148e-47
2.12305e-47
2.12463e-47
2.12622e-47
2.12784e-47
2.12947e-47
2.13112e-47
2.13278e-47
2.13445e-47
2.13615e-47
2.13785e-47
2.13957e-47
2.14131e-47
2.14305e-47
2.14481e-47
2.14658e-47
2.14837e-47
2.15016e-47
2.15196e-47
2.15378e-47
2.1556e-47
2.15743e-47
2.15927e-47
2.16111e-47
2.16297e-47
2.16483e-47
2.16669e-47
2.16856e-47
2.17043e-47
2.1723e-47
2.17418e-47
2.17606e-47
2.17794e-47
2.17982e-47
2.18169e-47
2.18356e-47
2.18539e-47
2.18705e-47
2.18793e-47
2.18559e-47
2.16694e-47
)
;

boundaryField
{
    boundary
    {
        type            empty;
    }
    inlet
    {
        type            fixedValue;
        value           uniform 0;
    }
    outlet
    {
        type            zeroGradient;
    }
    procBoundary2to3
    {
        type            processor;
        value           uniform 2.15266e-47;
    }
}


// ************************************************************************* //
