/*--------------------------------*- C++ -*----------------------------------*\
  =========                 |
  \\      /  F ield         | OpenFOAM: The Open Source CFD Toolbox
   \\    /   O peration     | Website:  https://openfoam.org
    \\  /    A nd           | Version:  7
     \\/     M anipulation  |
\*---------------------------------------------------------------------------*/
FoamFile
{
    version     2.0;
    format      ascii;
    class       volScalarField;
    location    "2e-05";
    object      p;
}
// * * * * * * * * * * * * * * * * * * * * * * * * * * * * * * * * * * * * * //

dimensions      [1 -1 -2 0 0 0 0];

internalField   nonuniform List<scalar> 
125
(
101724
101724
101724
101724
101725
101725
101726
101726
101727
101728
101729
101729
101730
101731
101733
101734
101735
101736
101738
101739
101741
101742
101744
101746
101747
101749
101751
101753
101755
101757
101759
101761
101763
101765
101767
101769
101772
101774
101776
101778
101781
101783
101785
101788
101790
101792
101794
101797
101799
101801
101804
101806
101808
101810
101812
101815
101817
101819
101821
101823
101825
101827
101828
101830
101832
101833
101835
101837
101838
101839
101841
101842
101843
101844
101845
101846
101847
101848
101848
101849
101849
101849
101850
101850
101850
101850
101850
101850
101849
101849
101848
101848
101847
101846
101845
101844
101843
101842
101840
101839
101838
101836
101834
101833
101831
101829
101827
101825
101823
101821
101818
101816
101814
101811
101809
101807
101804
101801
101799
101796
101794
101791
101789
101786
101783
)
;

boundaryField
{
    boundary
    {
        type            empty;
    }
    inlet
    {
        type            zeroGradient;
    }
    outlet
    {
        type            waveTransmissive;
        gamma           1.4;
        value           nonuniform 0();
    }
    procBoundary2to3
    {
        type            processor;
        value           uniform 101781;
    }
}


// ************************************************************************* //
