/*--------------------------------*- C++ -*----------------------------------*\
  =========                 |
  \\      /  F ield         | OpenFOAM: The Open Source CFD Toolbox
   \\    /   O peration     | Website:  https://openfoam.org
    \\  /    A nd           | Version:  7
     \\/     M anipulation  |
\*---------------------------------------------------------------------------*/
FoamFile
{
    version     2.0;
    format      ascii;
    class       surfaceScalarField;
    location    "2e-05";
    object      phi;
}
// * * * * * * * * * * * * * * * * * * * * * * * * * * * * * * * * * * * * * //

dimensions      [1 0 -1 0 0 0 0];

internalField   nonuniform List<scalar> 
124
(
6.76406e-06
6.69744e-06
6.63222e-06
6.5674e-06
6.50272e-06
6.43811e-06
6.37358e-06
6.30914e-06
6.2448e-06
6.18057e-06
6.11646e-06
6.0525e-06
5.98868e-06
5.92504e-06
5.86157e-06
5.7983e-06
5.73524e-06
5.6724e-06
5.6098e-06
5.54745e-06
5.48537e-06
5.42358e-06
5.36208e-06
5.3009e-06
5.24005e-06
5.17956e-06
5.11942e-06
5.05967e-06
5.00031e-06
4.94137e-06
4.88286e-06
4.8248e-06
4.76721e-06
4.71011e-06
4.65351e-06
4.59743e-06
4.5419e-06
4.48692e-06
4.43253e-06
4.37873e-06
4.32555e-06
4.273e-06
4.22111e-06
4.16989e-06
4.11937e-06
4.06957e-06
4.02049e-06
3.97217e-06
3.92462e-06
3.87786e-06
3.83192e-06
3.7868e-06
3.74253e-06
3.69913e-06
3.65662e-06
3.61501e-06
3.57432e-06
3.53457e-06
3.49578e-06
3.45796e-06
3.42114e-06
3.38533e-06
3.35053e-06
3.31678e-06
3.28408e-06
3.25244e-06
3.22189e-06
3.19243e-06
3.16407e-06
3.13683e-06
3.11072e-06
3.08575e-06
3.06192e-06
3.03924e-06
3.01772e-06
2.99737e-06
2.97819e-06
2.96018e-06
2.94335e-06
2.9277e-06
2.91323e-06
2.89994e-06
2.88783e-06
2.87689e-06
2.86711e-06
2.8585e-06
2.85105e-06
2.84475e-06
2.83958e-06
2.83554e-06
2.83262e-06
2.83079e-06
2.83005e-06
2.83038e-06
2.83176e-06
2.83417e-06
2.83759e-06
2.842e-06
2.84737e-06
2.85368e-06
2.8609e-06
2.869e-06
2.87796e-06
2.88774e-06
2.89832e-06
2.90965e-06
2.92171e-06
2.93445e-06
2.94785e-06
2.96186e-06
2.97645e-06
2.99157e-06
3.00719e-06
3.02326e-06
3.03974e-06
3.05659e-06
3.07376e-06
3.09121e-06
3.10889e-06
3.12677e-06
3.14478e-06
3.1629e-06
3.18106e-06
3.19922e-06
)
;

boundaryField
{
    boundary
    {
        type            empty;
        value           nonuniform 0();
    }
    inlet
    {
        type            calculated;
        value           uniform -6.83575e-06;
    }
    outlet
    {
        type            calculated;
        value           nonuniform 0();
    }
    procBoundary2to3
    {
        type            processor;
        value           uniform 3.21737e-06;
    }
}


// ************************************************************************* //
