/*--------------------------------*- C++ -*----------------------------------*\
  =========                 |
  \\      /  F ield         | OpenFOAM: The Open Source CFD Toolbox
   \\    /   O peration     | Website:  https://openfoam.org
    \\  /    A nd           | Version:  7
     \\/     M anipulation  |
\*---------------------------------------------------------------------------*/
FoamFile
{
    version     2.0;
    format      ascii;
    class       volScalarField;
    location    "2e-05";
    object      Qdot;
}
// * * * * * * * * * * * * * * * * * * * * * * * * * * * * * * * * * * * * * //

dimensions      [1 -1 -3 0 0 0 0];

internalField   nonuniform List<scalar> 
125
(
-2.41506e-27
-1.93446e-27
-1.80904e-27
-1.7765e-27
-1.76824e-27
-1.76635e-27
-1.76615e-27
-1.76644e-27
-1.76689e-27
-1.76743e-27
-1.76803e-27
-1.76869e-27
-1.76941e-27
-1.77019e-27
-1.77102e-27
-1.77191e-27
-1.77285e-27
-1.77385e-27
-1.77491e-27
-1.77602e-27
-1.77718e-27
-1.7784e-27
-1.77967e-27
-1.78099e-27
-1.78237e-27
-1.7838e-27
-1.78528e-27
-1.7868e-27
-1.78838e-27
-1.79001e-27
-1.79169e-27
-1.79341e-27
-1.79518e-27
-1.797e-27
-1.79886e-27
-1.80077e-27
-1.80271e-27
-1.8047e-27
-1.80674e-27
-1.80881e-27
-1.81092e-27
-1.81306e-27
-1.81524e-27
-1.81746e-27
-1.81971e-27
-1.822e-27
-1.82431e-27
-1.82665e-27
-1.82902e-27
-1.83142e-27
-1.83384e-27
-1.83628e-27
-1.83874e-27
-1.84122e-27
-1.84372e-27
-1.84623e-27
-1.84876e-27
-1.8513e-27
-1.85384e-27
-1.85639e-27
-1.85895e-27
-1.86151e-27
-1.86406e-27
-1.86662e-27
-1.86917e-27
-1.87171e-27
-1.87424e-27
-1.87676e-27
-1.87927e-27
-1.88175e-27
-1.88422e-27
-1.88666e-27
-1.88907e-27
-1.89146e-27
-1.89381e-27
-1.89613e-27
-1.89841e-27
-1.90065e-27
-1.90285e-27
-1.905e-27
-1.9071e-27
-1.90915e-27
-1.91114e-27
-1.91308e-27
-1.91495e-27
-1.91676e-27
-1.9185e-27
-1.92017e-27
-1.92177e-27
-1.9233e-27
-1.92474e-27
-1.9261e-27
-1.92738e-27
-1.92858e-27
-1.92968e-27
-1.93069e-27
-1.93161e-27
-1.93244e-27
-1.93316e-27
-1.93379e-27
-1.93431e-27
-1.93473e-27
-1.93505e-27
-1.93525e-27
-1.93535e-27
-1.93534e-27
-1.93522e-27
-1.93499e-27
-1.93464e-27
-1.93418e-27
-1.93361e-27
-1.93293e-27
-1.93213e-27
-1.93122e-27
-1.9302e-27
-1.92906e-27
-1.92781e-27
-1.92646e-27
-1.92499e-27
-1.92342e-27
-1.92174e-27
-1.91993e-27
-1.9179e-27
-1.91507e-27
-1.90878e-27
)
;

boundaryField
{
    boundary
    {
        type            empty;
    }
    inlet
    {
        type            calculated;
        value           uniform 0;
    }
    outlet
    {
        type            calculated;
        value           nonuniform 0();
    }
    procBoundary2to3
    {
        type            processor;
        value           uniform 0;
    }
}


// ************************************************************************* //
