/*--------------------------------*- C++ -*----------------------------------*\
  =========                 |
  \\      /  F ield         | OpenFOAM: The Open Source CFD Toolbox
   \\    /   O peration     | Website:  https://openfoam.org
    \\  /    A nd           | Version:  7
     \\/     M anipulation  |
\*---------------------------------------------------------------------------*/
FoamFile
{
    version     2.0;
    format      ascii;
    class       volScalarField;
    location    "2e-05";
    object      T;
}
// * * * * * * * * * * * * * * * * * * * * * * * * * * * * * * * * * * * * * //

dimensions      [0 0 0 1 0 0 0];

internalField   nonuniform List<scalar> 
125
(
300.153
300.21
300.225
300.229
300.23
300.23
300.231
300.232
300.232
300.233
300.234
300.235
300.236
300.237
300.238
300.239
300.241
300.242
300.243
300.245
300.247
300.248
300.25
300.252
300.254
300.256
300.258
300.26
300.262
300.264
300.266
300.269
300.271
300.274
300.276
300.279
300.281
300.284
300.287
300.289
300.292
300.295
300.298
300.301
300.304
300.307
300.31
300.313
300.316
300.319
300.322
300.325
300.328
300.331
300.334
300.337
300.341
300.344
300.347
300.35
300.353
300.356
300.36
300.363
300.366
300.369
300.372
300.375
300.378
300.381
300.384
300.387
300.389
300.392
300.395
300.398
300.4
300.403
300.405
300.408
300.41
300.413
300.415
300.417
300.419
300.421
300.423
300.425
300.427
300.428
300.43
300.432
300.433
300.434
300.436
300.437
300.438
300.439
300.44
300.44
300.441
300.442
300.442
300.442
300.443
300.443
300.443
300.443
300.442
300.442
300.442
300.441
300.441
300.44
300.439
300.438
300.437
300.436
300.435
300.434
300.432
300.431
300.43
300.428
300.426
)
;

boundaryField
{
    boundary
    {
        type            empty;
    }
    inlet
    {
        type            fixedValue;
        value           uniform 300;
    }
    outlet
    {
        type            zeroGradient;
    }
    procBoundary2to3
    {
        type            processor;
        value           uniform 300.425;
    }
}


// ************************************************************************* //
