/*--------------------------------*- C++ -*----------------------------------*\
  =========                 |
  \\      /  F ield         | OpenFOAM: The Open Source CFD Toolbox
   \\    /   O peration     | Website:  https://openfoam.org
    \\  /    A nd           | Version:  7
     \\/     M anipulation  |
\*---------------------------------------------------------------------------*/
FoamFile
{
    version     2.0;
    format      ascii;
    class       volVectorField;
    location    "2e-05";
    object      U;
}
// * * * * * * * * * * * * * * * * * * * * * * * * * * * * * * * * * * * * * //

dimensions      [0 1 -1 0 0 0 0];

internalField   nonuniform List<vector> 
125
(
(2.33984 0 0)
(2.31449 0 0)
(2.29178 0 0)
(2.26957 0 0)
(2.24732 0 0)
(2.22509 0 0)
(2.20288 0 0)
(2.18069 0 0)
(2.15854 0 0)
(2.13642 0 0)
(2.11435 0 0)
(2.09231 0 0)
(2.07033 0 0)
(2.0484 0 0)
(2.02653 0 0)
(2.00473 0 0)
(1.98299 0 0)
(1.96133 0 0)
(1.93974 0 0)
(1.91824 0 0)
(1.89683 0 0)
(1.87552 0 0)
(1.8543 0 0)
(1.83319 0 0)
(1.81219 0 0)
(1.79131 0 0)
(1.77055 0 0)
(1.74992 0 0)
(1.72942 0 0)
(1.70906 0 0)
(1.68885 0 0)
(1.66879 0 0)
(1.64889 0 0)
(1.62915 0 0)
(1.60959 0 0)
(1.5902 0 0)
(1.57099 0 0)
(1.55198 0 0)
(1.53315 0 0)
(1.51454 0 0)
(1.49613 0 0)
(1.47794 0 0)
(1.45996 0 0)
(1.44222 0 0)
(1.42472 0 0)
(1.40746 0 0)
(1.39044 0 0)
(1.37369 0 0)
(1.35719 0 0)
(1.34097 0 0)
(1.32502 0 0)
(1.30935 0 0)
(1.29397 0 0)
(1.27889 0 0)
(1.26411 0 0)
(1.24964 0 0)
(1.23549 0 0)
(1.22165 0 0)
(1.20814 0 0)
(1.19497 0 0)
(1.18213 0 0)
(1.16964 0 0)
(1.1575 0 0)
(1.14571 0 0)
(1.13428 0 0)
(1.12322 0 0)
(1.11253 0 0)
(1.10221 0 0)
(1.09227 0 0)
(1.08271 0 0)
(1.07354 0 0)
(1.06476 0 0)
(1.05637 0 0)
(1.04838 0 0)
(1.04078 0 0)
(1.03359 0 0)
(1.02679 0 0)
(1.02041 0 0)
(1.01442 0 0)
(1.00884 0 0)
(1.00367 0 0)
(0.998906 0 0)
(0.994545 0 0)
(0.990588 0 0)
(0.987035 0 0)
(0.983884 0 0)
(0.981132 0 0)
(0.978776 0 0)
(0.976814 0 0)
(0.975242 0 0)
(0.974056 0 0)
(0.973251 0 0)
(0.972822 0 0)
(0.972764 0 0)
(0.973071 0 0)
(0.973736 0 0)
(0.974753 0 0)
(0.976113 0 0)
(0.97781 0 0)
(0.979833 0 0)
(0.982175 0 0)
(0.984827 0 0)
(0.987777 0 0)
(0.99102 0 0)
(0.994521 0 0)
(0.998357 0 0)
(1.00229 0 0)
(1.00667 0 0)
(1.01118 0 0)
(1.01589 0 0)
(1.02083 0 0)
(1.02596 0 0)
(1.03127 0 0)
(1.03674 0 0)
(1.04236 0 0)
(1.04811 0 0)
(1.05398 0 0)
(1.05996 0 0)
(1.066 0 0)
(1.0722 0 0)
(1.07831 0 0)
(1.0846 0 0)
(1.09088 0 0)
(1.09711 0 0)
(1.1034 0 0)
)
;

boundaryField
{
    boundary
    {
        type            empty;
    }
    inlet
    {
        type            fixedValue;
        value           uniform (2.34893 0 0);
    }
    outlet
    {
        type            zeroGradient;
    }
    procBoundary2to3
    {
        type            processor;
        value           uniform (1.10974 0 0);
    }
}


// ************************************************************************* //
