/*--------------------------------*- C++ -*----------------------------------*\
  =========                 |
  \\      /  F ield         | OpenFOAM: The Open Source CFD Toolbox
   \\    /   O peration     | Website:  https://openfoam.org
    \\  /    A nd           | Version:  7
     \\/     M anipulation  |
\*---------------------------------------------------------------------------*/
FoamFile
{
    version     2.0;
    format      ascii;
    class       volScalarField;
    location    "0.00063";
    object      H;
}
// * * * * * * * * * * * * * * * * * * * * * * * * * * * * * * * * * * * * * //

dimensions      [0 0 0 0 0 0 0];

internalField   nonuniform List<scalar> 
124
(
0.000339362
0.000336058
0.00033281
0.000329618
0.00032648
0.000323394
0.00032036
0.000317376
0.000314442
0.000311555
0.000308714
0.00030592
0.00030317
0.000300463
0.0002978
0.000295178
0.000292596
0.000290055
0.000287553
0.000285089
0.000282662
0.000280272
0.000277918
0.000275599
0.000273315
0.000271065
0.000268848
0.000266663
0.00026451
0.000262389
0.000260299
0.000258239
0.000256208
0.000254207
0.000252235
0.000250291
0.000248374
0.000246486
0.000244624
0.000242788
0.000240979
0.000239196
0.000237438
0.000235705
0.000233997
0.000232314
0.000230654
0.000229019
0.000227406
0.000225817
0.000224251
0.000222708
0.000221187
0.000219689
0.000218212
0.000216758
0.000215324
0.000213912
0.000212522
0.000211152
0.000209803
0.000208474
0.000207166
0.000205878
0.000204611
0.000203363
0.000202134
0.000200925
0.000199735
0.000198563
0.000197408
0.000196267
0.000195131
0.000193975
0.000192776
0.000191698
0.00019064
0.0001896
0.000188575
0.000187566
0.000186572
0.000185592
0.000184626
0.000183674
0.000182734
0.000181806
0.000180891
0.000179986
0.000179092
0.000178208
0.000177333
0.000176467
0.00017561
0.000174759
0.000173915
0.000173078
0.000172245
0.000171418
0.000170594
0.000169773
0.000168955
0.000168138
0.000167323
0.000166508
0.000165693
0.000164877
0.00016406
0.000163241
0.000162421
0.000161599
0.000160775
0.000159949
0.000159122
0.000158296
0.00015747
0.000156649
0.000155834
0.000155032
0.000154249
0.000153498
0.000152798
0.000152177
0.000151683
0.000151389
)
;

boundaryField
{
    boundary
    {
        type            empty;
    }
    inlet
    {
        type            fixedValue;
        value           nonuniform 0();
    }
    outlet
    {
        type            zeroGradient;
    }
    procBoundary0to1
    {
        type            processor;
        value           uniform 0.000342721;
    }
}


// ************************************************************************* //
