/*--------------------------------*- C++ -*----------------------------------*\
  =========                 |
  \\      /  F ield         | OpenFOAM: The Open Source CFD Toolbox
   \\    /   O peration     | Website:  https://openfoam.org
    \\  /    A nd           | Version:  7
     \\/     M anipulation  |
\*---------------------------------------------------------------------------*/
FoamFile
{
    version     2.0;
    format      ascii;
    class       volScalarField;
    location    "0.00024";
    object      O;
}
// * * * * * * * * * * * * * * * * * * * * * * * * * * * * * * * * * * * * * //

dimensions      [0 0 0 0 0 0 0];

internalField   nonuniform List<scalar> 
126
(
6.16628e-46
6.16632e-46
6.16623e-46
6.16599e-46
6.16556e-46
6.16493e-46
6.16414e-46
6.16321e-46
6.16224e-46
6.16132e-46
6.16057e-46
6.16012e-46
6.16004e-46
6.16039e-46
6.16119e-46
6.1624e-46
6.16396e-46
6.16578e-46
6.16774e-46
6.16974e-46
6.17169e-46
6.17352e-46
6.17518e-46
6.17666e-46
6.17795e-46
6.17905e-46
6.17998e-46
6.18077e-46
6.18144e-46
6.18202e-46
6.18251e-46
6.18294e-46
6.18332e-46
6.18365e-46
6.18395e-46
6.18421e-46
6.18443e-46
6.18463e-46
6.18478e-46
6.18491e-46
6.185e-46
6.18505e-46
6.18506e-46
6.18503e-46
6.18495e-46
6.18483e-46
6.18466e-46
6.18444e-46
6.18417e-46
6.18384e-46
6.18345e-46
6.183e-46
6.18249e-46
6.18191e-46
6.18127e-46
6.18055e-46
6.17976e-46
6.17889e-46
6.17794e-46
6.17691e-46
6.1758e-46
6.17459e-46
6.1733e-46
6.17191e-46
6.17043e-46
6.16885e-46
6.16716e-46
6.16537e-46
6.16348e-46
6.16147e-46
6.15935e-46
6.15712e-46
6.15477e-46
6.1523e-46
6.14971e-46
6.147e-46
6.14416e-46
6.1412e-46
6.1381e-46
6.13488e-46
6.13152e-46
6.12803e-46
6.12441e-46
6.12065e-46
6.11676e-46
6.11277e-46
6.10884e-46
6.10614e-46
6.11258e-46
6.18072e-46
6.65706e-46
9.80193e-46
3.02021e-45
1.60976e-44
9.90056e-44
6.18816e-43
3.84139e-42
2.35925e-41
1.43248e-40
8.59622e-40
5.0973e-39
2.98606e-38
1.72779e-37
9.87251e-37
5.56947e-36
3.10137e-35
1.70431e-34
9.24062e-34
4.94206e-33
2.60657e-32
1.35544e-31
6.94759e-31
3.50937e-30
1.74646e-29
8.56087e-29
4.13238e-28
1.96382e-27
9.18583e-27
4.22815e-26
1.91469e-25
8.52845e-25
3.73571e-24
1.60888e-23
6.81149e-23
2.83441e-22
1.15911e-21
)
;

boundaryField
{
    boundary
    {
        type            empty;
    }
    inlet
    {
        type            fixedValue;
        value           nonuniform 0();
    }
    outlet
    {
        type            zeroGradient;
    }
    procBoundary3to1
    {
        type            processor;
        value           uniform 4.66356e-21;
    }
    procBoundary3to2
    {
        type            processor;
        value           uniform 6.16721e-46;
    }
}


// ************************************************************************* //
