/*--------------------------------*- C++ -*----------------------------------*\
  =========                 |
  \\      /  F ield         | OpenFOAM: The Open Source CFD Toolbox
   \\    /   O peration     | Website:  https://openfoam.org
    \\  /    A nd           | Version:  7
     \\/     M anipulation  |
\*---------------------------------------------------------------------------*/
FoamFile
{
    version     2.0;
    format      ascii;
    class       volScalarField;
    location    "0.00024";
    object      Qdot;
}
// * * * * * * * * * * * * * * * * * * * * * * * * * * * * * * * * * * * * * //

dimensions      [1 -1 -3 0 0 0 0];

internalField   nonuniform List<scalar> 
126
(
-2.66644e-27
-2.66656e-27
-2.66671e-27
-2.66686e-27
-2.667e-27
-2.66715e-27
-2.66729e-27
-2.66743e-27
-2.66758e-27
-2.66773e-27
-2.66788e-27
-2.66805e-27
-2.66822e-27
-2.66841e-27
-2.6686e-27
-2.6688e-27
-2.66901e-27
-2.66922e-27
-2.66944e-27
-2.66965e-27
-2.66986e-27
-2.67007e-27
-2.67026e-27
-2.67046e-27
-2.67064e-27
-2.67082e-27
-2.67099e-27
-2.67115e-27
-2.6713e-27
-2.67145e-27
-2.67159e-27
-2.67172e-27
-2.67185e-27
-2.67196e-27
-2.67207e-27
-2.67217e-27
-2.67226e-27
-2.67234e-27
-2.67241e-27
-2.67246e-27
-2.67251e-27
-2.67254e-27
-2.67256e-27
-2.67256e-27
-2.67255e-27
-2.67253e-27
-2.67248e-27
-2.67242e-27
-2.67234e-27
-2.67225e-27
-2.67213e-27
-2.67199e-27
-2.67183e-27
-2.67165e-27
-2.67145e-27
-2.67122e-27
-2.67096e-27
-2.67068e-27
-2.67037e-27
-2.67004e-27
-2.66967e-27
-2.66928e-27
-2.66885e-27
-2.6684e-27
-2.66791e-27
-2.66739e-27
-2.66683e-27
-2.66624e-27
-2.66561e-27
-2.66494e-27
-2.66424e-27
-2.6635e-27
-2.66271e-27
-2.66189e-27
-2.66103e-27
-2.66012e-27
-2.65918e-27
-2.65819e-27
-2.65715e-27
-2.65608e-27
-2.65495e-27
-2.65379e-27
-2.65257e-27
-2.65132e-27
-2.65001e-27
-2.64867e-27
-2.64727e-27
-2.64583e-27
-2.64434e-27
-2.64281e-27
-2.64123e-27
-2.63961e-27
-2.63794e-27
-2.63623e-27
-2.63448e-27
-2.63268e-27
-2.63083e-27
-2.6289e-27
-2.62667e-27
-2.6229e-27
-2.61026e-27
-2.54605e-27
-2.18509e-27
-1.35291e-28
1.14136e-26
7.57513e-26
4.29893e-25
2.35547e-24
1.26962e-23
6.75355e-23
3.54706e-22
1.83949e-21
9.41899e-21
4.76195e-20
2.37711e-19
1.17174e-18
5.70417e-18
2.74296e-17
1.30328e-16
6.12101e-16
2.8431e-15
1.30684e-14
5.94917e-14
2.68474e-13
1.20237e-12
5.35073e-12
)
;

boundaryField
{
    boundary
    {
        type            empty;
    }
    inlet
    {
        type            calculated;
        value           nonuniform 0();
    }
    outlet
    {
        type            calculated;
        value           nonuniform 0();
    }
    procBoundary3to1
    {
        type            processor;
        value           uniform 0;
    }
    procBoundary3to2
    {
        type            processor;
        value           uniform 0;
    }
}


// ************************************************************************* //
