/*--------------------------------*- C++ -*----------------------------------*\
  =========                 |
  \\      /  F ield         | OpenFOAM: The Open Source CFD Toolbox
   \\    /   O peration     | Website:  https://openfoam.org
    \\  /    A nd           | Version:  7
     \\/     M anipulation  |
\*---------------------------------------------------------------------------*/
FoamFile
{
    version     2.0;
    format      ascii;
    class       volScalarField;
    location    "0.00079";
    object      T;
}
// * * * * * * * * * * * * * * * * * * * * * * * * * * * * * * * * * * * * * //

dimensions      [0 0 0 1 0 0 0];

internalField   nonuniform List<scalar> 
125
(
301.492
301.49
301.488
301.486
301.484
301.482
301.48
301.478
301.476
301.474
301.472
301.469
301.467
301.465
301.463
301.463
301.467
301.483
301.535
301.684
302.114
303.34
306.831
316.691
343.347
405.921
518.319
666.224
821.332
969.994
1108.77
1233.13
1336.91
1424.99
1499.66
1559.09
1606.46
1646.86
1681.74
1712.32
1739.47
1763.82
1785.86
1805.96
1824.39
1841.39
1857.14
1871.8
1885.49
1898.31
1910.36
1921.7
1932.42
1942.57
1952.19
1961.33
1970.03
1978.33
1986.24
1993.8
2001.02
2007.73
2014.06
2020.18
2026.11
2031.85
2037.4
2042.79
2048.02
2053.1
2058.03
2062.83
2067.5
2072.04
2076.46
2080.77
2084.97
2089.06
2093.06
2096.96
2100.77
2104.49
2108.13
2111.69
2115.16
2118.57
2121.9
2125.16
2128.35
2131.48
2134.54
2137.54
2140.49
2143.37
2146.2
2148.98
2151.71
2154.38
2157.01
2159.59
2162.12
2164.61
2167.06
2169.46
2171.82
2174.14
2176.43
2178.67
2180.88
2183.06
2185.2
2187.3
2189.38
2191.42
2193.43
2195.41
2197.36
2199.28
2201.18
2203.05
2204.89
2206.7
2208.49
2210.24
2211.97
)
;

boundaryField
{
    boundary
    {
        type            empty;
    }
    inlet
    {
        type            fixedValue;
        value           nonuniform 0();
    }
    outlet
    {
        type            zeroGradient;
    }
    procBoundary1to0
    {
        type            processor;
        value           uniform 2213.68;
    }
    procBoundary1to3
    {
        type            processor;
        value           uniform 301.494;
    }
}


// ************************************************************************* //
