/*--------------------------------*- C++ -*----------------------------------*\
  =========                 |
  \\      /  F ield         | OpenFOAM: The Open Source CFD Toolbox
   \\    /   O peration     | Website:  https://openfoam.org
    \\  /    A nd           | Version:  7
     \\/     M anipulation  |
\*---------------------------------------------------------------------------*/
FoamFile
{
    version     2.0;
    format      ascii;
    class       volVectorField;
    location    "0.00079";
    object      U;
}
// * * * * * * * * * * * * * * * * * * * * * * * * * * * * * * * * * * * * * //

dimensions      [0 1 -1 0 0 0 0];

internalField   nonuniform List<vector> 
125
(
(2.34348 0 0)
(2.34346 0 0)
(2.34344 0 0)
(2.34341 0 0)
(2.34339 0 0)
(2.34337 0 0)
(2.34334 0 0)
(2.34332 0 0)
(2.34329 0 0)
(2.34327 0 0)
(2.34324 0 0)
(2.34322 0 0)
(2.34319 0 0)
(2.34317 0 0)
(2.34314 0 0)
(2.34312 0 0)
(2.34312 0 0)
(2.34318 0 0)
(2.34348 0 0)
(2.34456 0 0)
(2.34801 0 0)
(2.3582 0 0)
(2.3858 0 0)
(2.45414 0 0)
(2.61423 0 0)
(2.96486 0 0)
(3.67852 0 0)
(4.76234 0 0)
(5.9987 0 0)
(7.18684 0 0)
(8.24751 0 0)
(9.16352 0 0)
(9.93204 0 0)
(10.5708 0 0)
(11.1015 0 0)
(11.5298 0 0)
(11.8688 0 0)
(12.1462 0 0)
(12.3834 0 0)
(12.5907 0 0)
(12.7739 0 0)
(12.9372 0 0)
(13.0841 0 0)
(13.2173 0 0)
(13.3389 0 0)
(13.4506 0 0)
(13.5537 0 0)
(13.6493 0 0)
(13.7383 0 0)
(13.8214 0 0)
(13.8992 0 0)
(13.9723 0 0)
(14.0412 0 0)
(14.1063 0 0)
(14.1678 0 0)
(14.2262 0 0)
(14.2816 0 0)
(14.3343 0 0)
(14.3845 0 0)
(14.4323 0 0)
(14.478 0 0)
(14.5204 0 0)
(14.5601 0 0)
(14.5986 0 0)
(14.6358 0 0)
(14.6718 0 0)
(14.7066 0 0)
(14.7403 0 0)
(14.773 0 0)
(14.8046 0 0)
(14.8354 0 0)
(14.8652 0 0)
(14.8942 0 0)
(14.9223 0 0)
(14.9497 0 0)
(14.9764 0 0)
(15.0023 0 0)
(15.0276 0 0)
(15.0522 0 0)
(15.0763 0 0)
(15.0997 0 0)
(15.1226 0 0)
(15.1449 0 0)
(15.1667 0 0)
(15.188 0 0)
(15.2088 0 0)
(15.2292 0 0)
(15.2491 0 0)
(15.2686 0 0)
(15.2876 0 0)
(15.3063 0 0)
(15.3246 0 0)
(15.3425 0 0)
(15.36 0 0)
(15.3773 0 0)
(15.3941 0 0)
(15.4107 0 0)
(15.4269 0 0)
(15.4428 0 0)
(15.4585 0 0)
(15.4738 0 0)
(15.4889 0 0)
(15.5037 0 0)
(15.5182 0 0)
(15.5325 0 0)
(15.5466 0 0)
(15.5604 0 0)
(15.5739 0 0)
(15.5873 0 0)
(15.6004 0 0)
(15.6133 0 0)
(15.6261 0 0)
(15.6386 0 0)
(15.6509 0 0)
(15.663 0 0)
(15.6749 0 0)
(15.6867 0 0)
(15.6983 0 0)
(15.7097 0 0)
(15.7209 0 0)
(15.732 0 0)
(15.7429 0 0)
(15.7536 0 0)
(15.7641 0 0)
(15.7745 0 0)
)
;

boundaryField
{
    boundary
    {
        type            empty;
    }
    inlet
    {
        type            fixedValue;
        value           nonuniform 0();
    }
    outlet
    {
        type            zeroGradient;
    }
    procBoundary1to0
    {
        type            processor;
        value           uniform (15.7848 0 0);
    }
    procBoundary1to3
    {
        type            processor;
        value           uniform (2.34351 0 0);
    }
}


// ************************************************************************* //
