/*--------------------------------*- C++ -*----------------------------------*\
  =========                 |
  \\      /  F ield         | OpenFOAM: The Open Source CFD Toolbox
   \\    /   O peration     | Website:  https://openfoam.org
    \\  /    A nd           | Version:  7
     \\/     M anipulation  |
\*---------------------------------------------------------------------------*/
FoamFile
{
    version     2.0;
    format      ascii;
    class       volScalarField;
    location    "0.00031";
    object      T;
}
// * * * * * * * * * * * * * * * * * * * * * * * * * * * * * * * * * * * * * //

dimensions      [0 0 0 1 0 0 0];

internalField   nonuniform List<scalar> 
125
(
301.416
301.412
301.409
301.406
301.402
301.399
301.396
301.392
301.389
301.385
301.382
301.378
301.375
301.371
301.368
301.365
301.362
301.36
301.363
301.379
301.431
301.586
302.035
303.326
307.021
317.486
345.728
411.302
526.9
676.267
831.372
979.612
1117.74
1241.03
1343.54
1430.38
1504.07
1562.75
1609.56
1649.53
1684.08
1714.4
1741.34
1765.52
1787.42
1807.39
1825.72
1842.63
1858.3
1872.89
1886.51
1899.28
1911.28
1922.58
1933.26
1943.37
1952.96
1962.06
1970.73
1978.98
1986.85
1994.14
2000.99
2007.62
2014.02
2020.2
2026.17
2031.96
2037.57
2043
2048.27
2053.39
2058.36
2063.2
2067.9
2072.47
2076.92
2081.26
2085.49
2089.61
2093.63
2097.55
2101.37
2105.11
2108.75
2112.31
2115.79
2119.19
2122.51
2125.75
2128.92
2132.02
2135.05
2138.01
2140.9
2143.72
2146.47
2149.16
2151.79
2154.35
2156.85
2159.28
2161.66
2163.97
2166.22
2168.41
2170.54
2172.6
2174.61
2176.56
2178.46
2180.29
2182.07
2183.8
2185.47
2187.09
2188.66
2190.19
2191.67
2193.11
2194.51
2195.88
2197.23
2198.55
2199.85
)
;

boundaryField
{
    boundary
    {
        type            empty;
    }
    inlet
    {
        type            fixedValue;
        value           nonuniform 0();
    }
    outlet
    {
        type            zeroGradient;
    }
    procBoundary1to0
    {
        type            processor;
        value           uniform 2201.13;
    }
    procBoundary1to3
    {
        type            processor;
        value           uniform 301.419;
    }
}


// ************************************************************************* //
