/*--------------------------------*- C++ -*----------------------------------*\
  =========                 |
  \\      /  F ield         | OpenFOAM: The Open Source CFD Toolbox
   \\    /   O peration     | Website:  https://openfoam.org
    \\  /    A nd           | Version:  7
     \\/     M anipulation  |
\*---------------------------------------------------------------------------*/
FoamFile
{
    version     2.0;
    format      ascii;
    class       volScalarField;
    location    "0.00046";
    object      HO2;
}
// * * * * * * * * * * * * * * * * * * * * * * * * * * * * * * * * * * * * * //

dimensions      [0 0 0 0 0 0 0];

internalField   nonuniform List<scalar> 
125
(
8.33217e-20
3.60451e-19
1.55109e-18
6.65535e-18
2.84908e-17
1.21715e-16
5.18998e-16
2.2093e-15
9.39056e-15
3.98615e-14
1.69011e-13
7.15878e-13
3.02962e-12
1.28117e-11
5.41425e-11
2.28666e-10
9.6516e-10
4.07097e-09
1.71559e-08
7.21822e-08
3.02733e-07
1.26003e-06
5.15482e-06
2.03502e-05
7.41239e-05
0.000224689
0.000453302
0.00051903
0.000445343
0.000332681
0.000235694
0.000165218
0.000115589
8.10265e-05
5.78828e-05
4.01088e-05
3.02635e-05
2.39484e-05
1.98075e-05
1.70005e-05
1.50183e-05
1.35568e-05
1.24338e-05
1.15387e-05
1.0803e-05
1.0183e-05
9.6501e-06
9.18479e-06
8.77342e-06
8.40607e-06
8.07534e-06
7.77557e-06
7.50229e-06
7.25193e-06
7.0216e-06
6.80889e-06
6.6118e-06
6.42863e-06
6.25799e-06
6.09868e-06
5.94976e-06
5.8146e-06
5.68904e-06
5.5699e-06
5.45671e-06
5.34901e-06
5.2464e-06
5.14852e-06
5.05505e-06
4.96569e-06
4.88017e-06
4.79824e-06
4.71969e-06
4.64431e-06
4.57192e-06
4.50234e-06
4.43541e-06
4.371e-06
4.30896e-06
4.24917e-06
4.19152e-06
4.1359e-06
4.08221e-06
4.03036e-06
3.98025e-06
3.93182e-06
3.88497e-06
3.83964e-06
3.79577e-06
3.75328e-06
3.71211e-06
3.67221e-06
3.63353e-06
3.59601e-06
3.5596e-06
3.52425e-06
3.48993e-06
3.45659e-06
3.42419e-06
3.39269e-06
3.36206e-06
3.33226e-06
3.30326e-06
3.27503e-06
3.24753e-06
3.22075e-06
3.19465e-06
3.16921e-06
3.1444e-06
3.12021e-06
3.0966e-06
3.07356e-06
3.05107e-06
3.0291e-06
3.00764e-06
2.98667e-06
2.96617e-06
2.94612e-06
2.9265e-06
2.90731e-06
2.88851e-06
2.87008e-06
2.85201e-06
2.83426e-06
2.81679e-06
)
;

boundaryField
{
    boundary
    {
        type            empty;
    }
    inlet
    {
        type            fixedValue;
        value           nonuniform 0();
    }
    outlet
    {
        type            zeroGradient;
    }
    procBoundary1to0
    {
        type            processor;
        value           uniform 2.79966e-06;
    }
    procBoundary1to3
    {
        type            processor;
        value           uniform 1.91186e-20;
    }
}


// ************************************************************************* //
