/*--------------------------------*- C++ -*----------------------------------*\
  =========                 |
  \\      /  F ield         | OpenFOAM: The Open Source CFD Toolbox
   \\    /   O peration     | Website:  https://openfoam.org
    \\  /    A nd           | Version:  7
     \\/     M anipulation  |
\*---------------------------------------------------------------------------*/
FoamFile
{
    version     2.0;
    format      ascii;
    class       volScalarField;
    location    "0.00054";
    object      H;
}
// * * * * * * * * * * * * * * * * * * * * * * * * * * * * * * * * * * * * * //

dimensions      [0 0 0 0 0 0 0];

internalField   nonuniform List<scalar> 
500
(
1.48468e-41
2.01109e-41
2.1257e-41
2.1521e-41
2.15984e-41
2.16377e-41
2.167e-41
2.17015e-41
2.17335e-41
2.17666e-41
2.1801e-41
2.18373e-41
2.18764e-41
2.19191e-41
2.19667e-41
2.20204e-41
2.20819e-41
2.2153e-41
2.22357e-41
2.23323e-41
2.24453e-41
2.25771e-41
2.27305e-41
2.29081e-41
2.31124e-41
2.33458e-41
2.36104e-41
2.39079e-41
2.42394e-41
2.46054e-41
2.50056e-41
2.54391e-41
2.59037e-41
2.63968e-41
2.69144e-41
2.74521e-41
2.80044e-41
2.85654e-41
2.91288e-41
2.96881e-41
3.02367e-41
3.07686e-41
3.12782e-41
3.17604e-41
3.22113e-41
3.26279e-41
3.30081e-41
3.33511e-41
3.36567e-41
3.3926e-41
3.41605e-41
3.43623e-41
3.45341e-41
3.46787e-41
3.47991e-41
3.48982e-41
3.49791e-41
3.50443e-41
3.50963e-41
3.51375e-41
3.51697e-41
3.51946e-41
3.52138e-41
3.52284e-41
3.52394e-41
3.52476e-41
3.52536e-41
3.52581e-41
3.52614e-41
3.52637e-41
3.52655e-41
3.52667e-41
3.52676e-41
3.52683e-41
3.52688e-41
3.52692e-41
3.52695e-41
3.52697e-41
3.527e-41
3.52702e-41
3.52704e-41
3.52706e-41
3.52708e-41
3.52711e-41
3.52713e-41
3.52716e-41
3.52718e-41
3.52721e-41
3.52724e-41
3.52728e-41
3.52731e-41
3.52735e-41
3.52738e-41
3.52743e-41
3.52747e-41
3.52751e-41
3.52756e-41
3.52761e-41
3.52766e-41
3.52772e-41
3.52778e-41
3.52784e-41
3.5279e-41
3.52797e-41
3.52804e-41
3.52811e-41
3.52818e-41
3.52826e-41
3.52835e-41
3.52843e-41
3.52852e-41
3.52861e-41
3.52871e-41
3.52881e-41
3.52891e-41
3.52901e-41
3.52912e-41
3.52924e-41
3.52936e-41
3.52948e-41
3.5296e-41
3.52972e-41
3.52984e-41
3.52998e-41
3.53019e-41
3.53039e-41
3.53032e-41
3.53033e-41
3.53041e-41
3.53055e-41
3.53073e-41
3.53095e-41
3.53118e-41
3.53142e-41
3.53165e-41
3.53187e-41
3.53209e-41
3.5323e-41
3.53251e-41
3.53271e-41
3.5329e-41
3.5331e-41
3.5333e-41
3.5335e-41
3.5337e-41
3.53391e-41
3.53411e-41
3.53432e-41
3.53453e-41
3.53474e-41
3.53495e-41
3.53517e-41
3.53538e-41
3.5356e-41
3.53583e-41
3.53605e-41
3.53629e-41
3.53652e-41
3.53676e-41
3.537e-41
3.53724e-41
3.53749e-41
3.53774e-41
3.53799e-41
3.53824e-41
3.53849e-41
3.53874e-41
3.53899e-41
3.53923e-41
3.53947e-41
3.53971e-41
3.53994e-41
3.54016e-41
3.54037e-41
3.54058e-41
3.54077e-41
3.54096e-41
3.54113e-41
3.5413e-41
3.54145e-41
3.54159e-41
3.54171e-41
3.54182e-41
3.54192e-41
3.542e-41
3.54206e-41
3.54211e-41
3.54214e-41
3.54215e-41
3.54214e-41
3.54211e-41
3.54205e-41
3.54198e-41
3.54188e-41
3.54175e-41
3.5416e-41
3.54143e-41
3.54122e-41
3.54098e-41
3.54072e-41
3.54042e-41
3.54009e-41
3.53972e-41
3.53932e-41
3.53888e-41
3.53841e-41
3.53789e-41
3.53734e-41
3.53674e-41
3.5361e-41
3.53542e-41
3.53471e-41
3.534e-41
3.53344e-41
3.53361e-41
3.53672e-41
3.55128e-41
3.60953e-41
3.83281e-41
4.67389e-41
7.80817e-41
1.9384e-40
6.17789e-40
2.15769e-39
7.7056e-39
2.75324e-38
9.78218e-38
3.45037e-37
1.20771e-36
4.19479e-36
1.4459e-35
4.94642e-35
1.67971e-34
5.66289e-34
1.89578e-33
6.30358e-33
2.08235e-32
6.83649e-32
2.23149e-31
7.24508e-31
2.34109e-30
7.53375e-30
2.41646e-29
7.73344e-29
2.47265e-28
7.91223e-28
2.53964e-27
8.20145e-27
2.67513e-26
8.85631e-26
2.99298e-25
1.04443e-24
3.74988e-24
1.39357e-23
5.3762e-23
2.15079e-22
8.88955e-22
3.77638e-21
1.63995e-20
7.24528e-20
3.24444e-19
1.46906e-18
6.71892e-18
3.10522e-17
1.45299e-16
6.90888e-16
3.35683e-15
1.67867e-14
8.71049e-14
4.73729e-13
2.95048e-12
2.19176e-11
2.20047e-10
2.06076e-09
1.93656e-08
1.78424e-07
1.53224e-06
1.10894e-05
5.81205e-05
0.000191253
0.000421262
0.000731295
0.00109017
0.00143652
0.00170268
0.00185995
0.00192274
0.00191555
0.00186905
0.00180252
0.00172793
0.00165215
0.0015788
0.00150958
0.00144515
0.00138557
0.00133062
0.00127996
0.0012332
0.00118996
0.00114988
0.00111263
0.00107794
0.00104553
0.0010152
0.000986734
0.000959967
0.000934746
0.000910937
0.00088842
0.000867091
0.000846856
0.000828194
0.000810818
0.000794149
0.000778145
0.000762766
0.000747975
0.000733737
0.000720021
0.000706797
0.000694039
0.000681721
0.000669819
0.000658313
0.000647182
0.000636408
0.000625972
0.000615859
0.000606053
0.000596541
0.000587308
0.000578343
0.000569633
0.000561167
0.000552935
0.000544927
0.000537135
0.000529548
0.000522159
0.000514961
0.000507945
0.000501104
0.000494433
0.000487924
0.000481572
0.000475371
0.000469316
0.000463401
0.000457622
0.000451974
0.000446452
0.000441053
0.000435772
0.000430605
0.000425549
0.0004206
0.000415754
0.00041101
0.000406363
0.00040181
0.00039735
0.000392978
0.000388694
0.000384493
0.000380374
0.000376335
0.000372374
0.000368489
0.000364677
0.000360937
0.000357268
0.000353668
0.000350136
0.000346671
0.00034327
0.000339922
0.000336622
0.000333378
0.000330192
0.00032706
0.000323982
0.000320956
0.000317982
0.000315058
0.000312184
0.000309357
0.000306577
0.000303843
0.000301154
0.000298509
0.000295908
0.000293348
0.00029083
0.000288353
0.000285916
0.000283518
0.000281159
0.000278837
0.000276553
0.000274305
0.000272093
0.000269916
0.000267775
0.000265667
0.000263594
0.000261553
0.000259546
0.000257571
0.000255628
0.000253716
0.000251836
0.000249986
0.000248166
0.000246376
0.000244615
0.000242883
0.000241179
0.000239501
0.000237849
0.000236217
0.000234605
0.000232859
0.000231293
0.000229762
0.000228259
0.000226783
0.000225331
0.000223902
0.000222495
0.00022111
0.000219746
0.000218401
0.000217076
0.000215769
0.00021448
0.000213208
0.000211953
0.000210714
0.00020949
0.00020828
0.000207083
0.000205899
0.000204727
0.000203566
0.000202414
0.000201272
0.000200138
0.000199011
0.00019789
0.000196774
0.000195662
0.000194553
0.000193447
0.000192341
0.000191236
0.000190129
0.000189021
0.00018791
0.000186795
0.000185675
0.00018455
0.000183419
0.00018228
0.000181134
0.000179979
0.000178814
0.000177641
0.000176457
0.000175262
0.000174056
0.000172839
0.000171611
0.000170371
0.000169119
0.000167855
0.000166579
0.000165292
0.000163993
0.000162683
0.000161362
0.000160031
0.00015869
0.000157341
0.000155983
0.000154619
0.000153251
0.000151881
0.000150511
0.000149147
0.000147793
0.000146456
0.000145146
0.000143875
0.00014266
0.000141523
0.000140494
0.000139616
0.000138945
0.00013856
)
;

boundaryField
{
    boundary
    {
        type            empty;
    }
    inlet
    {
        type            fixedValue;
        value           uniform 0;
    }
    outlet
    {
        type            zeroGradient;
    }
}


// ************************************************************************* //
