/*--------------------------------*- C++ -*----------------------------------*\
  =========                 |
  \\      /  F ield         | OpenFOAM: The Open Source CFD Toolbox
   \\    /   O peration     | Website:  https://openfoam.org
    \\  /    A nd           | Version:  7
     \\/     M anipulation  |
\*---------------------------------------------------------------------------*/
FoamFile
{
    version     2.0;
    format      ascii;
    class       volScalarField;
    location    "0.00054";
    object      H2O2;
}
// * * * * * * * * * * * * * * * * * * * * * * * * * * * * * * * * * * * * * //

dimensions      [0 0 0 0 0 0 0];

internalField   nonuniform List<scalar> 
500
(
1.99902e-52
6.42677e-52
1.27868e-51
2.10858e-51
3.133e-51
4.35257e-51
5.768e-51
7.38017e-51
9.19023e-51
1.11997e-50
1.34107e-50
1.58258e-50
1.84489e-50
2.12847e-50
2.43393e-50
2.76207e-50
3.11385e-50
3.49045e-50
3.89326e-50
4.32389e-50
4.7841e-50
5.27583e-50
5.80107e-50
6.36176e-50
6.95973e-50
7.59644e-50
8.27291e-50
8.98947e-50
9.74561e-50
1.05398e-49
1.13695e-49
1.22306e-49
1.31182e-49
1.40259e-49
1.49463e-49
1.58712e-49
1.67916e-49
1.76984e-49
1.85825e-49
1.94351e-49
2.02482e-49
2.10149e-49
2.17295e-49
2.23877e-49
2.29869e-49
2.3526e-49
2.40051e-49
2.4426e-49
2.47913e-49
2.51046e-49
2.53702e-49
2.55927e-49
2.57769e-49
2.59278e-49
2.60499e-49
2.61476e-49
2.62249e-49
2.62855e-49
2.63324e-49
2.63683e-49
2.63956e-49
2.6416e-49
2.64312e-49
2.64424e-49
2.64506e-49
2.64565e-49
2.64607e-49
2.64637e-49
2.64659e-49
2.64674e-49
2.64685e-49
2.64692e-49
2.64698e-49
2.64702e-49
2.64705e-49
2.64707e-49
2.6471e-49
2.64712e-49
2.64714e-49
2.64716e-49
2.64718e-49
2.6472e-49
2.64722e-49
2.64724e-49
2.64727e-49
2.64729e-49
2.64732e-49
2.64735e-49
2.64738e-49
2.64741e-49
2.64745e-49
2.64749e-49
2.64753e-49
2.64757e-49
2.64761e-49
2.64766e-49
2.64771e-49
2.64776e-49
2.64781e-49
2.64787e-49
2.64793e-49
2.64799e-49
2.64806e-49
2.64813e-49
2.6482e-49
2.64827e-49
2.64835e-49
2.64843e-49
2.64851e-49
2.6486e-49
2.64869e-49
2.64879e-49
2.64889e-49
2.64899e-49
2.64909e-49
2.6492e-49
2.64931e-49
2.64943e-49
2.64955e-49
2.64967e-49
2.64978e-49
2.64982e-49
2.64963e-49
2.64845e-49
2.64342e-49
2.63338e-49
2.63356e-49
2.63377e-49
2.63404e-49
2.63438e-49
2.63481e-49
2.63536e-49
2.63605e-49
2.63688e-49
2.63788e-49
2.63903e-49
2.64031e-49
2.64168e-49
2.64309e-49
2.64448e-49
2.64578e-49
2.64694e-49
2.64791e-49
2.64866e-49
2.64917e-49
2.64946e-49
2.64953e-49
2.64944e-49
2.64922e-49
2.64892e-49
2.64858e-49
2.64826e-49
2.648e-49
2.64782e-49
2.64775e-49
2.64781e-49
2.648e-49
2.64832e-49
2.64877e-49
2.64933e-49
2.64999e-49
2.65073e-49
2.65153e-49
2.65237e-49
2.65324e-49
2.6541e-49
2.65495e-49
2.65577e-49
2.65656e-49
2.65729e-49
2.65798e-49
2.65861e-49
2.65918e-49
2.6597e-49
2.66016e-49
2.66058e-49
2.66094e-49
2.66127e-49
2.66155e-49
2.6618e-49
2.66201e-49
2.6622e-49
2.66236e-49
2.6625e-49
2.66261e-49
2.6627e-49
2.66276e-49
2.66281e-49
2.66283e-49
2.66283e-49
2.66281e-49
2.66277e-49
2.6627e-49
2.66261e-49
2.66249e-49
2.66234e-49
2.66217e-49
2.66197e-49
2.66173e-49
2.66147e-49
2.66117e-49
2.66084e-49
2.66048e-49
2.66008e-49
2.6597e-49
2.65957e-49
2.66127e-49
2.67463e-49
2.7603e-49
3.28942e-49
6.51151e-49
2.59327e-48
1.41869e-47
8.27332e-47
4.84101e-46
2.81143e-45
1.61742e-44
9.21416e-44
5.19723e-43
2.90228e-42
1.60449e-41
8.78101e-41
4.75718e-40
2.55121e-39
1.35436e-38
7.11741e-38
3.70275e-37
1.90707e-36
9.72485e-36
4.91034e-35
2.4553e-34
1.21595e-33
5.96501e-33
2.8991e-32
1.39621e-31
6.66439e-31
3.15345e-30
1.47955e-29
6.88499e-29
3.17855e-28
1.45627e-27
6.62346e-27
2.9917e-26
1.34248e-25
5.98744e-25
2.65524e-24
1.17138e-23
5.14307e-23
2.24845e-22
9.79213e-22
4.25008e-21
1.85158e-20
8.01197e-20
3.45064e-19
1.48256e-18
6.35914e-18
2.72412e-17
1.16577e-16
4.98492e-16
2.13032e-15
9.10003e-15
3.88605e-14
1.65915e-13
7.08277e-13
3.02327e-12
1.29037e-11
5.50692e-11
2.34991e-10
1.00259e-09
4.27652e-09
1.82334e-08
7.76648e-08
3.2994e-07
1.39015e-06
5.69857e-06
2.13621e-05
6.19493e-05
0.00010771
0.000124294
9.18141e-05
4.56386e-05
1.85431e-05
7.94354e-06
4.84378e-06
4.45797e-06
4.92009e-06
5.63958e-06
6.16275e-06
6.51833e-06
6.71301e-06
6.77872e-06
6.74994e-06
6.65589e-06
6.51881e-06
6.35482e-06
6.17524e-06
5.98792e-06
5.7982e-06
5.60969e-06
5.42478e-06
5.24501e-06
5.07134e-06
4.9043e-06
4.74416e-06
4.59099e-06
4.44472e-06
4.3052e-06
4.17222e-06
4.04555e-06
3.92492e-06
3.81011e-06
3.70092e-06
3.60031e-06
3.50569e-06
3.4149e-06
3.32777e-06
3.24409e-06
3.16371e-06
3.08647e-06
3.01221e-06
2.94079e-06
2.87208e-06
2.80594e-06
2.74224e-06
2.68088e-06
2.62175e-06
2.56473e-06
2.50973e-06
2.45665e-06
2.40541e-06
2.35592e-06
2.3081e-06
2.26188e-06
2.21719e-06
2.17395e-06
2.13211e-06
2.0916e-06
2.05236e-06
2.01435e-06
1.9775e-06
1.94178e-06
1.90713e-06
1.87351e-06
1.84087e-06
1.80918e-06
1.7784e-06
1.7485e-06
1.71943e-06
1.69117e-06
1.66368e-06
1.63694e-06
1.61091e-06
1.58557e-06
1.56089e-06
1.53685e-06
1.51343e-06
1.4906e-06
1.46835e-06
1.44664e-06
1.42547e-06
1.40481e-06
1.38465e-06
1.36497e-06
1.34575e-06
1.32698e-06
1.30864e-06
1.29072e-06
1.27321e-06
1.2561e-06
1.23936e-06
1.223e-06
1.207e-06
1.19134e-06
1.17603e-06
1.16105e-06
1.1464e-06
1.13205e-06
1.11797e-06
1.10417e-06
1.09065e-06
1.07741e-06
1.06443e-06
1.05172e-06
1.03925e-06
1.02704e-06
1.01506e-06
1.00331e-06
9.91785e-07
9.80481e-07
9.6939e-07
9.58507e-07
9.47826e-07
9.37341e-07
9.27048e-07
9.1694e-07
9.07014e-07
8.97264e-07
8.87686e-07
8.78275e-07
8.69027e-07
8.59938e-07
8.51004e-07
8.4222e-07
8.33583e-07
8.25089e-07
8.16734e-07
8.08515e-07
8.00429e-07
7.92472e-07
7.8464e-07
7.76932e-07
7.69343e-07
7.61871e-07
7.54514e-07
7.47266e-07
7.40125e-07
7.33087e-07
7.26147e-07
7.19303e-07
7.12563e-07
7.05868e-07
6.99598e-07
6.9105e-07
6.84694e-07
6.78355e-07
6.72063e-07
6.65828e-07
6.59651e-07
6.53527e-07
6.47454e-07
6.41425e-07
6.35437e-07
6.29486e-07
6.23569e-07
6.1768e-07
6.11817e-07
6.05975e-07
6.00151e-07
5.94341e-07
5.88541e-07
5.82748e-07
5.76956e-07
5.71164e-07
5.65366e-07
5.59559e-07
5.53739e-07
5.47903e-07
5.42047e-07
5.36169e-07
5.30264e-07
5.24331e-07
5.18366e-07
5.12368e-07
5.06336e-07
5.00268e-07
4.94162e-07
4.88019e-07
4.81839e-07
4.75624e-07
4.69373e-07
4.6309e-07
4.56777e-07
4.50437e-07
4.44075e-07
4.37695e-07
4.31302e-07
4.24902e-07
4.18502e-07
4.12108e-07
4.05728e-07
3.9937e-07
3.93041e-07
3.86751e-07
3.80507e-07
3.74319e-07
3.68195e-07
3.62144e-07
3.56175e-07
3.50296e-07
3.44515e-07
3.3884e-07
3.33279e-07
3.27839e-07
3.22526e-07
3.17347e-07
3.12308e-07
3.07414e-07
3.02671e-07
2.98084e-07
2.93659e-07
2.89402e-07
2.85318e-07
2.81418e-07
2.77713e-07
2.74219e-07
2.70961e-07
2.6798e-07
2.65347e-07
2.63194e-07
2.61799e-07
)
;

boundaryField
{
    boundary
    {
        type            empty;
    }
    inlet
    {
        type            fixedValue;
        value           uniform 0;
    }
    outlet
    {
        type            zeroGradient;
    }
}


// ************************************************************************* //
