/*--------------------------------*- C++ -*----------------------------------*\
  =========                 |
  \\      /  F ield         | OpenFOAM: The Open Source CFD Toolbox
   \\    /   O peration     | Website:  https://openfoam.org
    \\  /    A nd           | Version:  7
     \\/     M anipulation  |
\*---------------------------------------------------------------------------*/
FoamFile
{
    version     2.0;
    format      ascii;
    class       volScalarField;
    location    "0.00054";
    object      HO2;
}
// * * * * * * * * * * * * * * * * * * * * * * * * * * * * * * * * * * * * * //

dimensions      [0 0 0 0 0 0 0];

internalField   nonuniform List<scalar> 
500
(
5.59982e-38
1.27505e-37
1.99382e-37
2.71435e-37
3.43622e-37
4.15928e-37
4.88352e-37
5.60897e-37
6.33576e-37
7.0641e-37
7.79432e-37
8.52686e-37
9.26234e-37
1.00015e-36
1.07455e-36
1.14954e-36
1.22529e-36
1.30198e-36
1.37982e-36
1.45904e-36
1.53992e-36
1.62272e-36
1.70772e-36
1.79521e-36
1.88543e-36
1.97858e-36
2.07481e-36
2.17416e-36
2.27661e-36
2.38196e-36
2.48993e-36
2.60008e-36
2.71183e-36
2.82449e-36
2.93725e-36
3.04922e-36
3.15946e-36
3.26701e-36
3.37094e-36
3.47038e-36
3.56454e-36
3.65276e-36
3.73453e-36
3.80949e-36
3.87744e-36
3.93836e-36
3.99236e-36
4.03969e-36
4.08069e-36
4.11583e-36
4.14559e-36
4.17053e-36
4.19118e-36
4.20811e-36
4.22183e-36
4.23282e-36
4.24155e-36
4.24839e-36
4.25371e-36
4.25779e-36
4.2609e-36
4.26325e-36
4.26499e-36
4.26629e-36
4.26723e-36
4.26792e-36
4.26841e-36
4.26877e-36
4.26902e-36
4.2692e-36
4.26933e-36
4.26942e-36
4.26949e-36
4.26954e-36
4.26958e-36
4.26961e-36
4.26963e-36
4.26966e-36
4.26968e-36
4.26971e-36
4.26973e-36
4.26975e-36
4.26978e-36
4.26981e-36
4.26984e-36
4.26987e-36
4.2699e-36
4.26993e-36
4.26997e-36
4.27001e-36
4.27005e-36
4.27009e-36
4.27014e-36
4.27019e-36
4.27024e-36
4.27029e-36
4.27035e-36
4.27041e-36
4.27047e-36
4.27054e-36
4.27061e-36
4.27068e-36
4.27075e-36
4.27083e-36
4.27091e-36
4.271e-36
4.27109e-36
4.27118e-36
4.27127e-36
4.27137e-36
4.27148e-36
4.27159e-36
4.2717e-36
4.27181e-36
4.27193e-36
4.27206e-36
4.27219e-36
4.27232e-36
4.27246e-36
4.27259e-36
4.27272e-36
4.2728e-36
4.27268e-36
4.27175e-36
4.26766e-36
4.25949e-36
4.25968e-36
4.25992e-36
4.26021e-36
4.26056e-36
4.261e-36
4.26155e-36
4.26222e-36
4.26301e-36
4.26394e-36
4.26499e-36
4.26613e-36
4.26733e-36
4.26854e-36
4.2697e-36
4.27077e-36
4.27168e-36
4.27242e-36
4.27295e-36
4.27328e-36
4.27341e-36
4.27338e-36
4.27322e-36
4.27297e-36
4.27268e-36
4.27239e-36
4.27214e-36
4.27196e-36
4.27189e-36
4.27193e-36
4.2721e-36
4.2724e-36
4.27283e-36
4.27337e-36
4.27401e-36
4.27473e-36
4.27551e-36
4.27634e-36
4.2772e-36
4.27806e-36
4.27891e-36
4.27975e-36
4.28055e-36
4.2813e-36
4.28201e-36
4.28267e-36
4.28328e-36
4.28383e-36
4.28434e-36
4.28479e-36
4.28519e-36
4.28556e-36
4.28588e-36
4.28617e-36
4.28642e-36
4.28665e-36
4.28684e-36
4.28701e-36
4.28715e-36
4.28727e-36
4.28737e-36
4.28744e-36
4.28749e-36
4.28751e-36
4.28752e-36
4.28749e-36
4.28744e-36
4.28737e-36
4.28726e-36
4.28713e-36
4.28696e-36
4.28677e-36
4.28654e-36
4.28628e-36
4.28598e-36
4.28565e-36
4.28528e-36
4.28486e-36
4.28441e-36
4.28392e-36
4.28338e-36
4.28279e-36
4.28216e-36
4.28148e-36
4.28075e-36
4.27997e-36
4.27913e-36
4.27825e-36
4.27731e-36
4.27634e-36
4.2754e-36
4.27474e-36
4.27534e-36
4.28098e-36
4.30606e-36
4.405e-36
4.78195e-36
6.19644e-36
1.1453e-35
3.08304e-35
1.01738e-34
3.59429e-34
1.29005e-33
4.63204e-33
1.65773e-32
5.9122e-32
2.10337e-31
7.4767e-31
2.66087e-30
9.50449e-30
3.41699e-29
1.24016e-28
4.55753e-28
1.70036e-27
6.4528e-27
2.49327e-26
9.80695e-26
3.92222e-25
1.5919e-24
6.54112e-24
2.71432e-23
1.13484e-22
4.77083e-22
2.01335e-21
8.51825e-21
3.60964e-20
1.54069e-19
6.55312e-19
2.78079e-18
1.1792e-17
4.99845e-17
2.11803e-16
8.97176e-16
3.79905e-15
1.60816e-14
6.80521e-14
2.8788e-13
1.2174e-12
5.14623e-12
2.17449e-11
9.18348e-11
3.87606e-10
1.63473e-09
6.88775e-09
2.89821e-08
1.21644e-07
5.08256e-07
2.09897e-06
8.48082e-06
3.26522e-05
0.000112892
0.000305661
0.000500619
0.000502668
0.000406819
0.0002962
0.00020861
0.000146115
0.000102098
7.16778e-05
5.16367e-05
3.62333e-05
2.77951e-05
2.23521e-05
1.87447e-05
1.62652e-05
1.44877e-05
1.31576e-05
1.21219e-05
1.12868e-05
1.05939e-05
1.00056e-05
9.49674e-06
9.05021e-06
8.65381e-06
8.29863e-06
7.97792e-06
7.6865e-06
7.42025e-06
7.17587e-06
6.95064e-06
6.74233e-06
6.54905e-06
6.36922e-06
6.20151e-06
6.04479e-06
5.89817e-06
5.76503e-06
5.64126e-06
5.52378e-06
5.41213e-06
5.30588e-06
5.20465e-06
5.10807e-06
5.01586e-06
4.92771e-06
4.84337e-06
4.7626e-06
4.68518e-06
4.61092e-06
4.53964e-06
4.47115e-06
4.40531e-06
4.34197e-06
4.281e-06
4.22227e-06
4.16566e-06
4.11107e-06
4.0584e-06
4.00756e-06
3.95844e-06
3.91098e-06
3.86509e-06
3.8207e-06
3.77774e-06
3.73614e-06
3.69585e-06
3.65681e-06
3.61896e-06
3.58225e-06
3.54663e-06
3.51205e-06
3.47848e-06
3.44586e-06
3.41415e-06
3.38333e-06
3.35335e-06
3.32418e-06
3.29579e-06
3.26815e-06
3.24122e-06
3.21498e-06
3.1894e-06
3.16447e-06
3.14014e-06
3.11641e-06
3.09325e-06
3.07064e-06
3.04856e-06
3.027e-06
3.00593e-06
2.98534e-06
2.96522e-06
2.94554e-06
2.9263e-06
2.90748e-06
2.88907e-06
2.87105e-06
2.85341e-06
2.83613e-06
2.81921e-06
2.80264e-06
2.78642e-06
2.77053e-06
2.75496e-06
2.73971e-06
2.72477e-06
2.71012e-06
2.69576e-06
2.68168e-06
2.66788e-06
2.65433e-06
2.64104e-06
2.628e-06
2.61519e-06
2.60262e-06
2.59027e-06
2.57814e-06
2.56622e-06
2.55449e-06
2.54297e-06
2.53163e-06
2.52047e-06
2.50949e-06
2.49867e-06
2.48801e-06
2.4775e-06
2.46714e-06
2.45691e-06
2.44681e-06
2.43684e-06
2.42698e-06
2.41722e-06
2.40756e-06
2.398e-06
2.38851e-06
2.3791e-06
2.36975e-06
2.36046e-06
2.35122e-06
2.34201e-06
2.33282e-06
2.32365e-06
2.31449e-06
2.30534e-06
2.29622e-06
2.28716e-06
2.2745e-06
2.26511e-06
2.25561e-06
2.246e-06
2.23625e-06
2.22636e-06
2.21632e-06
2.20609e-06
2.19568e-06
2.18506e-06
2.17423e-06
2.16316e-06
2.15185e-06
2.14029e-06
2.12847e-06
2.11636e-06
2.10398e-06
2.09131e-06
2.07834e-06
2.06506e-06
2.05149e-06
2.03762e-06
2.02344e-06
2.00896e-06
1.99419e-06
1.97914e-06
1.96382e-06
1.94824e-06
1.93241e-06
1.91636e-06
1.90011e-06
1.88368e-06
1.8671e-06
1.85039e-06
1.8336e-06
1.81675e-06
1.79987e-06
1.78302e-06
1.76622e-06
1.74953e-06
1.73297e-06
1.7166e-06
1.70046e-06
1.6846e-06
1.66906e-06
1.65389e-06
1.63913e-06
1.62482e-06
1.61101e-06
1.59774e-06
1.58506e-06
1.57299e-06
1.56157e-06
1.55084e-06
1.54082e-06
1.53154e-06
1.52303e-06
1.5153e-06
1.50838e-06
1.50226e-06
1.49696e-06
1.49248e-06
1.48883e-06
1.48598e-06
1.48394e-06
1.48268e-06
1.4822e-06
1.48246e-06
1.48343e-06
1.48509e-06
1.48739e-06
1.49028e-06
1.49371e-06
1.49759e-06
1.50178e-06
1.50608e-06
1.51004e-06
1.51284e-06
)
;

boundaryField
{
    boundary
    {
        type            empty;
    }
    inlet
    {
        type            fixedValue;
        value           uniform 0;
    }
    outlet
    {
        type            zeroGradient;
    }
}


// ************************************************************************* //
