/*--------------------------------*- C++ -*----------------------------------*\
  =========                 |
  \\      /  F ield         | OpenFOAM: The Open Source CFD Toolbox
   \\    /   O peration     | Website:  https://openfoam.org
    \\  /    A nd           | Version:  7
     \\/     M anipulation  |
\*---------------------------------------------------------------------------*/
FoamFile
{
    version     2.0;
    format      ascii;
    class       volScalarField;
    location    "0.00054";
    object      N2;
}
// * * * * * * * * * * * * * * * * * * * * * * * * * * * * * * * * * * * * * //

dimensions      [0 0 0 0 0 0 0];

internalField   nonuniform List<scalar> 
500
(
0.745219
0.745219
0.745219
0.745219
0.745219
0.745219
0.745219
0.745219
0.745219
0.745219
0.745219
0.745219
0.745219
0.745219
0.745219
0.745219
0.745219
0.745219
0.745219
0.745219
0.745219
0.745219
0.745219
0.745219
0.745219
0.745219
0.745219
0.745219
0.745219
0.745219
0.745219
0.745219
0.745219
0.745219
0.745219
0.745219
0.74522
0.74522
0.74522
0.74522
0.74522
0.74522
0.74522
0.74522
0.74522
0.74522
0.74522
0.74522
0.74522
0.74522
0.74522
0.74522
0.74522
0.74522
0.74522
0.74522
0.74522
0.74522
0.74522
0.74522
0.74522
0.74522
0.74522
0.74522
0.74522
0.74522
0.74522
0.74522
0.74522
0.74522
0.74522
0.74522
0.74522
0.74522
0.74522
0.74522
0.74522
0.74522
0.74522
0.74522
0.74522
0.74522
0.74522
0.74522
0.74522
0.74522
0.74522
0.74522
0.74522
0.74522
0.74522
0.74522
0.74522
0.74522
0.74522
0.74522
0.74522
0.74522
0.74522
0.74522
0.74522
0.74522
0.74522
0.74522
0.74522
0.74522
0.74522
0.74522
0.74522
0.74522
0.74522
0.74522
0.74522
0.74522
0.74522
0.74522
0.74522
0.74522
0.74522
0.74522
0.74522
0.74522
0.74522
0.74522
0.74522
0.74522
0.74522
0.74522
0.74522
0.74522
0.74522
0.74522
0.74522
0.74522
0.74522
0.74522
0.74522
0.74522
0.74522
0.74522
0.74522
0.74522
0.74522
0.74522
0.74522
0.74522
0.74522
0.74522
0.74522
0.74522
0.74522
0.74522
0.74522
0.74522
0.74522
0.74522
0.74522
0.74522
0.74522
0.74522
0.74522
0.74522
0.74522
0.74522
0.74522
0.74522
0.74522
0.74522
0.74522
0.74522
0.74522
0.74522
0.74522
0.74522
0.74522
0.74522
0.74522
0.74522
0.74522
0.74522
0.74522
0.74522
0.74522
0.74522
0.74522
0.74522
0.74522
0.74522
0.74522
0.74522
0.74522
0.74522
0.74522
0.74522
0.74522
0.74522
0.74522
0.74522
0.74522
0.74522
0.74522
0.74522
0.74522
0.74522
0.74522
0.74522
0.74522
0.74522
0.74522
0.74522
0.74522
0.74522
0.74522
0.74522
0.74522
0.74522
0.74522
0.74522
0.74522
0.74522
0.74522
0.74522
0.74522
0.74522
0.74522
0.74522
0.74522
0.74522
0.74522
0.74522
0.74522
0.74522
0.74522
0.74522
0.74522
0.74522
0.74522
0.74522
0.74522
0.74522
0.74522
0.74522
0.74522
0.74522
0.74522
0.74522
0.74522
0.74522
0.74522
0.74522
0.74522
0.74522
0.74522
0.74522
0.74522
0.74522
0.74522
0.74522
0.74522
0.74522
0.74522
0.74522
0.74522
0.74522
0.74522
0.74522
0.74522
0.745221
0.745222
0.745225
0.745231
0.745242
0.745265
0.74531
0.745391
0.745512
0.745619
0.745563
0.745285
0.744862
0.744312
0.743807
0.743611
0.743781
0.744104
0.744278
0.744831
0.74502
0.745151
0.745233
0.745284
0.745313
0.74533
0.745338
0.745342
0.745343
0.745342
0.74534
0.745337
0.745334
0.745331
0.745328
0.745325
0.745322
0.745319
0.745316
0.745314
0.745311
0.745309
0.745307
0.745305
0.745303
0.745301
0.7453
0.745298
0.745297
0.745295
0.745294
0.745293
0.745291
0.74529
0.745289
0.745288
0.745287
0.745286
0.745285
0.745284
0.745283
0.745282
0.745281
0.74528
0.745279
0.745278
0.745277
0.745275
0.745274
0.745273
0.745272
0.745271
0.74527
0.745268
0.745267
0.745266
0.745265
0.745263
0.745262
0.745261
0.74526
0.745258
0.745257
0.745256
0.745255
0.745254
0.745253
0.745252
0.745251
0.74525
0.745249
0.745248
0.745248
0.745247
0.745246
0.745246
0.745245
0.745245
0.745244
0.745244
0.745243
0.745243
0.745243
0.745242
0.745242
0.745241
0.745241
0.745241
0.74524
0.74524
0.745239
0.745239
0.745239
0.745238
0.745238
0.745237
0.745237
0.745236
0.745236
0.745235
0.745235
0.745234
0.745233
0.745232
0.745232
0.745231
0.74523
0.745229
0.745228
0.745227
0.745226
0.745225
0.745223
0.745222
0.745221
0.745219
0.745218
0.745216
0.745214
0.745212
0.74521
0.745208
0.745206
0.745204
0.745202
0.745199
0.745197
0.745194
0.745192
0.745189
0.745186
0.745184
0.745181
0.745178
0.745175
0.745172
0.745169
0.745166
0.745163
0.74516
0.745158
0.745155
0.745153
0.745151
0.745149
0.745148
0.745147
0.745146
0.745145
0.745145
0.745145
0.745146
0.745147
0.745149
0.745151
0.745154
0.745158
0.745162
0.745167
0.745172
0.745178
0.745185
0.745193
0.745202
0.745211
0.745221
0.745231
0.745242
0.745254
0.745267
0.74528
0.745293
0.745307
0.745321
0.745336
0.745351
0.745366
0.745381
0.745396
0.74541
0.745425
0.745439
0.745452
0.745465
0.745477
0.745488
0.745499
0.745508
0.745516
0.745522
0.745528
0.745532
0.745534
0.745535
0.745534
0.745532
0.745528
0.745523
0.745515
0.745507
0.745496
0.745484
0.745471
0.745456
0.745439
0.745422
0.745403
0.745382
0.745361
0.745339
0.745317
0.745297
0.745283
)
;

boundaryField
{
    boundary
    {
        type            empty;
    }
    inlet
    {
        type            fixedValue;
        value           uniform 0.74522;
    }
    outlet
    {
        type            zeroGradient;
    }
}


// ************************************************************************* //
