/*--------------------------------*- C++ -*----------------------------------*\
  =========                 |
  \\      /  F ield         | OpenFOAM: The Open Source CFD Toolbox
   \\    /   O peration     | Website:  https://openfoam.org
    \\  /    A nd           | Version:  7
     \\/     M anipulation  |
\*---------------------------------------------------------------------------*/
FoamFile
{
    version     2.0;
    format      ascii;
    class       volScalarField;
    location    "0.00054";
    object      O;
}
// * * * * * * * * * * * * * * * * * * * * * * * * * * * * * * * * * * * * * //

dimensions      [0 0 0 0 0 0 0];

internalField   nonuniform List<scalar> 
500
(
1.57901e-47
3.77e-47
5.97748e-47
8.19072e-47
1.04074e-46
1.2627e-46
1.48494e-46
1.70752e-46
1.9305e-46
2.15398e-46
2.37815e-46
2.6032e-46
2.82944e-46
3.05722e-46
3.287e-46
3.51932e-46
3.75484e-46
3.99433e-46
4.23864e-46
4.48873e-46
4.74564e-46
5.01046e-46
5.28428e-46
5.56817e-46
5.86311e-46
6.16993e-46
6.48926e-46
6.82143e-46
7.16646e-46
7.52395e-46
7.89307e-46
8.27253e-46
8.66058e-46
9.05502e-46
9.45325e-46
9.85232e-46
1.02491e-45
1.06401e-45
1.10222e-45
1.13919e-45
1.17464e-45
1.20827e-45
1.23987e-45
1.26926e-45
1.29629e-45
1.3209e-45
1.34306e-45
1.36281e-45
1.38022e-45
1.3954e-45
1.4085e-45
1.41968e-45
1.42911e-45
1.437e-45
1.44352e-45
1.44885e-45
1.45317e-45
1.45663e-45
1.45938e-45
1.46153e-45
1.46321e-45
1.4645e-45
1.46548e-45
1.46623e-45
1.46678e-45
1.4672e-45
1.4675e-45
1.46772e-45
1.46788e-45
1.468e-45
1.46808e-45
1.46814e-45
1.46819e-45
1.46822e-45
1.46824e-45
1.46826e-45
1.46828e-45
1.46829e-45
1.4683e-45
1.46831e-45
1.46833e-45
1.46834e-45
1.46835e-45
1.46836e-45
1.46837e-45
1.46839e-45
1.4684e-45
1.46842e-45
1.46843e-45
1.46845e-45
1.46847e-45
1.46849e-45
1.46851e-45
1.46853e-45
1.46855e-45
1.46857e-45
1.4686e-45
1.46862e-45
1.46865e-45
1.46868e-45
1.46871e-45
1.46874e-45
1.46878e-45
1.46881e-45
1.46885e-45
1.46888e-45
1.46892e-45
1.46896e-45
1.46901e-45
1.46905e-45
1.4691e-45
1.46914e-45
1.46919e-45
1.46925e-45
1.4693e-45
1.46935e-45
1.46941e-45
1.46947e-45
1.46953e-45
1.46958e-45
1.46962e-45
1.46962e-45
1.46947e-45
1.46888e-45
1.46704e-45
1.46435e-45
1.46455e-45
1.46481e-45
1.46515e-45
1.46556e-45
1.46604e-45
1.46659e-45
1.46719e-45
1.4678e-45
1.46841e-45
1.46899e-45
1.46952e-45
1.46998e-45
1.47036e-45
1.47067e-45
1.47092e-45
1.47111e-45
1.47126e-45
1.47137e-45
1.47146e-45
1.47154e-45
1.47161e-45
1.47167e-45
1.47173e-45
1.47179e-45
1.47184e-45
1.4719e-45
1.47196e-45
1.47203e-45
1.4721e-45
1.47218e-45
1.47226e-45
1.47236e-45
1.47247e-45
1.47259e-45
1.47273e-45
1.47287e-45
1.47303e-45
1.47319e-45
1.47337e-45
1.47355e-45
1.47373e-45
1.47392e-45
1.4741e-45
1.47429e-45
1.47447e-45
1.47464e-45
1.47481e-45
1.47497e-45
1.47512e-45
1.47526e-45
1.47539e-45
1.47551e-45
1.47562e-45
1.47572e-45
1.47581e-45
1.47589e-45
1.47596e-45
1.47602e-45
1.47607e-45
1.47611e-45
1.47614e-45
1.47616e-45
1.47617e-45
1.47617e-45
1.47616e-45
1.47613e-45
1.47609e-45
1.47604e-45
1.47598e-45
1.47591e-45
1.47583e-45
1.47579e-45
1.47595e-45
1.47706e-45
1.48241e-45
1.50634e-45
1.61092e-45
2.06242e-45
3.99442e-45
1.21934e-44
4.67061e-44
1.90806e-43
7.87568e-43
3.23875e-42
1.32242e-41
5.35672e-41
2.1521e-40
8.57489e-40
3.38828e-39
1.32772e-38
5.15941e-38
1.98819e-37
7.59755e-37
2.87906e-36
1.08191e-35
4.03184e-35
1.49003e-34
5.4611e-34
1.98507e-33
7.15657e-33
2.55912e-32
9.07739e-32
3.19411e-31
1.11505e-30
3.86222e-30
1.32747e-29
4.52805e-29
1.53305e-28
5.1527e-28
1.71959e-27
5.69932e-27
1.87645e-26
6.13888e-26
1.99625e-25
6.45448e-25
2.07578e-24
6.64258e-24
2.11585e-23
6.71097e-23
2.12026e-22
6.67485e-22
2.09453e-21
6.55324e-21
2.04495e-20
6.3663e-20
1.9878e-19
6.1816e-19
1.91481e-18
5.91899e-18
1.8272e-17
5.6351e-17
1.73658e-16
5.34859e-16
1.64664e-15
5.06785e-15
1.55937e-14
4.79734e-14
1.47569e-13
4.53886e-13
1.39591e-12
4.29265e-12
1.31993e-11
4.05816e-11
1.24752e-10
3.83442e-10
1.17865e-09
3.62851e-09
1.12657e-08
3.62926e-08
1.32898e-07
6.52799e-07
4.37127e-06
2.78554e-05
0.000130579
0.000489383
0.00133002
0.00259881
0.00395205
0.00506507
0.005821
0.00625442
0.00642197
0.00644126
0.00637085
0.0062492
0.00610067
0.00594014
0.00577643
0.00561459
0.00545742
0.00530633
0.00516194
0.00502441
0.00489363
0.00476933
0.00465121
0.0045389
0.00443206
0.00433032
0.00423336
0.00414087
0.00405256
0.00396817
0.00388746
0.00381021
0.00373626
0.0036676
0.00360277
0.00354013
0.00347958
0.00342099
0.00336427
0.00330933
0.00325609
0.00320446
0.00315437
0.00310576
0.00305856
0.00301271
0.00296815
0.00292483
0.00288269
0.0028417
0.0028018
0.00276296
0.00272512
0.00268826
0.00265233
0.0026173
0.00258314
0.00254981
0.00251729
0.00248554
0.00245453
0.00242425
0.00239466
0.00236574
0.00233747
0.00230982
0.00228277
0.0022563
0.00223039
0.00220503
0.00218018
0.00215585
0.002132
0.00210863
0.00208571
0.00206324
0.00204119
0.00201957
0.00199834
0.00197751
0.00195706
0.00193698
0.00191725
0.00189788
0.00187884
0.00186014
0.00184176
0.00182369
0.00180593
0.00178847
0.0017713
0.00175442
0.00173782
0.00172149
0.00170542
0.00168962
0.00167407
0.00165876
0.00164367
0.00162881
0.00161419
0.00159979
0.00158562
0.00157166
0.00155792
0.00154438
0.00153105
0.00151792
0.00150498
0.00149223
0.00147967
0.00146728
0.00145508
0.00144305
0.00143119
0.00141949
0.00140795
0.00139657
0.00138535
0.00137427
0.00136334
0.00135255
0.0013419
0.00133139
0.001321
0.00131074
0.00130061
0.00129059
0.00128069
0.0012709
0.00126122
0.00125164
0.00124216
0.00123277
0.00122348
0.00121427
0.00120515
0.0011961
0.00118711
0.0011782
0.00116935
0.00116057
0.001152
0.00114105
0.00113237
0.0011237
0.00111503
0.00110637
0.00109772
0.00108906
0.0010804
0.00107172
0.00106301
0.00105428
0.00104551
0.0010367
0.00102785
0.00101895
0.00100999
0.00100098
0.000991903
0.000982765
0.000973562
0.000964291
0.000954952
0.000945544
0.000936068
0.000926524
0.000916915
0.000907244
0.000897513
0.000887728
0.000877893
0.000868015
0.000858101
0.000848158
0.000838195
0.000828221
0.000818247
0.000808283
0.000798339
0.000788428
0.000778563
0.000768754
0.000759015
0.000749359
0.000739798
0.000730345
0.000721012
0.000711812
0.000702756
0.000693855
0.00068512
0.000676561
0.000668187
0.000660006
0.000652025
0.000644252
0.000636691
0.000629347
0.000622224
0.000615324
0.000608649
0.000602199
0.000595975
0.000589976
0.000584202
0.000578652
0.000573324
0.000568219
0.000563337
0.000558683
0.000554261
0.000550083
0.000546164
0.000542529
0.000539216
0.000536276
0.000533786
0.000531861
0.000530697
)
;

boundaryField
{
    boundary
    {
        type            empty;
    }
    inlet
    {
        type            fixedValue;
        value           uniform 0;
    }
    outlet
    {
        type            zeroGradient;
    }
}


// ************************************************************************* //
