/*--------------------------------*- C++ -*----------------------------------*\
  =========                 |
  \\      /  F ield         | OpenFOAM: The Open Source CFD Toolbox
   \\    /   O peration     | Website:  https://openfoam.org
    \\  /    A nd           | Version:  7
     \\/     M anipulation  |
\*---------------------------------------------------------------------------*/
FoamFile
{
    version     2.0;
    format      ascii;
    class       volScalarField;
    location    "0.00054";
    object      O2;
}
// * * * * * * * * * * * * * * * * * * * * * * * * * * * * * * * * * * * * * //

dimensions      [0 0 0 0 0 0 0];

internalField   nonuniform List<scalar> 
500
(
0.226269
0.226269
0.226269
0.226269
0.226269
0.226269
0.226269
0.226269
0.226269
0.226269
0.226269
0.226269
0.226269
0.226269
0.226269
0.226269
0.226269
0.226269
0.226269
0.226269
0.226269
0.226269
0.226269
0.226269
0.226269
0.226269
0.226269
0.226269
0.226269
0.226269
0.226269
0.226269
0.226269
0.226269
0.226269
0.226269
0.226269
0.226269
0.226269
0.226269
0.226269
0.226269
0.226269
0.226269
0.226269
0.226269
0.226269
0.226269
0.226269
0.226269
0.226269
0.226269
0.226269
0.226269
0.226269
0.226269
0.226269
0.226269
0.226269
0.226269
0.226269
0.226269
0.226269
0.226269
0.226269
0.226269
0.226269
0.226269
0.226269
0.226269
0.226269
0.226269
0.226269
0.226269
0.226269
0.226269
0.226269
0.226269
0.226269
0.226269
0.226269
0.226269
0.226269
0.226269
0.226269
0.226269
0.226269
0.226269
0.226269
0.226269
0.226269
0.226269
0.226269
0.226269
0.226269
0.226269
0.226269
0.226269
0.226269
0.226269
0.226269
0.226269
0.226269
0.226269
0.226269
0.226269
0.226269
0.226269
0.226269
0.226269
0.226269
0.226269
0.226269
0.226269
0.226269
0.226269
0.226269
0.226269
0.226269
0.226269
0.226269
0.226269
0.226269
0.226269
0.226269
0.226269
0.226269
0.226269
0.226269
0.226269
0.226269
0.226269
0.226269
0.226269
0.226269
0.226269
0.226269
0.226269
0.226269
0.226269
0.226269
0.226269
0.226269
0.226269
0.226269
0.226269
0.226269
0.226269
0.226269
0.226269
0.226269
0.226269
0.226269
0.226269
0.226269
0.226269
0.226269
0.226269
0.226269
0.226269
0.226269
0.226269
0.226269
0.226269
0.226269
0.226269
0.226269
0.226269
0.226269
0.226269
0.226269
0.226269
0.226269
0.226269
0.226269
0.226269
0.226269
0.226269
0.226269
0.226269
0.226269
0.226269
0.226269
0.226269
0.226269
0.226269
0.226269
0.226269
0.226269
0.226269
0.226269
0.226269
0.226269
0.226269
0.226269
0.226269
0.226269
0.226269
0.226269
0.226269
0.226269
0.226269
0.226269
0.226269
0.226269
0.226269
0.226269
0.226269
0.226269
0.226269
0.226269
0.226269
0.226269
0.226269
0.226269
0.226269
0.226269
0.226269
0.226269
0.226269
0.226269
0.226269
0.226269
0.226269
0.226269
0.226269
0.226269
0.226269
0.226269
0.226269
0.226269
0.226269
0.226269
0.226269
0.226269
0.226269
0.226269
0.226269
0.226269
0.226269
0.226269
0.226269
0.226269
0.226269
0.226269
0.226269
0.226269
0.226269
0.226269
0.226269
0.226269
0.226269
0.226269
0.226269
0.226269
0.226269
0.226269
0.226269
0.226269
0.226269
0.226269
0.226269
0.226269
0.226269
0.226269
0.226269
0.226269
0.226269
0.22627
0.226271
0.226272
0.226275
0.226278
0.226272
0.226214
0.225931
0.224872
0.221765
0.214622
0.203043
0.188185
0.169226
0.145551
0.119628
0.0959691
0.0777979
0.0615833
0.0521788
0.0458268
0.0415071
0.0385013
0.0363361
0.0347108
0.0334367
0.0323963
0.031516
0.0307493
0.0300663
0.0294474
0.0288793
0.028353
0.0278618
0.0274009
0.0269665
0.0265557
0.0261661
0.0257956
0.0254428
0.025106
0.0247843
0.0244765
0.0241821
0.0239091
0.0236499
0.0233991
0.0231561
0.0229206
0.0226921
0.0224703
0.0222548
0.0220454
0.0218418
0.0216436
0.0214507
0.0212627
0.0210796
0.020901
0.0207269
0.020557
0.0203911
0.0202292
0.020071
0.0199164
0.0197653
0.0196176
0.0194731
0.0193317
0.0191933
0.0190578
0.0189251
0.018795
0.0186675
0.0185426
0.01842
0.0182997
0.0181817
0.0180657
0.0179519
0.01784
0.01773
0.0176219
0.0175155
0.0174108
0.0173078
0.0172063
0.0171064
0.0170079
0.0169109
0.0168152
0.0167208
0.0166277
0.0165359
0.0164453
0.0163558
0.0162675
0.0161803
0.0160942
0.0160091
0.0159251
0.015842
0.01576
0.0156788
0.0155986
0.0155193
0.0154407
0.015363
0.0152861
0.0152104
0.0151355
0.0150615
0.0149883
0.0149159
0.0148443
0.0147735
0.0147034
0.014634
0.0145653
0.0144974
0.01443
0.0143634
0.0142973
0.0142319
0.014167
0.0141027
0.0140389
0.0139755
0.0139127
0.0138503
0.0137884
0.0137268
0.0136656
0.0136048
0.0135442
0.0134839
0.0134239
0.013364
0.0133044
0.0132448
0.0131854
0.013126
0.0130667
0.0130073
0.0129478
0.0128883
0.0128286
0.0127687
0.0127085
0.012648
0.0125871
0.012526
0.0124644
0.0124029
0.0123159
0.0122515
0.0121862
0.0121198
0.0120524
0.0119839
0.011914
0.0118428
0.0117701
0.011696
0.0116202
0.0115428
0.0114638
0.0113829
0.0113003
0.0112159
0.0111295
0.0110413
0.0109512
0.0108591
0.0107651
0.0106693
0.0105715
0.0104719
0.0103704
0.0102672
0.0101624
0.0100559
0.00994795
0.00983862
0.00972804
0.00961635
0.00950369
0.00939023
0.00927615
0.00916163
0.00904687
0.00893206
0.00881743
0.00870318
0.00858953
0.00847671
0.00836494
0.00825445
0.00814545
0.00803816
0.0079328
0.00782957
0.00772868
0.0076303
0.00753463
0.00744183
0.00735206
0.00726545
0.00718215
0.00710226
0.00702589
0.00695312
0.00688402
0.00681866
0.00675707
0.00669928
0.0066453
0.00659513
0.00654874
0.00650611
0.00646719
0.00643191
0.00640019
0.00637193
0.00634702
0.00632533
0.00630669
0.00629092
0.00627782
0.00626722
0.00625909
0.00625394
)
;

boundaryField
{
    boundary
    {
        type            empty;
    }
    inlet
    {
        type            fixedValue;
        value           uniform 0.226269;
    }
    outlet
    {
        type            zeroGradient;
    }
}


// ************************************************************************* //
