/*--------------------------------*- C++ -*----------------------------------*\
  =========                 |
  \\      /  F ield         | OpenFOAM: The Open Source CFD Toolbox
   \\    /   O peration     | Website:  https://openfoam.org
    \\  /    A nd           | Version:  7
     \\/     M anipulation  |
\*---------------------------------------------------------------------------*/
FoamFile
{
    version     2.0;
    format      ascii;
    class       surfaceScalarField;
    location    "0.00054";
    object      phi;
}
// * * * * * * * * * * * * * * * * * * * * * * * * * * * * * * * * * * * * * //

dimensions      [1 0 -1 0 0 0 0];

internalField   nonuniform List<scalar> 
499
(
6.93627e-06
6.93658e-06
6.93685e-06
6.93709e-06
6.9373e-06
6.93751e-06
6.9377e-06
6.9379e-06
6.93809e-06
6.93828e-06
6.93846e-06
6.93864e-06
6.93881e-06
6.93897e-06
6.93912e-06
6.93926e-06
6.93937e-06
6.93945e-06
6.9395e-06
6.93951e-06
6.93947e-06
6.93937e-06
6.93921e-06
6.93898e-06
6.93867e-06
6.93828e-06
6.9378e-06
6.93723e-06
6.93656e-06
6.93579e-06
6.93494e-06
6.93401e-06
6.93299e-06
6.93192e-06
6.93079e-06
6.92963e-06
6.92844e-06
6.92725e-06
6.92608e-06
6.92493e-06
6.92383e-06
6.92278e-06
6.92181e-06
6.92092e-06
6.92011e-06
6.9194e-06
6.91878e-06
6.91825e-06
6.91782e-06
6.91748e-06
6.91722e-06
6.91703e-06
6.91692e-06
6.91688e-06
6.91689e-06
6.91695e-06
6.91705e-06
6.91719e-06
6.91736e-06
6.91756e-06
6.91778e-06
6.91801e-06
6.91826e-06
6.91852e-06
6.91878e-06
6.91906e-06
6.91934e-06
6.91962e-06
6.9199e-06
6.92019e-06
6.92048e-06
6.92077e-06
6.92106e-06
6.92135e-06
6.92164e-06
6.92193e-06
6.92222e-06
6.92252e-06
6.92281e-06
6.9231e-06
6.92339e-06
6.92368e-06
6.92397e-06
6.92426e-06
6.92456e-06
6.92485e-06
6.92514e-06
6.92543e-06
6.92572e-06
6.92601e-06
6.9263e-06
6.92659e-06
6.92688e-06
6.92717e-06
6.92746e-06
6.92775e-06
6.92804e-06
6.92833e-06
6.92862e-06
6.9289e-06
6.92919e-06
6.92948e-06
6.92977e-06
6.93006e-06
6.93035e-06
6.93063e-06
6.93092e-06
6.93121e-06
6.9315e-06
6.93178e-06
6.93207e-06
6.93236e-06
6.93264e-06
6.93293e-06
6.93321e-06
6.9335e-06
6.93378e-06
6.93407e-06
6.93436e-06
6.93464e-06
6.93492e-06
6.93521e-06
6.93549e-06
6.93578e-06
6.93607e-06
6.93636e-06
6.93664e-06
6.93693e-06
6.93722e-06
6.9375e-06
6.93778e-06
6.93806e-06
6.93834e-06
6.93862e-06
6.9389e-06
6.93918e-06
6.93946e-06
6.93974e-06
6.94002e-06
6.9403e-06
6.94058e-06
6.94086e-06
6.94114e-06
6.94142e-06
6.9417e-06
6.94198e-06
6.94226e-06
6.94254e-06
6.94282e-06
6.94309e-06
6.94337e-06
6.94365e-06
6.94393e-06
6.9442e-06
6.94448e-06
6.94476e-06
6.94503e-06
6.94531e-06
6.94559e-06
6.94586e-06
6.94614e-06
6.94641e-06
6.94669e-06
6.94696e-06
6.94724e-06
6.94751e-06
6.94779e-06
6.94806e-06
6.94833e-06
6.94861e-06
6.94888e-06
6.94915e-06
6.94943e-06
6.9497e-06
6.94997e-06
6.95025e-06
6.95052e-06
6.9508e-06
6.95107e-06
6.95134e-06
6.95162e-06
6.95189e-06
6.95216e-06
6.95244e-06
6.95271e-06
6.95299e-06
6.95326e-06
6.95354e-06
6.95381e-06
6.95409e-06
6.95436e-06
6.95464e-06
6.95491e-06
6.95519e-06
6.95546e-06
6.95574e-06
6.95602e-06
6.9563e-06
6.95657e-06
6.95685e-06
6.95713e-06
6.95741e-06
6.95769e-06
6.95797e-06
6.95825e-06
6.95853e-06
6.95881e-06
6.9591e-06
6.95938e-06
6.95967e-06
6.95995e-06
6.96024e-06
6.96052e-06
6.96081e-06
6.9611e-06
6.96139e-06
6.96168e-06
6.96197e-06
6.96226e-06
6.96255e-06
6.96284e-06
6.96314e-06
6.96343e-06
6.96373e-06
6.96403e-06
6.96433e-06
6.96463e-06
6.96493e-06
6.96523e-06
6.96553e-06
6.96584e-06
6.96614e-06
6.96645e-06
6.96675e-06
6.96706e-06
6.96737e-06
6.96768e-06
6.968e-06
6.96831e-06
6.96862e-06
6.96894e-06
6.96925e-06
6.96957e-06
6.96989e-06
6.97021e-06
6.97053e-06
6.97085e-06
6.97117e-06
6.9715e-06
6.97182e-06
6.97215e-06
6.97248e-06
6.97281e-06
6.97314e-06
6.97347e-06
6.9738e-06
6.97413e-06
6.97446e-06
6.97479e-06
6.97511e-06
6.97544e-06
6.97577e-06
6.97611e-06
6.97644e-06
6.97677e-06
6.9771e-06
6.97744e-06
6.97777e-06
6.97811e-06
6.97847e-06
6.97889e-06
6.97948e-06
6.9806e-06
6.98325e-06
6.99014e-06
7.00756e-06
7.04408e-06
7.09557e-06
7.1414e-06
7.17222e-06
7.19199e-06
7.2054e-06
7.21489e-06
7.22164e-06
7.22645e-06
7.22988e-06
7.23239e-06
7.23431e-06
7.23582e-06
7.23705e-06
7.23808e-06
7.23895e-06
7.2397e-06
7.24037e-06
7.24095e-06
7.24148e-06
7.24195e-06
7.24238e-06
7.24278e-06
7.24315e-06
7.24349e-06
7.2438e-06
7.2441e-06
7.24437e-06
7.24464e-06
7.24489e-06
7.24512e-06
7.24535e-06
7.24557e-06
7.24577e-06
7.24597e-06
7.24617e-06
7.24634e-06
7.24651e-06
7.24668e-06
7.24684e-06
7.247e-06
7.24716e-06
7.24731e-06
7.24746e-06
7.2476e-06
7.24775e-06
7.24789e-06
7.24802e-06
7.24815e-06
7.24828e-06
7.24841e-06
7.24853e-06
7.24866e-06
7.24877e-06
7.24889e-06
7.249e-06
7.24911e-06
7.24921e-06
7.24931e-06
7.24941e-06
7.2495e-06
7.2496e-06
7.24969e-06
7.24977e-06
7.24986e-06
7.24994e-06
7.25002e-06
7.2501e-06
7.25017e-06
7.25024e-06
7.25032e-06
7.25039e-06
7.25046e-06
7.25053e-06
7.2506e-06
7.25066e-06
7.25073e-06
7.2508e-06
7.25087e-06
7.25093e-06
7.251e-06
7.25107e-06
7.25114e-06
7.25121e-06
7.25127e-06
7.25134e-06
7.25141e-06
7.25148e-06
7.25155e-06
7.25162e-06
7.25169e-06
7.25176e-06
7.25183e-06
7.2519e-06
7.25197e-06
7.25204e-06
7.25211e-06
7.25217e-06
7.25224e-06
7.2523e-06
7.25236e-06
7.25242e-06
7.25248e-06
7.25254e-06
7.25259e-06
7.25265e-06
7.2527e-06
7.25275e-06
7.25281e-06
7.25285e-06
7.2529e-06
7.25294e-06
7.25299e-06
7.25302e-06
7.25306e-06
7.2531e-06
7.25313e-06
7.25316e-06
7.25318e-06
7.25321e-06
7.25323e-06
7.25325e-06
7.25326e-06
7.25327e-06
7.25328e-06
7.25329e-06
7.25329e-06
7.2533e-06
7.2533e-06
7.2533e-06
7.25329e-06
7.25329e-06
7.25329e-06
7.25328e-06
7.25328e-06
7.25328e-06
7.25328e-06
7.25329e-06
7.2533e-06
7.25332e-06
7.25335e-06
7.25338e-06
7.25341e-06
7.25355e-06
7.25329e-06
7.253e-06
7.2527e-06
7.25281e-06
7.25288e-06
7.25299e-06
7.25311e-06
7.25325e-06
7.25341e-06
7.25359e-06
7.25379e-06
7.25401e-06
7.25424e-06
7.2545e-06
7.25477e-06
7.25507e-06
7.25538e-06
7.25572e-06
7.25607e-06
7.25645e-06
7.25684e-06
7.25724e-06
7.25765e-06
7.25808e-06
7.2585e-06
7.25893e-06
7.25934e-06
7.25974e-06
7.26013e-06
7.26048e-06
7.26079e-06
7.26106e-06
7.26127e-06
7.26141e-06
7.26148e-06
7.26145e-06
7.26131e-06
7.26106e-06
7.26067e-06
7.26014e-06
7.25945e-06
7.25859e-06
7.25754e-06
7.25629e-06
7.25483e-06
7.25315e-06
7.25123e-06
7.24907e-06
7.24666e-06
7.24398e-06
7.24104e-06
7.23784e-06
7.23436e-06
7.23061e-06
7.2266e-06
7.22232e-06
7.21778e-06
7.213e-06
7.20798e-06
7.20274e-06
7.19729e-06
7.19165e-06
7.18585e-06
7.17989e-06
7.17382e-06
7.16764e-06
7.16139e-06
7.15509e-06
7.14877e-06
7.14246e-06
7.13619e-06
7.12998e-06
7.12386e-06
7.11785e-06
7.11199e-06
7.10628e-06
7.10074e-06
7.09538e-06
7.09017e-06
)
;

boundaryField
{
    boundary
    {
        type            empty;
        value           nonuniform 0();
    }
    inlet
    {
        type            calculated;
        value           uniform -6.9359e-06;
    }
    outlet
    {
        type            calculated;
        value           uniform 7.08508e-06;
    }
}


// ************************************************************************* //
