/*--------------------------------*- C++ -*----------------------------------*\
  =========                 |
  \\      /  F ield         | OpenFOAM: The Open Source CFD Toolbox
   \\    /   O peration     | Website:  https://openfoam.org
    \\  /    A nd           | Version:  7
     \\/     M anipulation  |
\*---------------------------------------------------------------------------*/
FoamFile
{
    version     2.0;
    format      ascii;
    class       volScalarField;
    location    "0.00054";
    object      Qdot;
}
// * * * * * * * * * * * * * * * * * * * * * * * * * * * * * * * * * * * * * //

dimensions      [1 -1 -3 0 0 0 0];

internalField   nonuniform List<scalar> 
500
(
-2.45334e-27
-1.86368e-27
-1.73763e-27
-1.71185e-27
-1.70791e-27
-1.7088e-27
-1.71082e-27
-1.71313e-27
-1.71554e-27
-1.71803e-27
-1.72063e-27
-1.72337e-27
-1.72632e-27
-1.72955e-27
-1.73314e-27
-1.7372e-27
-1.74185e-27
-1.74722e-27
-1.75349e-27
-1.76081e-27
-1.76937e-27
-1.77937e-27
-1.79102e-27
-1.80451e-27
-1.82003e-27
-1.83777e-27
-1.85788e-27
-1.88048e-27
-1.90567e-27
-1.93346e-27
-1.96385e-27
-1.99673e-27
-2.03196e-27
-2.06932e-27
-2.1085e-27
-2.14915e-27
-2.19086e-27
-2.23318e-27
-2.27562e-27
-2.31768e-27
-2.35888e-27
-2.39875e-27
-2.43687e-27
-2.47287e-27
-2.50647e-27
-2.53744e-27
-2.56564e-27
-2.59102e-27
-2.61358e-27
-2.63341e-27
-2.65063e-27
-2.66541e-27
-2.67795e-27
-2.68848e-27
-2.69723e-27
-2.70441e-27
-2.71025e-27
-2.71494e-27
-2.71868e-27
-2.72162e-27
-2.72392e-27
-2.72569e-27
-2.72705e-27
-2.72808e-27
-2.72885e-27
-2.72943e-27
-2.72985e-27
-2.73017e-27
-2.73039e-27
-2.73056e-27
-2.73068e-27
-2.73076e-27
-2.73082e-27
-2.73087e-27
-2.7309e-27
-2.73093e-27
-2.73095e-27
-2.73097e-27
-2.73099e-27
-2.731e-27
-2.73102e-27
-2.73103e-27
-2.73105e-27
-2.73106e-27
-2.73108e-27
-2.7311e-27
-2.73112e-27
-2.73114e-27
-2.73116e-27
-2.73119e-27
-2.73121e-27
-2.73124e-27
-2.73127e-27
-2.7313e-27
-2.73133e-27
-2.73136e-27
-2.7314e-27
-2.73143e-27
-2.73147e-27
-2.73151e-27
-2.73156e-27
-2.7316e-27
-2.73165e-27
-2.7317e-27
-2.73175e-27
-2.7318e-27
-2.73186e-27
-2.73191e-27
-2.73198e-27
-2.73204e-27
-2.7321e-27
-2.73217e-27
-2.73224e-27
-2.73232e-27
-2.73239e-27
-2.73247e-27
-2.73255e-27
-2.73264e-27
-2.73272e-27
-2.73281e-27
-2.7329e-27
-2.73299e-27
-2.73308e-27
-2.73316e-27
-2.73328e-27
-2.73346e-27
-2.7334e-27
-2.73341e-27
-2.73348e-27
-2.73359e-27
-2.73374e-27
-2.7339e-27
-2.73408e-27
-2.73425e-27
-2.73443e-27
-2.73459e-27
-2.73475e-27
-2.73491e-27
-2.73506e-27
-2.73521e-27
-2.73535e-27
-2.7355e-27
-2.73564e-27
-2.73579e-27
-2.73594e-27
-2.73609e-27
-2.73624e-27
-2.7364e-27
-2.73655e-27
-2.73671e-27
-2.73686e-27
-2.73702e-27
-2.73718e-27
-2.73735e-27
-2.73751e-27
-2.73768e-27
-2.73785e-27
-2.73803e-27
-2.7382e-27
-2.73838e-27
-2.73856e-27
-2.73874e-27
-2.73893e-27
-2.73911e-27
-2.7393e-27
-2.73949e-27
-2.73967e-27
-2.73985e-27
-2.74004e-27
-2.74021e-27
-2.74039e-27
-2.74056e-27
-2.74072e-27
-2.74088e-27
-2.74103e-27
-2.74117e-27
-2.74131e-27
-2.74144e-27
-2.74156e-27
-2.74167e-27
-2.74177e-27
-2.74186e-27
-2.74194e-27
-2.74201e-27
-2.74207e-27
-2.74211e-27
-2.74215e-27
-2.74217e-27
-2.74217e-27
-2.74216e-27
-2.74214e-27
-2.7421e-27
-2.74204e-27
-2.74196e-27
-2.74187e-27
-2.74175e-27
-2.74162e-27
-2.74146e-27
-2.74129e-27
-2.74109e-27
-2.74086e-27
-2.74061e-27
-2.74034e-27
-2.74004e-27
-2.73971e-27
-2.73935e-27
-2.73897e-27
-2.73855e-27
-2.7381e-27
-2.73762e-27
-2.73708e-27
-2.73645e-27
-2.73554e-27
-2.73358e-27
-2.72767e-27
-2.7064e-27
-2.62599e-27
-2.3191e-27
-1.15217e-27
3.25364e-27
1.97551e-26
8.105e-26
3.06846e-25
1.13174e-24
4.1205e-24
1.48607e-23
5.31427e-23
1.88494e-22
6.63232e-22
2.31523e-21
8.01918e-21
2.75628e-20
9.40221e-20
3.1836e-19
1.07021e-18
3.57249e-18
1.18451e-17
3.90211e-17
1.27766e-16
4.15976e-16
1.34734e-15
4.34418e-15
1.39531e-14
4.46844e-14
1.42839e-13
4.56424e-13
1.46064e-12
4.69305e-12
1.5189e-11
4.97269e-11
1.65534e-10
5.66635e-10
1.98983e-09
7.21248e-09
2.71165e-08
1.05847e-07
4.2801e-07
1.78492e-06
7.63438e-06
3.33055e-05
0.000147497
0.000660558
0.00298354
0.0135683
0.0620839
0.285881
1.32645
6.21727
29.6718
155.686
884.849
6524.02
49216.4
427906
4.00827e+06
3.8137e+07
3.32912e+08
2.09755e+09
7.03955e+09
1.20768e+10
1.37514e+10
1.39234e+10
1.39412e+10
1.3556e+10
1.2369e+10
1.0523e+10
8.53361e+09
6.93462e+09
5.74701e+09
4.83956e+09
4.1468e+09
3.60963e+09
3.18489e+09
2.84229e+09
2.56077e+09
2.32562e+09
2.12636e+09
1.95543e+09
1.80726e+09
1.67763e+09
1.56335e+09
1.46188e+09
1.37125e+09
1.28986e+09
1.21641e+09
1.14984e+09
1.08927e+09
1.03395e+09
9.83259e+08
9.36686e+08
8.93794e+08
8.54271e+08
8.1873e+08
7.86216e+08
7.55657e+08
7.26993e+08
7.00037e+08
6.74651e+08
6.50696e+08
6.28065e+08
6.06659e+08
5.86386e+08
5.67162e+08
5.48912e+08
5.31571e+08
5.15075e+08
4.99368e+08
4.84397e+08
4.70116e+08
4.56481e+08
4.43453e+08
4.30993e+08
4.19068e+08
4.07647e+08
3.967e+08
3.862e+08
3.76123e+08
3.66444e+08
3.57143e+08
3.48199e+08
3.39593e+08
3.31308e+08
3.23327e+08
3.15635e+08
3.08217e+08
3.01061e+08
2.94152e+08
2.8748e+08
2.81034e+08
2.74802e+08
2.68775e+08
2.62944e+08
2.57299e+08
2.51833e+08
2.46538e+08
2.41406e+08
2.3643e+08
2.31605e+08
2.26923e+08
2.22378e+08
2.17966e+08
2.13681e+08
2.09518e+08
2.05472e+08
2.01539e+08
1.97714e+08
1.93994e+08
1.90375e+08
1.86852e+08
1.83423e+08
1.80085e+08
1.76834e+08
1.73667e+08
1.70583e+08
1.67582e+08
1.64662e+08
1.61812e+08
1.59018e+08
1.5629e+08
1.53629e+08
1.51032e+08
1.48497e+08
1.46023e+08
1.43606e+08
1.41245e+08
1.38939e+08
1.36685e+08
1.34483e+08
1.3233e+08
1.30225e+08
1.28167e+08
1.26154e+08
1.24185e+08
1.22259e+08
1.20374e+08
1.18529e+08
1.16723e+08
1.14956e+08
1.13225e+08
1.1153e+08
1.0987e+08
1.08245e+08
1.06652e+08
1.05092e+08
1.03563e+08
1.02065e+08
1.00596e+08
9.91571e+07
9.77461e+07
9.63629e+07
9.50066e+07
9.36768e+07
9.23728e+07
9.10939e+07
8.984e+07
8.86105e+07
8.74052e+07
8.62253e+07
8.50768e+07
8.40062e+07
8.28567e+07
8.18988e+07
8.01105e+07
7.91928e+07
7.82026e+07
7.71972e+07
7.61949e+07
7.52019e+07
7.42213e+07
7.32529e+07
7.22973e+07
7.13544e+07
7.04238e+07
6.95049e+07
6.85973e+07
6.77005e+07
6.6814e+07
6.59372e+07
6.50695e+07
6.42105e+07
6.33594e+07
6.25159e+07
6.1678e+07
6.08475e+07
6.00225e+07
5.92022e+07
5.83862e+07
5.75738e+07
5.67645e+07
5.59576e+07
5.51526e+07
5.43488e+07
5.35458e+07
5.2743e+07
5.19393e+07
5.11353e+07
5.03301e+07
4.95231e+07
4.8714e+07
4.79026e+07
4.70886e+07
4.62718e+07
4.5452e+07
4.46291e+07
4.3803e+07
4.29738e+07
4.21415e+07
4.13062e+07
4.04682e+07
3.96275e+07
3.87845e+07
3.79395e+07
3.70927e+07
3.62447e+07
3.53958e+07
3.45464e+07
3.3697e+07
3.28482e+07
3.20004e+07
3.11542e+07
3.03101e+07
2.94686e+07
2.86304e+07
2.7796e+07
2.69661e+07
2.61413e+07
2.53222e+07
2.45095e+07
2.37038e+07
2.29058e+07
2.2116e+07
2.13353e+07
2.05642e+07
1.98036e+07
1.90531e+07
1.83127e+07
1.75835e+07
1.6869e+07
1.61931e+07
1.56685e+07
)
;

boundaryField
{
    boundary
    {
        type            empty;
    }
    inlet
    {
        type            calculated;
        value           uniform 0;
    }
    outlet
    {
        type            calculated;
        value           uniform 0;
    }
}


// ************************************************************************* //
