/*--------------------------------*- C++ -*----------------------------------*\
  =========                 |
  \\      /  F ield         | OpenFOAM: The Open Source CFD Toolbox
   \\    /   O peration     | Website:  https://openfoam.org
    \\  /    A nd           | Version:  7
     \\/     M anipulation  |
\*---------------------------------------------------------------------------*/
FoamFile
{
    version     2.0;
    format      ascii;
    class       volScalarField;
    location    "0.00054";
    object      rho;
}
// * * * * * * * * * * * * * * * * * * * * * * * * * * * * * * * * * * * * * //

dimensions      [1 -3 0 0 0 0 0];

internalField   nonuniform List<scalar> 
500
(
0.865396
0.865396
0.86539
0.865382
0.865371
0.865359
0.865346
0.865333
0.865319
0.865305
0.865291
0.865276
0.865259
0.865241
0.865221
0.865199
0.865173
0.865144
0.865109
0.865069
0.865023
0.864969
0.864907
0.864835
0.864753
0.864661
0.864557
0.864441
0.864314
0.864176
0.864027
0.863868
0.863701
0.863527
0.863347
0.863164
0.86298
0.862797
0.862616
0.862441
0.862271
0.86211
0.861958
0.861817
0.861687
0.861568
0.861461
0.861365
0.861281
0.861208
0.861144
0.86109
0.861044
0.861005
0.860974
0.860947
0.860926
0.860909
0.860895
0.860884
0.860876
0.860869
0.860864
0.860861
0.860858
0.860856
0.860854
0.860853
0.860852
0.860851
0.860851
0.86085
0.86085
0.86085
0.860849
0.860849
0.860849
0.860849
0.860849
0.860849
0.860849
0.860848
0.860848
0.860848
0.860848
0.860848
0.860848
0.860848
0.860847
0.860847
0.860847
0.860847
0.860847
0.860847
0.860846
0.860846
0.860846
0.860846
0.860846
0.860845
0.860845
0.860845
0.860845
0.860844
0.860844
0.860844
0.860843
0.860843
0.860843
0.860842
0.860842
0.860842
0.860841
0.860841
0.860841
0.86084
0.86084
0.86084
0.860839
0.860839
0.860838
0.860838
0.860837
0.860837
0.860836
0.860836
0.860836
0.860836
0.860835
0.860835
0.860834
0.860834
0.860833
0.860832
0.860831
0.860831
0.86083
0.860829
0.860829
0.860828
0.860827
0.860827
0.860826
0.860825
0.860825
0.860824
0.860823
0.860823
0.860822
0.860821
0.860821
0.86082
0.860819
0.860819
0.860818
0.860817
0.860816
0.860816
0.860815
0.860814
0.860813
0.860812
0.860812
0.860811
0.86081
0.860809
0.860808
0.860808
0.860807
0.860806
0.860805
0.860805
0.860804
0.860803
0.860802
0.860802
0.860801
0.860801
0.8608
0.860799
0.860799
0.860798
0.860798
0.860798
0.860797
0.860797
0.860797
0.860796
0.860796
0.860796
0.860796
0.860796
0.860796
0.860796
0.860796
0.860796
0.860797
0.860797
0.860797
0.860798
0.860799
0.860799
0.8608
0.860801
0.860802
0.860803
0.860804
0.860805
0.860807
0.860808
0.86081
0.860811
0.860813
0.860815
0.860817
0.86082
0.860822
0.860824
0.860827
0.86083
0.860833
0.860836
0.860839
0.860842
0.860846
0.86085
0.860853
0.860857
0.860861
0.860866
0.86087
0.860875
0.86088
0.860885
0.86089
0.860895
0.8609
0.860906
0.860912
0.860918
0.860924
0.86093
0.860936
0.860943
0.860949
0.860956
0.860963
0.86097
0.860978
0.860985
0.860993
0.861001
0.861009
0.861017
0.861025
0.861033
0.861041
0.861049
0.861057
0.861066
0.861074
0.861083
0.861091
0.8611
0.861109
0.861119
0.861129
0.861137
0.86114
0.861119
0.86102
0.860672
0.859562
0.85618
0.846229
0.818564
0.751705
0.633178
0.498592
0.394112
0.325513
0.280047
0.248234
0.225551
0.209715
0.19798
0.188868
0.182299
0.177429
0.173499
0.170264
0.167541
0.165208
0.163179
0.161393
0.159806
0.158382
0.157095
0.155925
0.154855
0.153872
0.152964
0.152123
0.151341
0.150612
0.149929
0.149289
0.148687
0.14812
0.147584
0.147078
0.1466
0.146159
0.145747
0.145351
0.144971
0.144605
0.144254
0.143916
0.14359
0.143276
0.142972
0.142679
0.142395
0.142121
0.141855
0.141598
0.141348
0.141106
0.140871
0.140642
0.14042
0.140204
0.139994
0.13979
0.13959
0.139396
0.139207
0.139022
0.138842
0.138666
0.138495
0.138327
0.138163
0.138003
0.137846
0.137693
0.137543
0.137396
0.137253
0.137112
0.136974
0.136839
0.136707
0.136577
0.13645
0.136325
0.136203
0.136083
0.135965
0.135849
0.135736
0.135624
0.135514
0.135407
0.135301
0.135197
0.135095
0.134994
0.134895
0.134798
0.134702
0.134608
0.134515
0.134424
0.134334
0.134246
0.134158
0.134072
0.133987
0.133904
0.133822
0.13374
0.13366
0.133581
0.133503
0.133427
0.133351
0.133276
0.133202
0.133129
0.133057
0.132986
0.132915
0.132846
0.132777
0.13271
0.132643
0.132576
0.132511
0.132446
0.132382
0.132319
0.132256
0.132195
0.132133
0.132073
0.132013
0.131954
0.131896
0.131838
0.131781
0.131725
0.131669
0.131614
0.13156
0.131506
0.131454
0.131402
0.131351
0.131299
0.131249
0.131185
0.131134
0.131087
0.13104
0.130993
0.130948
0.130904
0.13086
0.130817
0.130775
0.130733
0.130693
0.130653
0.130614
0.130576
0.130539
0.130502
0.130466
0.130431
0.130396
0.130362
0.130329
0.130296
0.130263
0.13023
0.130197
0.130165
0.130132
0.130099
0.130065
0.13003
0.129994
0.129958
0.129919
0.12988
0.129838
0.129794
0.129748
0.1297
0.129649
0.129594
0.129537
0.129476
0.129412
0.129344
0.129272
0.129196
0.129116
0.129032
0.128943
0.128851
0.128754
0.128653
0.128549
0.12844
0.128328
0.128213
0.128095
0.127974
0.12785
0.127724
0.127597
0.127469
0.127339
0.12721
0.12708
0.126951
0.126822
0.126695
0.12657
0.126447
0.126326
0.126208
0.126093
0.125983
0.125881
0.125793
0.125733
)
;

boundaryField
{
    boundary
    {
        type            empty;
    }
    inlet
    {
        type            calculated;
        value           uniform 0.865393;
    }
    outlet
    {
        type            calculated;
        value           uniform 0.125733;
    }
}


// ************************************************************************* //
