/*--------------------------------*- C++ -*----------------------------------*\
  =========                 |
  \\      /  F ield         | OpenFOAM: The Open Source CFD Toolbox
   \\    /   O peration     | Website:  https://openfoam.org
    \\  /    A nd           | Version:  7
     \\/     M anipulation  |
\*---------------------------------------------------------------------------*/
FoamFile
{
    version     2.0;
    format      ascii;
    class       volScalarField;
    location    "0.00054";
    object      T;
}
// * * * * * * * * * * * * * * * * * * * * * * * * * * * * * * * * * * * * * //

dimensions      [0 0 0 1 0 0 0];

internalField   nonuniform List<scalar> 
500
(
299.999
299.999
300.001
300.004
300.008
300.012
300.016
300.021
300.025
300.03
300.035
300.041
300.046
300.053
300.059
300.067
300.076
300.086
300.098
300.112
300.128
300.147
300.169
300.193
300.222
300.254
300.29
300.33
300.374
300.422
300.474
300.529
300.588
300.648
300.711
300.774
300.838
300.902
300.965
301.027
301.086
301.142
301.195
301.244
301.29
301.332
301.369
301.402
301.432
301.457
301.48
301.499
301.515
301.528
301.539
301.549
301.556
301.562
301.567
301.571
301.573
301.576
301.577
301.579
301.58
301.581
301.581
301.581
301.582
301.582
301.582
301.582
301.582
301.582
301.582
301.582
301.583
301.583
301.583
301.583
301.583
301.583
301.583
301.583
301.583
301.583
301.583
301.583
301.583
301.583
301.583
301.583
301.583
301.583
301.583
301.583
301.583
301.583
301.583
301.583
301.583
301.583
301.583
301.583
301.584
301.584
301.584
301.584
301.584
301.584
301.584
301.584
301.584
301.584
301.584
301.584
301.584
301.585
301.585
301.585
301.585
301.585
301.585
301.585
301.585
301.586
301.586
301.586
301.586
301.586
301.586
301.586
301.586
301.587
301.587
301.587
301.587
301.587
301.588
301.588
301.588
301.588
301.588
301.589
301.589
301.589
301.589
301.589
301.589
301.59
301.59
301.59
301.59
301.59
301.591
301.591
301.591
301.591
301.591
301.592
301.592
301.592
301.592
301.593
301.593
301.593
301.593
301.594
301.594
301.594
301.594
301.594
301.595
301.595
301.595
301.595
301.595
301.595
301.596
301.596
301.596
301.596
301.596
301.596
301.596
301.596
301.596
301.596
301.596
301.596
301.596
301.596
301.596
301.596
301.596
301.596
301.596
301.596
301.595
301.595
301.595
301.595
301.594
301.594
301.593
301.593
301.593
301.592
301.591
301.591
301.59
301.59
301.589
301.588
301.587
301.586
301.586
301.585
301.584
301.583
301.582
301.58
301.579
301.578
301.577
301.575
301.574
301.572
301.571
301.569
301.568
301.566
301.564
301.562
301.561
301.559
301.557
301.555
301.553
301.55
301.548
301.546
301.544
301.541
301.539
301.536
301.534
301.531
301.529
301.526
301.523
301.52
301.517
301.514
301.512
301.509
301.506
301.503
301.5
301.497
301.494
301.491
301.488
301.485
301.482
301.479
301.477
301.476
301.48
301.498
301.556
301.725
302.214
303.614
307.607
318.869
348.967
417.619
536.016
686.264
840.99
988.598
1125.93
1248.13
1349.41
1435.1
1507.94
1565.96
1612.29
1651.9
1686.17
1716.27
1743.03
1767.06
1788.84
1808.71
1826.95
1843.78
1859.39
1873.92
1887.5
1900.22
1912.18
1923.45
1934.1
1944.18
1953.74
1962.83
1971.48
1979.72
1987.59
1995.09
2002.06
2008.61
2014.96
2021.09
2027.02
2032.76
2038.32
2043.71
2048.94
2054.02
2058.96
2063.75
2068.42
2072.96
2077.38
2081.69
2085.88
2089.98
2093.97
2097.87
2101.68
2105.4
2109.03
2112.59
2116.06
2119.47
2122.8
2126.06
2129.25
2132.38
2135.45
2138.45
2141.4
2144.29
2147.13
2149.91
2152.64
2155.32
2157.95
2160.54
2163.08
2165.58
2168.03
2170.44
2172.81
2175.14
2177.43
2179.69
2181.91
2184.09
2186.24
2188.35
2190.43
2192.48
2194.5
2196.49
2198.44
2200.37
2202.27
2204.15
2205.99
2207.81
2209.6
2211.36
2213.1
2214.83
2216.53
2218.2
2219.86
2221.49
2223.11
2224.7
2226.27
2227.83
2229.36
2230.88
2232.37
2233.85
2235.31
2236.75
2238.18
2239.59
2240.98
2242.36
2243.72
2245.07
2246.4
2247.72
2249.02
2250.3
2251.57
2252.83
2254.07
2255.29
2256.51
2257.7
2258.89
2260.05
2261.21
2262.34
2263.46
2264.57
2265.66
2266.73
2267.79
2268.83
2269.85
2270.85
2271.87
2272.85
2274.04
2275.02
2275.93
2276.83
2277.72
2278.58
2279.42
2280.24
2281.04
2281.82
2282.58
2283.31
2284.03
2284.73
2285.4
2286.06
2286.69
2287.31
2287.9
2288.48
2289.04
2289.59
2290.12
2290.64
2291.15
2291.65
2292.15
2292.65
2293.15
2293.65
2294.16
2294.69
2295.23
2295.8
2296.39
2297.01
2297.66
2298.36
2299.1
2299.9
2300.74
2301.65
2302.62
2303.66
2304.77
2305.95
2307.22
2308.56
2309.99
2311.5
2313.1
2314.79
2316.56
2318.42
2320.36
2322.38
2324.47
2326.64
2328.88
2331.19
2333.55
2335.96
2338.41
2340.9
2343.42
2345.95
2348.5
2351.05
2353.59
2356.12
2358.61
2361.08
2363.49
2365.83
2368.07
2370.14
2371.92
2373.11
)
;

boundaryField
{
    boundary
    {
        type            empty;
    }
    inlet
    {
        type            fixedValue;
        value           uniform 300;
    }
    outlet
    {
        type            zeroGradient;
    }
}


// ************************************************************************* //
