/*--------------------------------*- C++ -*----------------------------------*\
  =========                 |
  \\      /  F ield         | OpenFOAM: The Open Source CFD Toolbox
   \\    /   O peration     | Website:  https://openfoam.org
    \\  /    A nd           | Version:  7
     \\/     M anipulation  |
\*---------------------------------------------------------------------------*/
FoamFile
{
    version     2.0;
    format      ascii;
    class       volVectorField;
    location    "0.00054";
    object      U;
}
// * * * * * * * * * * * * * * * * * * * * * * * * * * * * * * * * * * * * * //

dimensions      [0 1 -1 0 0 0 0];

internalField   nonuniform List<vector> 
500
(
(2.34897 0 0)
(2.3491 0 0)
(2.34922 0 0)
(2.34933 0 0)
(2.34943 0 0)
(2.34953 0 0)
(2.34964 0 0)
(2.34974 0 0)
(2.34984 0 0)
(2.34994 0 0)
(2.35005 0 0)
(2.35015 0 0)
(2.35025 0 0)
(2.35036 0 0)
(2.35047 0 0)
(2.35058 0 0)
(2.35069 0 0)
(2.3508 0 0)
(2.35092 0 0)
(2.35104 0 0)
(2.35116 0 0)
(2.35128 0 0)
(2.35141 0 0)
(2.35154 0 0)
(2.35167 0 0)
(2.3518 0 0)
(2.35194 0 0)
(2.35207 0 0)
(2.35221 0 0)
(2.35234 0 0)
(2.35247 0 0)
(2.3526 0 0)
(2.35273 0 0)
(2.35285 0 0)
(2.35296 0 0)
(2.35307 0 0)
(2.35317 0 0)
(2.35326 0 0)
(2.35335 0 0)
(2.35344 0 0)
(2.35352 0 0)
(2.35359 0 0)
(2.35366 0 0)
(2.35373 0 0)
(2.3538 0 0)
(2.35386 0 0)
(2.35393 0 0)
(2.35399 0 0)
(2.35406 0 0)
(2.35413 0 0)
(2.3542 0 0)
(2.35427 0 0)
(2.35435 0 0)
(2.35443 0 0)
(2.35451 0 0)
(2.3546 0 0)
(2.35468 0 0)
(2.35477 0 0)
(2.35486 0 0)
(2.35495 0 0)
(2.35505 0 0)
(2.35514 0 0)
(2.35524 0 0)
(2.35534 0 0)
(2.35543 0 0)
(2.35553 0 0)
(2.35563 0 0)
(2.35573 0 0)
(2.35583 0 0)
(2.35593 0 0)
(2.35603 0 0)
(2.35613 0 0)
(2.35623 0 0)
(2.35633 0 0)
(2.35643 0 0)
(2.35653 0 0)
(2.35663 0 0)
(2.35673 0 0)
(2.35682 0 0)
(2.35692 0 0)
(2.35702 0 0)
(2.35712 0 0)
(2.35722 0 0)
(2.35732 0 0)
(2.35742 0 0)
(2.35752 0 0)
(2.35762 0 0)
(2.35772 0 0)
(2.35782 0 0)
(2.35792 0 0)
(2.35802 0 0)
(2.35812 0 0)
(2.35822 0 0)
(2.35832 0 0)
(2.35842 0 0)
(2.35851 0 0)
(2.35861 0 0)
(2.35871 0 0)
(2.35881 0 0)
(2.35891 0 0)
(2.35901 0 0)
(2.35911 0 0)
(2.35921 0 0)
(2.35931 0 0)
(2.35941 0 0)
(2.3595 0 0)
(2.3596 0 0)
(2.3597 0 0)
(2.3598 0 0)
(2.3599 0 0)
(2.36 0 0)
(2.3601 0 0)
(2.36019 0 0)
(2.36029 0 0)
(2.36039 0 0)
(2.36049 0 0)
(2.36059 0 0)
(2.36069 0 0)
(2.36078 0 0)
(2.36088 0 0)
(2.36098 0 0)
(2.36108 0 0)
(2.36118 0 0)
(2.36128 0 0)
(2.36138 0 0)
(2.36148 0 0)
(2.36157 0 0)
(2.36167 0 0)
(2.36177 0 0)
(2.36187 0 0)
(2.36197 0 0)
(2.36206 0 0)
(2.36216 0 0)
(2.36226 0 0)
(2.36236 0 0)
(2.36245 0 0)
(2.36255 0 0)
(2.36265 0 0)
(2.36274 0 0)
(2.36284 0 0)
(2.36294 0 0)
(2.36304 0 0)
(2.36313 0 0)
(2.36323 0 0)
(2.36333 0 0)
(2.36342 0 0)
(2.36352 0 0)
(2.36362 0 0)
(2.36371 0 0)
(2.36381 0 0)
(2.36391 0 0)
(2.364 0 0)
(2.3641 0 0)
(2.3642 0 0)
(2.36429 0 0)
(2.36439 0 0)
(2.36448 0 0)
(2.36458 0 0)
(2.36468 0 0)
(2.36477 0 0)
(2.36487 0 0)
(2.36496 0 0)
(2.36506 0 0)
(2.36516 0 0)
(2.36525 0 0)
(2.36535 0 0)
(2.36544 0 0)
(2.36554 0 0)
(2.36563 0 0)
(2.36573 0 0)
(2.36582 0 0)
(2.36592 0 0)
(2.36601 0 0)
(2.36611 0 0)
(2.3662 0 0)
(2.3663 0 0)
(2.36639 0 0)
(2.36649 0 0)
(2.36658 0 0)
(2.36668 0 0)
(2.36677 0 0)
(2.36687 0 0)
(2.36696 0 0)
(2.36706 0 0)
(2.36715 0 0)
(2.36725 0 0)
(2.36734 0 0)
(2.36743 0 0)
(2.36753 0 0)
(2.36762 0 0)
(2.36772 0 0)
(2.36781 0 0)
(2.3679 0 0)
(2.368 0 0)
(2.36809 0 0)
(2.36818 0 0)
(2.36828 0 0)
(2.36837 0 0)
(2.36846 0 0)
(2.36856 0 0)
(2.36865 0 0)
(2.36874 0 0)
(2.36884 0 0)
(2.36893 0 0)
(2.36902 0 0)
(2.36912 0 0)
(2.36921 0 0)
(2.3693 0 0)
(2.36939 0 0)
(2.36949 0 0)
(2.36958 0 0)
(2.36967 0 0)
(2.36976 0 0)
(2.36986 0 0)
(2.36995 0 0)
(2.37004 0 0)
(2.37013 0 0)
(2.37022 0 0)
(2.37032 0 0)
(2.37041 0 0)
(2.3705 0 0)
(2.37059 0 0)
(2.37068 0 0)
(2.37077 0 0)
(2.37087 0 0)
(2.37096 0 0)
(2.37105 0 0)
(2.37114 0 0)
(2.37123 0 0)
(2.37132 0 0)
(2.37141 0 0)
(2.3715 0 0)
(2.37159 0 0)
(2.37169 0 0)
(2.37178 0 0)
(2.37187 0 0)
(2.37196 0 0)
(2.37205 0 0)
(2.37214 0 0)
(2.37223 0 0)
(2.37232 0 0)
(2.37241 0 0)
(2.3725 0 0)
(2.37259 0 0)
(2.37268 0 0)
(2.37277 0 0)
(2.37286 0 0)
(2.37295 0 0)
(2.37304 0 0)
(2.37313 0 0)
(2.37322 0 0)
(2.37331 0 0)
(2.3734 0 0)
(2.37349 0 0)
(2.37358 0 0)
(2.37367 0 0)
(2.37376 0 0)
(2.37385 0 0)
(2.37394 0 0)
(2.37403 0 0)
(2.37412 0 0)
(2.37421 0 0)
(2.3743 0 0)
(2.37438 0 0)
(2.37447 0 0)
(2.37456 0 0)
(2.37465 0 0)
(2.37474 0 0)
(2.37485 0 0)
(2.37505 0 0)
(2.37553 0 0)
(2.37691 0 0)
(2.38102 0 0)
(2.39285 0 0)
(2.42431 0 0)
(2.5013 0 0)
(2.68028 0 0)
(3.06557 0 0)
(3.83708 0 0)
(4.95523 0 0)
(6.19643 0 0)
(7.37244 0 0)
(8.41676 0 0)
(9.3154 0 0)
(10.0657 0 0)
(10.6873 0 0)
(11.2037 0 0)
(11.6214 0 0)
(11.9526 0 0)
(12.2243 0 0)
(12.4572 0 0)
(12.6612 0 0)
(12.8418 0 0)
(13.0029 0 0)
(13.148 0 0)
(13.2797 0 0)
(13.4001 0 0)
(13.5107 0 0)
(13.6129 0 0)
(13.7078 0 0)
(13.796 0 0)
(13.8785 0 0)
(13.9559 0 0)
(14.0285 0 0)
(14.097 0 0)
(14.1617 0 0)
(14.2229 0 0)
(14.281 0 0)
(14.3361 0 0)
(14.3886 0 0)
(14.4385 0 0)
(14.486 0 0)
(14.5302 0 0)
(14.5715 0 0)
(14.6115 0 0)
(14.6502 0 0)
(14.6876 0 0)
(14.7236 0 0)
(14.7586 0 0)
(14.7924 0 0)
(14.8251 0 0)
(14.8569 0 0)
(14.8877 0 0)
(14.9176 0 0)
(14.9467 0 0)
(14.975 0 0)
(15.0025 0 0)
(15.0292 0 0)
(15.0553 0 0)
(15.0807 0 0)
(15.1054 0 0)
(15.1295 0 0)
(15.1531 0 0)
(15.176 0 0)
(15.1985 0 0)
(15.2204 0 0)
(15.2418 0 0)
(15.2627 0 0)
(15.2831 0 0)
(15.3032 0 0)
(15.3227 0 0)
(15.3419 0 0)
(15.3607 0 0)
(15.3791 0 0)
(15.3971 0 0)
(15.4147 0 0)
(15.432 0 0)
(15.449 0 0)
(15.4657 0 0)
(15.482 0 0)
(15.498 0 0)
(15.5138 0 0)
(15.5292 0 0)
(15.5444 0 0)
(15.5593 0 0)
(15.5739 0 0)
(15.5883 0 0)
(15.6025 0 0)
(15.6164 0 0)
(15.6301 0 0)
(15.6436 0 0)
(15.6568 0 0)
(15.6698 0 0)
(15.6827 0 0)
(15.6953 0 0)
(15.7077 0 0)
(15.7199 0 0)
(15.732 0 0)
(15.7439 0 0)
(15.7556 0 0)
(15.7671 0 0)
(15.7785 0 0)
(15.7897 0 0)
(15.8007 0 0)
(15.8115 0 0)
(15.8222 0 0)
(15.8327 0 0)
(15.8433 0 0)
(15.8536 0 0)
(15.8637 0 0)
(15.8737 0 0)
(15.8836 0 0)
(15.8934 0 0)
(15.903 0 0)
(15.9125 0 0)
(15.9219 0 0)
(15.9312 0 0)
(15.9404 0 0)
(15.9494 0 0)
(15.9584 0 0)
(15.9672 0 0)
(15.9759 0 0)
(15.9845 0 0)
(15.9931 0 0)
(16.0015 0 0)
(16.0098 0 0)
(16.018 0 0)
(16.0262 0 0)
(16.0342 0 0)
(16.0422 0 0)
(16.05 0 0)
(16.0578 0 0)
(16.0655 0 0)
(16.0731 0 0)
(16.0806 0 0)
(16.0881 0 0)
(16.0954 0 0)
(16.1027 0 0)
(16.1099 0 0)
(16.117 0 0)
(16.1241 0 0)
(16.1311 0 0)
(16.138 0 0)
(16.1448 0 0)
(16.1515 0 0)
(16.1582 0 0)
(16.1649 0 0)
(16.1714 0 0)
(16.1779 0 0)
(16.1844 0 0)
(16.1906 0 0)
(16.1966 0 0)
(16.203 0 0)
(16.2093 0 0)
(16.2155 0 0)
(16.2216 0 0)
(16.2275 0 0)
(16.2334 0 0)
(16.2393 0 0)
(16.2451 0 0)
(16.2508 0 0)
(16.2565 0 0)
(16.2622 0 0)
(16.2678 0 0)
(16.2733 0 0)
(16.2788 0 0)
(16.2843 0 0)
(16.2896 0 0)
(16.295 0 0)
(16.3003 0 0)
(16.3056 0 0)
(16.3108 0 0)
(16.316 0 0)
(16.3211 0 0)
(16.3262 0 0)
(16.3313 0 0)
(16.3363 0 0)
(16.3414 0 0)
(16.3463 0 0)
(16.3513 0 0)
(16.3563 0 0)
(16.3612 0 0)
(16.3661 0 0)
(16.371 0 0)
(16.3759 0 0)
(16.3807 0 0)
(16.3855 0 0)
(16.3904 0 0)
(16.3952 0 0)
(16.3999 0 0)
(16.4047 0 0)
(16.4094 0 0)
(16.4142 0 0)
(16.4188 0 0)
(16.4235 0 0)
(16.4281 0 0)
(16.4327 0 0)
(16.4372 0 0)
(16.4417 0 0)
(16.4461 0 0)
(16.4505 0 0)
(16.4548 0 0)
(16.459 0 0)
(16.4631 0 0)
(16.4671 0 0)
(16.4711 0 0)
(16.4749 0 0)
(16.4786 0 0)
(16.4823 0 0)
(16.4857 0 0)
(16.4891 0 0)
(16.4923 0 0)
(16.4954 0 0)
(16.4983 0 0)
(16.5011 0 0)
(16.5038 0 0)
(16.5063 0 0)
(16.5086 0 0)
(16.5109 0 0)
(16.513 0 0)
(16.5149 0 0)
(16.5168 0 0)
(16.5186 0 0)
(16.5204 0 0)
(16.522 0 0)
(16.5235 0 0)
(16.525 0 0)
(16.5255 0 0)
(16.5239 0 0)
(16.5168 0 0)
)
;

boundaryField
{
    boundary
    {
        type            empty;
    }
    inlet
    {
        type            fixedValue;
        value           uniform (2.34893 0 0);
    }
    outlet
    {
        type            zeroGradient;
    }
}


// ************************************************************************* //
