/*--------------------------------*- C++ -*----------------------------------*\
  =========                 |
  \\      /  F ield         | OpenFOAM: The Open Source CFD Toolbox
   \\    /   O peration     | Website:  https://openfoam.org
    \\  /    A nd           | Version:  7
     \\/     M anipulation  |
\*---------------------------------------------------------------------------*/
FoamFile
{
    version     2.0;
    format      ascii;
    class       volScalarField;
    location    "0.00057";
    object      H;
}
// * * * * * * * * * * * * * * * * * * * * * * * * * * * * * * * * * * * * * //

dimensions      [0 0 0 0 0 0 0];

internalField   nonuniform List<scalar> 
126
(
3.51477e-41
3.51462e-41
3.51451e-41
3.51445e-41
3.51445e-41
3.51451e-41
3.51462e-41
3.51477e-41
3.51496e-41
3.51516e-41
3.51539e-41
3.51561e-41
3.51584e-41
3.51606e-41
3.51628e-41
3.51649e-41
3.5167e-41
3.51691e-41
3.51712e-41
3.51732e-41
3.51753e-41
3.51774e-41
3.51795e-41
3.51816e-41
3.51837e-41
3.51859e-41
3.5188e-41
3.51902e-41
3.51925e-41
3.51947e-41
3.5197e-41
3.51993e-41
3.52016e-41
3.5204e-41
3.52064e-41
3.52088e-41
3.52113e-41
3.52138e-41
3.52163e-41
3.52188e-41
3.52214e-41
3.5224e-41
3.52265e-41
3.52291e-41
3.52316e-41
3.52341e-41
3.52366e-41
3.5239e-41
3.52413e-41
3.52436e-41
3.52458e-41
3.52479e-41
3.525e-41
3.52519e-41
3.52537e-41
3.52554e-41
3.5257e-41
3.52585e-41
3.52599e-41
3.52611e-41
3.52621e-41
3.5263e-41
3.52638e-41
3.52643e-41
3.52647e-41
3.52649e-41
3.52649e-41
3.52647e-41
3.52643e-41
3.52637e-41
3.52628e-41
3.52617e-41
3.52603e-41
3.52587e-41
3.52567e-41
3.52545e-41
3.5252e-41
3.52492e-41
3.5246e-41
3.52425e-41
3.52386e-41
3.52344e-41
3.52298e-41
3.52248e-41
3.52195e-41
3.52138e-41
3.5208e-41
3.52029e-41
3.52017e-41
3.52168e-41
3.52941e-41
3.56046e-41
3.67789e-41
4.11251e-41
5.70224e-41
1.14655e-40
3.21911e-40
1.06144e-39
3.68e-39
1.28818e-38
4.49751e-38
1.56079e-37
5.37903e-37
1.84066e-36
6.25417e-36
2.11032e-35
7.07254e-35
2.35469e-34
7.78968e-34
2.56117e-33
8.37174e-33
2.72138e-32
8.80073e-32
2.83257e-31
9.0778e-31
2.89838e-30
9.22546e-30
2.92971e-29
9.29191e-29
2.94713e-28
9.36398e-28
2.98743e-27
9.59948e-27
3.11921e-26
1.03003e-25
3.4769e-25
)
;

boundaryField
{
    boundary
    {
        type            empty;
    }
    inlet
    {
        type            fixedValue;
        value           nonuniform 0();
    }
    outlet
    {
        type            zeroGradient;
    }
    procBoundary3to1
    {
        type            processor;
        value           uniform 1.21282e-24;
    }
    procBoundary3to2
    {
        type            processor;
        value           uniform 3.51428e-41;
    }
}


// ************************************************************************* //
