/*--------------------------------*- C++ -*----------------------------------*\
  =========                 |
  \\      /  F ield         | OpenFOAM: The Open Source CFD Toolbox
   \\    /   O peration     | Website:  https://openfoam.org
    \\  /    A nd           | Version:  7
     \\/     M anipulation  |
\*---------------------------------------------------------------------------*/
FoamFile
{
    version     2.0;
    format      ascii;
    class       volScalarField;
    location    "0.00057";
    object      H2O2;
}
// * * * * * * * * * * * * * * * * * * * * * * * * * * * * * * * * * * * * * //

dimensions      [0 0 0 0 0 0 0];

internalField   nonuniform List<scalar> 
126
(
2.94743e-49
2.94758e-49
2.94776e-49
2.94796e-49
2.94822e-49
2.94853e-49
2.94892e-49
2.94942e-49
2.95002e-49
2.95077e-49
2.95166e-49
2.95269e-49
2.95386e-49
2.95514e-49
2.95651e-49
2.9579e-49
2.95927e-49
2.96057e-49
2.96174e-49
2.96274e-49
2.96354e-49
2.96413e-49
2.9645e-49
2.96468e-49
2.96468e-49
2.96456e-49
2.96435e-49
2.9641e-49
2.96385e-49
2.96363e-49
2.96349e-49
2.96345e-49
2.96353e-49
2.96373e-49
2.96405e-49
2.96451e-49
2.96508e-49
2.96575e-49
2.96651e-49
2.96733e-49
2.9682e-49
2.96909e-49
2.96999e-49
2.97089e-49
2.97176e-49
2.9726e-49
2.97339e-49
2.97414e-49
2.97482e-49
2.97546e-49
2.97603e-49
2.97655e-49
2.97702e-49
2.97743e-49
2.9778e-49
2.97813e-49
2.97842e-49
2.97867e-49
2.97888e-49
2.97907e-49
2.97923e-49
2.97936e-49
2.97946e-49
2.97954e-49
2.9796e-49
2.97963e-49
2.97963e-49
2.97961e-49
2.97957e-49
2.97949e-49
2.97939e-49
2.97926e-49
2.9791e-49
2.97891e-49
2.97869e-49
2.97843e-49
2.97814e-49
2.97782e-49
2.97749e-49
2.97732e-49
2.97831e-49
2.98656e-49
3.03862e-49
3.35169e-49
5.20469e-49
1.60588e-48
7.90378e-48
4.41056e-47
2.50256e-46
1.41313e-45
7.91071e-45
4.38707e-44
2.40985e-43
1.31112e-42
7.06506e-42
3.7706e-41
1.99309e-40
1.04345e-39
5.4108e-39
2.77918e-38
1.41405e-37
7.12759e-37
3.55951e-36
1.7614e-35
8.63772e-35
4.19835e-34
2.02285e-33
9.6634e-33
4.57786e-32
2.15106e-31
1.00276e-30
4.63883e-30
2.13012e-29
9.71214e-29
4.39824e-28
1.97901e-27
8.85079e-27
3.93598e-26
1.74115e-25
7.66503e-25
3.35948e-24
1.46654e-23
6.37913e-23
2.76595e-22
1.19594e-21
5.15829e-21
)
;

boundaryField
{
    boundary
    {
        type            empty;
    }
    inlet
    {
        type            fixedValue;
        value           nonuniform 0();
    }
    outlet
    {
        type            zeroGradient;
    }
    procBoundary3to1
    {
        type            processor;
        value           uniform 2.23322e-20;
    }
    procBoundary3to2
    {
        type            processor;
        value           uniform 2.95805e-49;
    }
}


// ************************************************************************* //
