/*--------------------------------*- C++ -*----------------------------------*\
  =========                 |
  \\      /  F ield         | OpenFOAM: The Open Source CFD Toolbox
   \\    /   O peration     | Website:  https://openfoam.org
    \\  /    A nd           | Version:  7
     \\/     M anipulation  |
\*---------------------------------------------------------------------------*/
FoamFile
{
    version     2.0;
    format      ascii;
    class       volScalarField;
    location    "0.00057";
    object      O;
}
// * * * * * * * * * * * * * * * * * * * * * * * * * * * * * * * * * * * * * //

dimensions      [0 0 0 0 0 0 0];

internalField   nonuniform List<scalar> 
126
(
1.54932e-45
1.54945e-45
1.54962e-45
1.54984e-45
1.55011e-45
1.55044e-45
1.55084e-45
1.5513e-45
1.55181e-45
1.55236e-45
1.55293e-45
1.55349e-45
1.55403e-45
1.55454e-45
1.555e-45
1.55539e-45
1.55573e-45
1.55601e-45
1.55624e-45
1.55642e-45
1.55657e-45
1.55669e-45
1.55679e-45
1.55688e-45
1.55695e-45
1.55703e-45
1.55709e-45
1.55716e-45
1.55723e-45
1.5573e-45
1.55737e-45
1.55746e-45
1.55754e-45
1.55764e-45
1.55774e-45
1.55786e-45
1.55799e-45
1.55813e-45
1.55828e-45
1.55844e-45
1.5586e-45
1.55878e-45
1.55896e-45
1.55915e-45
1.55934e-45
1.55952e-45
1.55971e-45
1.5599e-45
1.56007e-45
1.56025e-45
1.56041e-45
1.56057e-45
1.56071e-45
1.56085e-45
1.56098e-45
1.5611e-45
1.5612e-45
1.5613e-45
1.56139e-45
1.56146e-45
1.56153e-45
1.56158e-45
1.56163e-45
1.56166e-45
1.56168e-45
1.56169e-45
1.56169e-45
1.56168e-45
1.56166e-45
1.56162e-45
1.56158e-45
1.56157e-45
1.56174e-45
1.56269e-45
1.5671e-45
1.58624e-45
1.66769e-45
2.01043e-45
3.44017e-45
9.35679e-45
3.36496e-44
1.32612e-43
5.326e-43
2.13656e-42
8.51771e-42
3.37033e-41
1.32319e-40
5.15381e-40
1.9915e-39
7.63432e-39
2.90333e-38
1.09537e-37
4.09981e-37
1.52235e-36
5.60816e-36
2.04972e-35
7.43275e-35
2.67428e-34
9.54745e-34
3.38233e-33
1.18911e-32
4.14897e-32
1.43684e-31
4.93933e-31
1.68566e-30
5.71181e-30
1.92194e-29
6.42312e-29
2.13243e-28
7.03429e-28
2.30616e-27
7.51621e-27
2.43598e-26
7.85322e-26
2.51918e-25
8.04363e-25
2.55722e-24
8.09748e-24
2.55468e-23
8.03275e-23
2.51805e-22
7.87155e-22
2.45457e-21
7.637e-21
2.37143e-20
7.35092e-20
)
;

boundaryField
{
    boundary
    {
        type            empty;
    }
    inlet
    {
        type            fixedValue;
        value           nonuniform 0();
    }
    outlet
    {
        type            zeroGradient;
    }
    procBoundary3to1
    {
        type            processor;
        value           uniform 2.28508e-19;
    }
    procBoundary3to2
    {
        type            processor;
        value           uniform 1.55203e-45;
    }
}


// ************************************************************************* //
