/*--------------------------------*- C++ -*----------------------------------*\
  =========                 |
  \\      /  F ield         | OpenFOAM: The Open Source CFD Toolbox
   \\    /   O peration     | Website:  https://openfoam.org
    \\  /    A nd           | Version:  7
     \\/     M anipulation  |
\*---------------------------------------------------------------------------*/
FoamFile
{
    version     2.0;
    format      ascii;
    class       surfaceScalarField;
    location    "0.00057";
    object      phi;
}
// * * * * * * * * * * * * * * * * * * * * * * * * * * * * * * * * * * * * * //

dimensions      [1 0 -1 0 0 0 0];

internalField   nonuniform List<scalar> 
125
(
6.96607e-06
6.9666e-06
6.96713e-06
6.96766e-06
6.96819e-06
6.96872e-06
6.96924e-06
6.96976e-06
6.97029e-06
6.97081e-06
6.97133e-06
6.97185e-06
6.97237e-06
6.97289e-06
6.97341e-06
6.97393e-06
6.97445e-06
6.97497e-06
6.97549e-06
6.97601e-06
6.97653e-06
6.97705e-06
6.97756e-06
6.97808e-06
6.9786e-06
6.97912e-06
6.97964e-06
6.98015e-06
6.98067e-06
6.98119e-06
6.9817e-06
6.98222e-06
6.98274e-06
6.98325e-06
6.98377e-06
6.98428e-06
6.9848e-06
6.98531e-06
6.98583e-06
6.98634e-06
6.98685e-06
6.98737e-06
6.98788e-06
6.98839e-06
6.98891e-06
6.98942e-06
6.98993e-06
6.99044e-06
6.99095e-06
6.99147e-06
6.99198e-06
6.99249e-06
6.993e-06
6.99351e-06
6.99402e-06
6.99454e-06
6.99505e-06
6.99556e-06
6.99607e-06
6.99658e-06
6.99709e-06
6.9976e-06
6.99812e-06
6.99863e-06
6.99914e-06
6.99965e-06
7.00016e-06
7.00068e-06
7.00119e-06
7.0017e-06
7.00221e-06
7.00273e-06
7.00324e-06
7.00375e-06
7.00427e-06
7.00478e-06
7.0053e-06
7.00581e-06
7.00633e-06
7.00684e-06
7.00736e-06
7.00788e-06
7.00839e-06
7.00891e-06
7.00943e-06
7.00995e-06
7.01047e-06
7.01099e-06
7.01151e-06
7.01203e-06
7.01255e-06
7.01307e-06
7.0136e-06
7.01412e-06
7.01465e-06
7.01517e-06
7.0157e-06
7.01623e-06
7.01676e-06
7.01729e-06
7.01782e-06
7.01835e-06
7.01888e-06
7.01941e-06
7.01995e-06
7.02048e-06
7.02102e-06
7.02155e-06
7.02209e-06
7.02263e-06
7.02317e-06
7.02371e-06
7.02425e-06
7.0248e-06
7.02534e-06
7.02589e-06
7.02643e-06
7.02698e-06
7.02753e-06
7.02808e-06
7.02863e-06
7.02918e-06
7.02973e-06
7.03028e-06
7.03084e-06
)
;

boundaryField
{
    boundary
    {
        type            empty;
        value           nonuniform 0();
    }
    inlet
    {
        type            calculated;
        value           nonuniform 0();
    }
    outlet
    {
        type            calculated;
        value           nonuniform 0();
    }
    procBoundary3to1
    {
        type            processor;
        value           uniform 7.03139e-06;
    }
    procBoundary3to2
    {
        type            processor;
        value           uniform -6.96554e-06;
    }
}


// ************************************************************************* //
