/*--------------------------------*- C++ -*----------------------------------*\
  =========                 |
  \\      /  F ield         | OpenFOAM: The Open Source CFD Toolbox
   \\    /   O peration     | Website:  https://openfoam.org
    \\  /    A nd           | Version:  7
     \\/     M anipulation  |
\*---------------------------------------------------------------------------*/
FoamFile
{
    version     2.0;
    format      ascii;
    class       volScalarField;
    location    "6e-05";
    object      H;
}
// * * * * * * * * * * * * * * * * * * * * * * * * * * * * * * * * * * * * * //

dimensions      [0 0 0 0 0 0 0];

internalField   nonuniform List<scalar> 
126
(
3.15678e-41
3.15813e-41
3.1581e-41
3.15766e-41
3.15705e-41
3.15635e-41
3.15558e-41
3.15477e-41
3.15394e-41
3.15309e-41
3.15222e-41
3.15135e-41
3.15046e-41
3.14957e-41
3.14866e-41
3.14774e-41
3.14681e-41
3.14587e-41
3.14491e-41
3.14394e-41
3.14296e-41
3.14196e-41
3.14094e-41
3.13991e-41
3.13886e-41
3.1378e-41
3.13672e-41
3.13562e-41
3.1345e-41
3.13336e-41
3.1322e-41
3.13101e-41
3.12981e-41
3.12858e-41
3.12733e-41
3.12605e-41
3.12475e-41
3.12342e-41
3.12206e-41
3.12068e-41
3.11926e-41
3.11782e-41
3.11634e-41
3.11484e-41
3.1133e-41
3.11172e-41
3.11011e-41
3.10847e-41
3.10679e-41
3.10507e-41
3.10331e-41
3.10152e-41
3.09968e-41
3.0978e-41
3.09589e-41
3.09393e-41
3.09192e-41
3.08987e-41
3.08778e-41
3.08564e-41
3.08346e-41
3.08123e-41
3.07895e-41
3.07662e-41
3.07425e-41
3.07183e-41
3.06936e-41
3.06684e-41
3.06428e-41
3.06166e-41
3.059e-41
3.05629e-41
3.05353e-41
3.05072e-41
3.04787e-41
3.04497e-41
3.04202e-41
3.03903e-41
3.03599e-41
3.03291e-41
3.02979e-41
3.02663e-41
3.02342e-41
3.02018e-41
3.0169e-41
3.01358e-41
3.01023e-41
3.00685e-41
3.00344e-41
2.99999e-41
2.99653e-41
2.99303e-41
2.98952e-41
2.98598e-41
2.98242e-41
2.97885e-41
2.97527e-41
2.97167e-41
2.96806e-41
2.96445e-41
2.96083e-41
2.95721e-41
2.95359e-41
2.94997e-41
2.94635e-41
2.94278e-41
2.93941e-41
2.93726e-41
2.94236e-41
2.99079e-41
3.29811e-41
5.15097e-41
1.62226e-40
8.22397e-40
4.75591e-39
2.81903e-38
1.67877e-37
1.00163e-36
5.98937e-36
3.5928e-35
2.16446e-34
1.3111e-33
7.99454e-33
4.9122e-32
3.0442e-31
1.90405e-30
)
;

boundaryField
{
    boundary
    {
        type            empty;
    }
    inlet
    {
        type            fixedValue;
        value           nonuniform 0();
    }
    outlet
    {
        type            zeroGradient;
    }
    procBoundary3to1
    {
        type            processor;
        value           uniform 1.17705e-29;
    }
    procBoundary3to2
    {
        type            processor;
        value           uniform 3.1588e-41;
    }
}


// ************************************************************************* //
