/*--------------------------------*- C++ -*----------------------------------*\
  =========                 |
  \\      /  F ield         | OpenFOAM: The Open Source CFD Toolbox
   \\    /   O peration     | Website:  https://openfoam.org
    \\  /    A nd           | Version:  7
     \\/     M anipulation  |
\*---------------------------------------------------------------------------*/
FoamFile
{
    version     2.0;
    format      ascii;
    class       volScalarField;
    location    "6e-05";
    object      H2O;
}
// * * * * * * * * * * * * * * * * * * * * * * * * * * * * * * * * * * * * * //

dimensions      [0 0 0 0 0 0 0];

internalField   nonuniform List<scalar> 
126
(
8.4206e-47
8.5061e-47
8.59806e-47
8.67887e-47
8.73946e-47
8.77988e-47
8.80474e-47
8.81925e-47
8.82755e-47
8.83241e-47
8.83547e-47
8.83765e-47
8.83943e-47
8.84102e-47
8.84253e-47
8.84401e-47
8.84546e-47
8.8469e-47
8.84833e-47
8.84974e-47
8.85114e-47
8.85252e-47
8.85387e-47
8.85521e-47
8.85652e-47
8.85781e-47
8.85907e-47
8.8603e-47
8.86149e-47
8.86265e-47
8.86377e-47
8.86484e-47
8.86588e-47
8.86687e-47
8.8678e-47
8.86869e-47
8.86952e-47
8.87028e-47
8.87099e-47
8.87163e-47
8.8722e-47
8.8727e-47
8.87312e-47
8.87346e-47
8.87371e-47
8.87388e-47
8.87396e-47
8.87394e-47
8.87383e-47
8.87361e-47
8.87328e-47
8.87284e-47
8.87229e-47
8.87162e-47
8.87083e-47
8.86991e-47
8.86886e-47
8.86767e-47
8.86635e-47
8.86489e-47
8.86328e-47
8.86152e-47
8.85961e-47
8.85755e-47
8.85532e-47
8.85294e-47
8.85038e-47
8.84767e-47
8.84478e-47
8.84171e-47
8.83848e-47
8.83506e-47
8.83147e-47
8.8277e-47
8.82374e-47
8.8196e-47
8.81528e-47
8.81077e-47
8.80608e-47
8.8012e-47
8.79614e-47
8.7909e-47
8.78547e-47
8.77985e-47
8.77406e-47
8.76809e-47
8.76194e-47
8.75562e-47
8.74913e-47
8.74246e-47
8.73563e-47
8.72864e-47
8.72149e-47
8.71418e-47
8.70672e-47
8.69911e-47
8.69136e-47
8.68348e-47
8.67546e-47
8.66731e-47
8.65904e-47
8.65065e-47
8.64218e-47
8.63381e-47
8.62669e-47
8.62812e-47
8.68603e-47
9.12705e-47
1.23229e-46
3.7112e-46
2.49789e-45
2.27202e-44
2.31522e-43
2.50535e-42
2.79563e-41
3.15473e-40
3.55571e-39
3.97213e-38
4.37695e-37
4.74399e-36
5.05179e-35
5.28886e-34
5.45838e-33
5.57931e-32
5.68082e-31
5.78976e-30
)
;

boundaryField
{
    boundary
    {
        type            empty;
    }
    inlet
    {
        type            fixedValue;
        value           nonuniform 0();
    }
    outlet
    {
        type            zeroGradient;
    }
    procBoundary3to1
    {
        type            processor;
        value           uniform 7.8821e-29;
    }
    procBoundary3to2
    {
        type            processor;
        value           uniform 8.62717e-47;
    }
}


// ************************************************************************* //
