/*--------------------------------*- C++ -*----------------------------------*\
  =========                 |
  \\      /  F ield         | OpenFOAM: The Open Source CFD Toolbox
   \\    /   O peration     | Website:  https://openfoam.org
    \\  /    A nd           | Version:  7
     \\/     M anipulation  |
\*---------------------------------------------------------------------------*/
FoamFile
{
    version     2.0;
    format      ascii;
    class       volScalarField;
    location    "6e-05";
    object      H2O2;
}
// * * * * * * * * * * * * * * * * * * * * * * * * * * * * * * * * * * * * * //

dimensions      [0 0 0 0 0 0 0];

internalField   nonuniform List<scalar> 
126
(
2.30049e-51
2.33065e-51
2.36447e-51
2.39383e-51
2.41502e-51
2.42842e-51
2.43616e-51
2.44039e-51
2.44266e-51
2.44394e-51
2.44473e-51
2.4453e-51
2.44577e-51
2.4462e-51
2.44661e-51
2.44702e-51
2.44742e-51
2.44781e-51
2.44821e-51
2.44859e-51
2.44898e-51
2.44935e-51
2.44972e-51
2.45009e-51
2.45044e-51
2.45079e-51
2.45113e-51
2.45146e-51
2.45178e-51
2.45208e-51
2.45238e-51
2.45266e-51
2.45293e-51
2.45319e-51
2.45343e-51
2.45366e-51
2.45386e-51
2.45405e-51
2.45422e-51
2.45437e-51
2.4545e-51
2.45461e-51
2.45469e-51
2.45475e-51
2.45479e-51
2.45479e-51
2.45477e-51
2.45473e-51
2.45465e-51
2.45454e-51
2.4544e-51
2.45422e-51
2.45401e-51
2.45377e-51
2.45348e-51
2.45316e-51
2.4528e-51
2.4524e-51
2.45196e-51
2.45148e-51
2.45095e-51
2.45038e-51
2.44976e-51
2.4491e-51
2.44839e-51
2.44763e-51
2.44682e-51
2.44596e-51
2.44504e-51
2.44408e-51
2.44307e-51
2.442e-51
2.44088e-51
2.4397e-51
2.43847e-51
2.43718e-51
2.43584e-51
2.43445e-51
2.433e-51
2.43149e-51
2.42993e-51
2.42831e-51
2.42664e-51
2.42492e-51
2.42314e-51
2.42131e-51
2.41942e-51
2.41748e-51
2.4155e-51
2.41346e-51
2.41137e-51
2.40923e-51
2.40705e-51
2.40482e-51
2.40255e-51
2.40023e-51
2.39787e-51
2.39547e-51
2.39303e-51
2.39055e-51
2.38804e-51
2.38549e-51
2.38291e-51
2.3803e-51
2.3777e-51
2.37529e-51
2.37426e-51
2.38193e-51
2.44411e-51
2.84974e-51
5.46786e-51
2.32075e-50
1.59305e-49
1.46437e-48
1.77007e-47
2.6141e-46
4.2657e-45
7.21579e-44
1.22891e-42
2.08113e-41
3.48382e-40
5.74572e-39
9.31862e-38
1.48538e-36
2.32877e-35
3.59649e-34
)
;

boundaryField
{
    boundary
    {
        type            empty;
    }
    inlet
    {
        type            fixedValue;
        value           nonuniform 0();
    }
    outlet
    {
        type            zeroGradient;
    }
    procBoundary3to1
    {
        type            processor;
        value           uniform 7.87842e-33;
    }
    procBoundary3to2
    {
        type            processor;
        value           uniform 2.37721e-51;
    }
}


// ************************************************************************* //
