/*--------------------------------*- C++ -*----------------------------------*\
  =========                 |
  \\      /  F ield         | OpenFOAM: The Open Source CFD Toolbox
   \\    /   O peration     | Website:  https://openfoam.org
    \\  /    A nd           | Version:  7
     \\/     M anipulation  |
\*---------------------------------------------------------------------------*/
FoamFile
{
    version     2.0;
    format      ascii;
    class       volScalarField;
    location    "6e-05";
    object      HO2;
}
// * * * * * * * * * * * * * * * * * * * * * * * * * * * * * * * * * * * * * //

dimensions      [0 0 0 0 0 0 0];

internalField   nonuniform List<scalar> 
126
(
3.60203e-37
3.62859e-37
3.65711e-37
3.6814e-37
3.69874e-37
3.70962e-37
3.71585e-37
3.71921e-37
3.72097e-37
3.72192e-37
3.72247e-37
3.72284e-37
3.72313e-37
3.72339e-37
3.72363e-37
3.72386e-37
3.72408e-37
3.7243e-37
3.72451e-37
3.72471e-37
3.72491e-37
3.7251e-37
3.72528e-37
3.72545e-37
3.72561e-37
3.72576e-37
3.7259e-37
3.72603e-37
3.72614e-37
3.72624e-37
3.72633e-37
3.7264e-37
3.72645e-37
3.72648e-37
3.7265e-37
3.7265e-37
3.72648e-37
3.72643e-37
3.72636e-37
3.72627e-37
3.72616e-37
3.72601e-37
3.72584e-37
3.72565e-37
3.72542e-37
3.72516e-37
3.72487e-37
3.72455e-37
3.72419e-37
3.7238e-37
3.72337e-37
3.72291e-37
3.7224e-37
3.72185e-37
3.72126e-37
3.72063e-37
3.71996e-37
3.71924e-37
3.71847e-37
3.71765e-37
3.71679e-37
3.71587e-37
3.71491e-37
3.71389e-37
3.71282e-37
3.71169e-37
3.71051e-37
3.70928e-37
3.70799e-37
3.70664e-37
3.70523e-37
3.70376e-37
3.70224e-37
3.70065e-37
3.69901e-37
3.6973e-37
3.69554e-37
3.69371e-37
3.69183e-37
3.68988e-37
3.68788e-37
3.68581e-37
3.68369e-37
3.68151e-37
3.67926e-37
3.67696e-37
3.67461e-37
3.6722e-37
3.66973e-37
3.66721e-37
3.66464e-37
3.66202e-37
3.65934e-37
3.65662e-37
3.65385e-37
3.65104e-37
3.64818e-37
3.64528e-37
3.64235e-37
3.63937e-37
3.63635e-37
3.6333e-37
3.63022e-37
3.62711e-37
3.62401e-37
3.62115e-37
3.61987e-37
3.62842e-37
3.69759e-37
4.13965e-37
6.87498e-37
2.37054e-36
1.27034e-35
7.59644e-35
4.61537e-34
2.79576e-33
1.67943e-32
9.97311e-32
5.84083e-31
3.36923e-30
1.91504e-29
1.07532e-28
5.99312e-28
3.33393e-27
1.85866e-26
1.03821e-25
)
;

boundaryField
{
    boundary
    {
        type            empty;
    }
    inlet
    {
        type            fixedValue;
        value           nonuniform 0();
    }
    outlet
    {
        type            zeroGradient;
    }
    procBoundary3to1
    {
        type            processor;
        value           uniform 6.1371e-25;
    }
    procBoundary3to2
    {
        type            processor;
        value           uniform 3.6665e-37;
    }
}


// ************************************************************************* //
