/*--------------------------------*- C++ -*----------------------------------*\
  =========                 |
  \\      /  F ield         | OpenFOAM: The Open Source CFD Toolbox
   \\    /   O peration     | Website:  https://openfoam.org
    \\  /    A nd           | Version:  7
     \\/     M anipulation  |
\*---------------------------------------------------------------------------*/
FoamFile
{
    version     2.0;
    format      ascii;
    class       volScalarField;
    location    "6e-05";
    object      O;
}
// * * * * * * * * * * * * * * * * * * * * * * * * * * * * * * * * * * * * * //

dimensions      [0 0 0 0 0 0 0];

internalField   nonuniform List<scalar> 
126
(
1.1811e-46
1.19187e-46
1.20228e-46
1.21072e-46
1.21665e-46
1.22041e-46
1.22264e-46
1.2239e-46
1.22462e-46
1.22503e-46
1.22528e-46
1.22545e-46
1.22558e-46
1.22568e-46
1.22578e-46
1.22587e-46
1.22595e-46
1.22604e-46
1.22612e-46
1.22619e-46
1.22626e-46
1.22633e-46
1.2264e-46
1.22646e-46
1.22652e-46
1.22657e-46
1.22662e-46
1.22666e-46
1.22669e-46
1.22672e-46
1.22675e-46
1.22677e-46
1.22677e-46
1.22678e-46
1.22677e-46
1.22676e-46
1.22673e-46
1.2267e-46
1.22666e-46
1.2266e-46
1.22654e-46
1.22647e-46
1.22638e-46
1.22628e-46
1.22617e-46
1.22604e-46
1.22591e-46
1.22575e-46
1.22558e-46
1.2254e-46
1.2252e-46
1.22499e-46
1.22476e-46
1.22451e-46
1.22424e-46
1.22395e-46
1.22365e-46
1.22332e-46
1.22298e-46
1.22261e-46
1.22223e-46
1.22182e-46
1.22139e-46
1.22094e-46
1.22046e-46
1.21996e-46
1.21944e-46
1.2189e-46
1.21833e-46
1.21773e-46
1.21711e-46
1.21647e-46
1.2158e-46
1.21511e-46
1.21439e-46
1.21364e-46
1.21287e-46
1.21207e-46
1.21125e-46
1.2104e-46
1.20953e-46
1.20863e-46
1.20771e-46
1.20676e-46
1.20579e-46
1.20479e-46
1.20377e-46
1.20272e-46
1.20165e-46
1.20056e-46
1.19945e-46
1.19832e-46
1.19716e-46
1.19599e-46
1.1948e-46
1.19358e-46
1.19235e-46
1.1911e-46
1.18984e-46
1.18856e-46
1.18726e-46
1.18595e-46
1.18465e-46
1.18346e-46
1.18307e-46
1.18785e-46
1.22636e-46
1.49031e-46
3.32773e-46
1.6895e-45
1.25643e-44
1.07942e-43
1.01417e-42
1.01425e-41
1.05409e-40
1.11718e-39
1.19212e-38
1.27048e-37
1.34522e-36
1.40979e-35
1.4577e-34
1.4829e-33
1.48065e-32
1.44899e-31
1.38962e-30
1.30749e-29
)
;

boundaryField
{
    boundary
    {
        type            empty;
    }
    inlet
    {
        type            fixedValue;
        value           nonuniform 0();
    }
    outlet
    {
        type            zeroGradient;
    }
    procBoundary3to1
    {
        type            processor;
        value           uniform 1.62152e-28;
    }
    procBoundary3to2
    {
        type            processor;
        value           uniform 1.20044e-46;
    }
}


// ************************************************************************* //
