/*--------------------------------*- C++ -*----------------------------------*\
  =========                 |
  \\      /  F ield         | OpenFOAM: The Open Source CFD Toolbox
   \\    /   O peration     | Website:  https://openfoam.org
    \\  /    A nd           | Version:  7
     \\/     M anipulation  |
\*---------------------------------------------------------------------------*/
FoamFile
{
    version     2.0;
    format      ascii;
    class       volScalarField;
    location    "6e-05";
    object      OH;
}
// * * * * * * * * * * * * * * * * * * * * * * * * * * * * * * * * * * * * * //

dimensions      [0 0 0 0 0 0 0];

internalField   nonuniform List<scalar> 
126
(
4.69379e-47
4.71293e-47
4.72525e-47
4.73349e-47
4.73894e-47
4.74225e-47
4.74404e-47
4.74486e-47
4.7451e-47
4.74504e-47
4.7448e-47
4.74448e-47
4.74411e-47
4.74371e-47
4.74329e-47
4.74285e-47
4.7424e-47
4.74192e-47
4.74143e-47
4.74092e-47
4.74039e-47
4.73984e-47
4.73927e-47
4.73867e-47
4.73805e-47
4.73741e-47
4.73673e-47
4.73603e-47
4.7353e-47
4.73454e-47
4.73375e-47
4.73292e-47
4.73206e-47
4.73116e-47
4.73023e-47
4.72925e-47
4.72823e-47
4.72716e-47
4.72605e-47
4.7249e-47
4.72369e-47
4.72244e-47
4.72113e-47
4.71976e-47
4.71834e-47
4.71686e-47
4.71532e-47
4.71372e-47
4.71205e-47
4.71032e-47
4.70851e-47
4.70664e-47
4.7047e-47
4.70268e-47
4.70058e-47
4.6984e-47
4.69615e-47
4.69381e-47
4.69139e-47
4.68889e-47
4.68629e-47
4.68361e-47
4.68084e-47
4.67797e-47
4.67502e-47
4.67196e-47
4.66882e-47
4.66557e-47
4.66223e-47
4.65879e-47
4.65525e-47
4.65161e-47
4.64787e-47
4.64403e-47
4.64009e-47
4.63605e-47
4.63191e-47
4.62767e-47
4.62333e-47
4.61889e-47
4.61435e-47
4.60972e-47
4.60499e-47
4.60017e-47
4.59526e-47
4.59026e-47
4.58517e-47
4.57999e-47
4.57473e-47
4.56939e-47
4.56397e-47
4.55847e-47
4.55291e-47
4.54727e-47
4.54157e-47
4.5358e-47
4.52998e-47
4.5241e-47
4.51817e-47
4.51219e-47
4.50617e-47
4.5001e-47
4.49403e-47
4.48807e-47
4.48309e-47
4.48494e-47
4.53681e-47
4.9895e-47
9.01833e-47
4.82488e-46
4.59794e-45
4.98036e-44
5.57454e-43
6.29181e-42
7.07841e-41
7.88251e-40
8.64891e-39
9.31999e-38
9.84093e-37
1.01685e-35
1.02813e-34
1.01873e-33
9.92434e-33
9.54885e-32
9.11368e-31
8.64519e-30
)
;

boundaryField
{
    boundary
    {
        type            empty;
    }
    inlet
    {
        type            fixedValue;
        value           nonuniform 0();
    }
    outlet
    {
        type            zeroGradient;
    }
    procBoundary3to1
    {
        type            processor;
        value           uniform 1.04561e-28;
    }
    procBoundary3to2
    {
        type            processor;
        value           uniform 4.71992e-47;
    }
}


// ************************************************************************* //
