/*--------------------------------*- C++ -*----------------------------------*\
  =========                 |
  \\      /  F ield         | OpenFOAM: The Open Source CFD Toolbox
   \\    /   O peration     | Website:  https://openfoam.org
    \\  /    A nd           | Version:  7
     \\/     M anipulation  |
\*---------------------------------------------------------------------------*/
FoamFile
{
    version     2.0;
    format      ascii;
    class       volScalarField;
    location    "6e-05";
    object      p;
}
// * * * * * * * * * * * * * * * * * * * * * * * * * * * * * * * * * * * * * //

dimensions      [1 -1 -2 0 0 0 0];

internalField   nonuniform List<scalar> 
126
(
102786
102784
102783
102782
102780
102779
102778
102777
102775
102774
102773
102771
102770
102769
102767
102766
102765
102763
102762
102761
102760
102758
102757
102756
102754
102753
102752
102750
102749
102748
102746
102745
102744
102742
102741
102740
102739
102737
102736
102735
102733
102732
102731
102730
102728
102727
102726
102725
102723
102722
102721
102720
102718
102717
102716
102715
102714
102713
102711
102710
102709
102708
102707
102706
102705
102703
102702
102701
102700
102699
102698
102697
102696
102695
102694
102693
102692
102691
102690
102689
102688
102687
102686
102685
102684
102684
102683
102682
102681
102680
102679
102678
102677
102676
102676
102675
102674
102673
102672
102671
102670
102670
102669
102668
102667
102666
102665
102665
102664
102663
102662
102661
102660
102659
102659
102658
102657
102656
102655
102654
102653
102652
102652
102651
102650
102649
)
;

boundaryField
{
    boundary
    {
        type            empty;
    }
    inlet
    {
        type            zeroGradient;
    }
    outlet
    {
        type            waveTransmissive;
        gamma           1.4;
        value           nonuniform 0();
    }
    procBoundary3to1
    {
        type            processor;
        value           uniform 102648;
    }
    procBoundary3to2
    {
        type            processor;
        value           uniform 102787;
    }
}


// ************************************************************************* //
