/*--------------------------------*- C++ -*----------------------------------*\
  =========                 |
  \\      /  F ield         | OpenFOAM: The Open Source CFD Toolbox
   \\    /   O peration     | Website:  https://openfoam.org
    \\  /    A nd           | Version:  7
     \\/     M anipulation  |
\*---------------------------------------------------------------------------*/
FoamFile
{
    version     2.0;
    format      ascii;
    class       surfaceScalarField;
    location    "6e-05";
    object      phi;
}
// * * * * * * * * * * * * * * * * * * * * * * * * * * * * * * * * * * * * * //

dimensions      [1 0 -1 0 0 0 0];

internalField   nonuniform List<scalar> 
125
(
6.21937e-06
6.21513e-06
6.21086e-06
6.20658e-06
6.20226e-06
6.19792e-06
6.19355e-06
6.18915e-06
6.18471e-06
6.18024e-06
6.17572e-06
6.17117e-06
6.16658e-06
6.16194e-06
6.15726e-06
6.15253e-06
6.14775e-06
6.14292e-06
6.13803e-06
6.13309e-06
6.12809e-06
6.12303e-06
6.1179e-06
6.11271e-06
6.10745e-06
6.10212e-06
6.09672e-06
6.09124e-06
6.08568e-06
6.08004e-06
6.07432e-06
6.06852e-06
6.06262e-06
6.05663e-06
6.05055e-06
6.04437e-06
6.03809e-06
6.03171e-06
6.02522e-06
6.01863e-06
6.01192e-06
6.0051e-06
5.99816e-06
5.9911e-06
5.98392e-06
5.97661e-06
5.96918e-06
5.96161e-06
5.95391e-06
5.94607e-06
5.9381e-06
5.92998e-06
5.92173e-06
5.91332e-06
5.90477e-06
5.89607e-06
5.88722e-06
5.87822e-06
5.86906e-06
5.85975e-06
5.85028e-06
5.84065e-06
5.83087e-06
5.82093e-06
5.81082e-06
5.80056e-06
5.79015e-06
5.77957e-06
5.76884e-06
5.75795e-06
5.74691e-06
5.73571e-06
5.72436e-06
5.71287e-06
5.70123e-06
5.68944e-06
5.67752e-06
5.66545e-06
5.65326e-06
5.64093e-06
5.62848e-06
5.61591e-06
5.60322e-06
5.59043e-06
5.57752e-06
5.56452e-06
5.55142e-06
5.53823e-06
5.52496e-06
5.51162e-06
5.4982e-06
5.48472e-06
5.47118e-06
5.45759e-06
5.44396e-06
5.43029e-06
5.41659e-06
5.40286e-06
5.38911e-06
5.37535e-06
5.36159e-06
5.34782e-06
5.33407e-06
5.32032e-06
5.30659e-06
5.29288e-06
5.27919e-06
5.26554e-06
5.25193e-06
5.23835e-06
5.22482e-06
5.21133e-06
5.1979e-06
5.18452e-06
5.17119e-06
5.15792e-06
5.1447e-06
5.13155e-06
5.11846e-06
5.10543e-06
5.09247e-06
5.07956e-06
5.06673e-06
5.05395e-06
5.04124e-06
)
;

boundaryField
{
    boundary
    {
        type            empty;
        value           nonuniform 0();
    }
    inlet
    {
        type            calculated;
        value           nonuniform 0();
    }
    outlet
    {
        type            calculated;
        value           nonuniform 0();
    }
    procBoundary3to1
    {
        type            processor;
        value           uniform 5.02858e-06;
    }
    procBoundary3to2
    {
        type            processor;
        value           uniform -6.22358e-06;
    }
}


// ************************************************************************* //
