/*--------------------------------*- C++ -*----------------------------------*\
  =========                 |
  \\      /  F ield         | OpenFOAM: The Open Source CFD Toolbox
   \\    /   O peration     | Website:  https://openfoam.org
    \\  /    A nd           | Version:  7
     \\/     M anipulation  |
\*---------------------------------------------------------------------------*/
FoamFile
{
    version     2.0;
    format      ascii;
    class       volScalarField;
    location    "6e-05";
    object      Qdot;
}
// * * * * * * * * * * * * * * * * * * * * * * * * * * * * * * * * * * * * * //

dimensions      [1 -1 -3 0 0 0 0];

internalField   nonuniform List<scalar> 
126
(
-2.44652e-27
-2.44408e-27
-2.44315e-27
-2.44253e-27
-2.44192e-27
-2.44126e-27
-2.44058e-27
-2.43987e-27
-2.43915e-27
-2.43842e-27
-2.43769e-27
-2.43695e-27
-2.43621e-27
-2.43546e-27
-2.4347e-27
-2.43394e-27
-2.43318e-27
-2.4324e-27
-2.43162e-27
-2.43083e-27
-2.43004e-27
-2.42923e-27
-2.42842e-27
-2.42759e-27
-2.42676e-27
-2.42591e-27
-2.42505e-27
-2.42419e-27
-2.4233e-27
-2.42241e-27
-2.4215e-27
-2.42058e-27
-2.41964e-27
-2.41868e-27
-2.41771e-27
-2.41672e-27
-2.41572e-27
-2.41469e-27
-2.41365e-27
-2.41258e-27
-2.4115e-27
-2.41039e-27
-2.40926e-27
-2.40811e-27
-2.40694e-27
-2.40574e-27
-2.40452e-27
-2.40327e-27
-2.40199e-27
-2.40069e-27
-2.39936e-27
-2.398e-27
-2.39661e-27
-2.3952e-27
-2.39375e-27
-2.39228e-27
-2.39077e-27
-2.38923e-27
-2.38767e-27
-2.38607e-27
-2.38443e-27
-2.38277e-27
-2.38107e-27
-2.37934e-27
-2.37758e-27
-2.37579e-27
-2.37396e-27
-2.3721e-27
-2.37021e-27
-2.36829e-27
-2.36633e-27
-2.36434e-27
-2.36232e-27
-2.36027e-27
-2.35819e-27
-2.35608e-27
-2.35394e-27
-2.35177e-27
-2.34957e-27
-2.34735e-27
-2.3451e-27
-2.34282e-27
-2.34052e-27
-2.3382e-27
-2.33585e-27
-2.33348e-27
-2.33109e-27
-2.32869e-27
-2.32626e-27
-2.32382e-27
-2.32136e-27
-2.31888e-27
-2.3164e-27
-2.3139e-27
-2.31139e-27
-2.30887e-27
-2.30634e-27
-2.3038e-27
-2.30126e-27
-2.29871e-27
-2.29615e-27
-2.29359e-27
-2.29103e-27
-2.28846e-27
-2.28589e-27
-2.28327e-27
-2.28039e-27
-2.27595e-27
-2.26218e-27
-2.19259e-27
-1.78884e-27
6.12869e-28
1.49464e-26
1.00441e-25
6.09744e-25
3.63993e-24
2.16504e-23
1.28643e-22
7.64338e-22
4.54531e-21
2.70818e-20
1.61863e-19
9.71728e-19
5.86786e-18
3.56949e-17
2.19092e-16
)
;

boundaryField
{
    boundary
    {
        type            empty;
    }
    inlet
    {
        type            calculated;
        value           nonuniform 0();
    }
    outlet
    {
        type            calculated;
        value           nonuniform 0();
    }
    procBoundary3to1
    {
        type            processor;
        value           uniform 0;
    }
    procBoundary3to2
    {
        type            processor;
        value           uniform 0;
    }
}


// ************************************************************************* //
