/*--------------------------------*- C++ -*----------------------------------*\
  =========                 |
  \\      /  F ield         | OpenFOAM: The Open Source CFD Toolbox
   \\    /   O peration     | Website:  https://openfoam.org
    \\  /    A nd           | Version:  7
     \\/     M anipulation  |
\*---------------------------------------------------------------------------*/
FoamFile
{
    version     2.0;
    format      ascii;
    class       volScalarField;
    location    "6e-05";
    object      T;
}
// * * * * * * * * * * * * * * * * * * * * * * * * * * * * * * * * * * * * * //

dimensions      [0 0 0 1 0 0 0];

internalField   nonuniform List<scalar> 
126
(
301.226
301.226
301.225
301.224
301.224
301.223
301.222
301.221
301.221
301.22
301.219
301.218
301.217
301.216
301.215
301.214
301.213
301.212
301.211
301.21
301.209
301.208
301.207
301.206
301.205
301.204
301.203
301.202
301.201
301.2
301.199
301.197
301.196
301.195
301.194
301.192
301.191
301.19
301.189
301.187
301.186
301.184
301.183
301.181
301.18
301.178
301.177
301.175
301.174
301.172
301.17
301.168
301.167
301.165
301.163
301.161
301.159
301.157
301.155
301.153
301.151
301.149
301.146
301.144
301.142
301.139
301.137
301.135
301.132
301.129
301.127
301.124
301.121
301.119
301.116
301.113
301.11
301.107
301.104
301.101
301.098
301.095
301.092
301.088
301.085
301.082
301.078
301.075
301.071
301.068
301.064
301.061
301.057
301.054
301.05
301.046
301.042
301.039
301.035
301.031
301.027
301.024
301.02
301.016
301.012
301.008
301.004
301
300.996
300.992
300.989
300.985
300.981
300.977
300.973
300.969
300.965
300.961
300.957
300.953
300.949
300.945
300.941
300.936
300.932
300.927
)
;

boundaryField
{
    boundary
    {
        type            empty;
    }
    inlet
    {
        type            fixedValue;
        value           nonuniform 0();
    }
    outlet
    {
        type            zeroGradient;
    }
    procBoundary3to1
    {
        type            processor;
        value           uniform 300.922;
    }
    procBoundary3to2
    {
        type            processor;
        value           uniform 301.228;
    }
}


// ************************************************************************* //
