/*--------------------------------*- C++ -*----------------------------------*\
  =========                 |
  \\      /  F ield         | OpenFOAM: The Open Source CFD Toolbox
   \\    /   O peration     | Website:  https://openfoam.org
    \\  /    A nd           | Version:  7
     \\/     M anipulation  |
\*---------------------------------------------------------------------------*/
FoamFile
{
    version     2.0;
    format      ascii;
    class       volVectorField;
    location    "6e-05";
    object      U;
}
// * * * * * * * * * * * * * * * * * * * * * * * * * * * * * * * * * * * * * //

dimensions      [0 1 -1 0 0 0 0];

internalField   nonuniform List<vector> 
126
(
(2.12429 0 0)
(2.12302 0 0)
(2.12161 0 0)
(2.12009 0 0)
(2.11864 0 0)
(2.1172 0 0)
(2.11573 0 0)
(2.11426 0 0)
(2.11277 0 0)
(2.11127 0 0)
(2.10976 0 0)
(2.10824 0 0)
(2.1067 0 0)
(2.10514 0 0)
(2.10357 0 0)
(2.10199 0 0)
(2.10038 0 0)
(2.09876 0 0)
(2.09712 0 0)
(2.09547 0 0)
(2.09379 0 0)
(2.09209 0 0)
(2.09037 0 0)
(2.08863 0 0)
(2.08686 0 0)
(2.08508 0 0)
(2.08326 0 0)
(2.08142 0 0)
(2.07956 0 0)
(2.07768 0 0)
(2.07576 0 0)
(2.07379 0 0)
(2.07181 0 0)
(2.0698 0 0)
(2.06776 0 0)
(2.06569 0 0)
(2.06358 0 0)
(2.06143 0 0)
(2.05925 0 0)
(2.05703 0 0)
(2.05477 0 0)
(2.05248 0 0)
(2.05015 0 0)
(2.04776 0 0)
(2.04535 0 0)
(2.0429 0 0)
(2.0404 0 0)
(2.03784 0 0)
(2.03524 0 0)
(2.03261 0 0)
(2.02992 0 0)
(2.02719 0 0)
(2.0244 0 0)
(2.02156 0 0)
(2.01868 0 0)
(2.01574 0 0)
(2.01276 0 0)
(2.00971 0 0)
(2.00663 0 0)
(2.00348 0 0)
(2.00027 0 0)
(1.99703 0 0)
(1.99373 0 0)
(1.99035 0 0)
(1.98692 0 0)
(1.98346 0 0)
(1.97994 0 0)
(1.97635 0 0)
(1.97272 0 0)
(1.96903 0 0)
(1.96528 0 0)
(1.96149 0 0)
(1.95764 0 0)
(1.95373 0 0)
(1.94979 0 0)
(1.94578 0 0)
(1.94174 0 0)
(1.93764 0 0)
(1.93349 0 0)
(1.9293 0 0)
(1.92506 0 0)
(1.92079 0 0)
(1.91647 0 0)
(1.91211 0 0)
(1.90772 0 0)
(1.90329 0 0)
(1.89883 0 0)
(1.89433 0 0)
(1.88981 0 0)
(1.88525 0 0)
(1.88068 0 0)
(1.87608 0 0)
(1.87145 0 0)
(1.86681 0 0)
(1.86215 0 0)
(1.85748 0 0)
(1.8528 0 0)
(1.8481 0 0)
(1.8434 0 0)
(1.83869 0 0)
(1.83398 0 0)
(1.82927 0 0)
(1.82456 0 0)
(1.81985 0 0)
(1.81516 0 0)
(1.81046 0 0)
(1.80576 0 0)
(1.80108 0 0)
(1.79642 0 0)
(1.79177 0 0)
(1.78712 0 0)
(1.7825 0 0)
(1.77789 0 0)
(1.7733 0 0)
(1.76873 0 0)
(1.76418 0 0)
(1.75964 0 0)
(1.75514 0 0)
(1.75064 0 0)
(1.74616 0 0)
(1.74169 0 0)
(1.73727 0 0)
(1.73288 0 0)
(1.72848 0 0)
(1.7241 0 0)
(1.71969 0 0)
)
;

boundaryField
{
    boundary
    {
        type            empty;
    }
    inlet
    {
        type            fixedValue;
        value           nonuniform 0();
    }
    outlet
    {
        type            zeroGradient;
    }
    procBoundary3to1
    {
        type            processor;
        value           uniform (1.71537 0 0);
    }
    procBoundary3to2
    {
        type            processor;
        value           uniform (2.12572 0 0);
    }
}


// ************************************************************************* //
