/*--------------------------------*- C++ -*----------------------------------*\
  =========                 |
  \\      /  F ield         | OpenFOAM: The Open Source CFD Toolbox
   \\    /   O peration     | Website:  https://openfoam.org
    \\  /    A nd           | Version:  7
     \\/     M anipulation  |
\*---------------------------------------------------------------------------*/
FoamFile
{
    version     2.0;
    format      ascii;
    class       volScalarField;
    location    "0.00091";
    object      H2O2;
}
// * * * * * * * * * * * * * * * * * * * * * * * * * * * * * * * * * * * * * //

dimensions      [0 0 0 0 0 0 0];

internalField   nonuniform List<scalar> 
125
(
1.68764e-19
7.13659e-19
3.01207e-18
1.27091e-17
5.36339e-17
2.26422e-16
9.56297e-16
4.04104e-15
1.70857e-14
7.22808e-14
3.05954e-13
1.29576e-12
5.49044e-12
2.32749e-11
9.87056e-11
4.1874e-10
1.77692e-09
7.54174e-09
3.20079e-08
1.35746e-07
5.73887e-07
2.39771e-06
9.60737e-06
3.36277e-05
8.23686e-05
0.000118668
0.000117145
7.27117e-05
3.25398e-05
1.30145e-05
6.1958e-06
4.51108e-06
4.5943e-06
5.22095e-06
5.83498e-06
6.30587e-06
6.60364e-06
6.74983e-06
6.7795e-06
6.7258e-06
6.6154e-06
6.46815e-06
6.29811e-06
6.11536e-06
5.92675e-06
5.73696e-06
5.54918e-06
5.3655e-06
5.1873e-06
5.01539e-06
4.85025e-06
4.6921e-06
4.54095e-06
4.39673e-06
4.25924e-06
4.12827e-06
4.00354e-06
3.88479e-06
3.77175e-06
3.66417e-06
3.56184e-06
3.46751e-06
3.37878e-06
3.2936e-06
3.21179e-06
3.13319e-06
3.05763e-06
2.98496e-06
2.91504e-06
2.84774e-06
2.78294e-06
2.72051e-06
2.66034e-06
2.60232e-06
2.54635e-06
2.49234e-06
2.4402e-06
2.38984e-06
2.34117e-06
2.29413e-06
2.24864e-06
2.20463e-06
2.16203e-06
2.12079e-06
2.08085e-06
2.04214e-06
2.00463e-06
1.96825e-06
1.93296e-06
1.89872e-06
1.86548e-06
1.83321e-06
1.80186e-06
1.7714e-06
1.74179e-06
1.71301e-06
1.68501e-06
1.65778e-06
1.63127e-06
1.60547e-06
1.58035e-06
1.55588e-06
1.53204e-06
1.50881e-06
1.48617e-06
1.46409e-06
1.44256e-06
1.42155e-06
1.40106e-06
1.38105e-06
1.36153e-06
1.34246e-06
1.32385e-06
1.30566e-06
1.28789e-06
1.27053e-06
1.25356e-06
1.23697e-06
1.22075e-06
1.20489e-06
1.18938e-06
1.17421e-06
1.15938e-06
1.14489e-06
1.13073e-06
)
;

boundaryField
{
    boundary
    {
        type            empty;
    }
    inlet
    {
        type            fixedValue;
        value           nonuniform 0();
    }
    outlet
    {
        type            zeroGradient;
    }
    procBoundary1to0
    {
        type            processor;
        value           uniform 1.11685e-06;
    }
    procBoundary1to3
    {
        type            processor;
        value           uniform 3.97762e-20;
    }
}


// ************************************************************************* //
