/*--------------------------------*- C++ -*----------------------------------*\
  =========                 |
  \\      /  F ield         | OpenFOAM: The Open Source CFD Toolbox
   \\    /   O peration     | Website:  https://openfoam.org
    \\  /    A nd           | Version:  7
     \\/     M anipulation  |
\*---------------------------------------------------------------------------*/
FoamFile
{
    version     2.0;
    format      ascii;
    class       volScalarField;
    location    "0.00024";
    object      HO2;
}
// * * * * * * * * * * * * * * * * * * * * * * * * * * * * * * * * * * * * * //

dimensions      [0 0 0 0 0 0 0];

internalField   nonuniform List<scalar> 
125
(
5.61688e-38
1.28251e-37
2.0121e-37
2.75107e-37
3.50246e-37
4.27012e-37
5.05791e-37
5.86905e-37
6.70543e-37
7.56691e-37
8.45072e-37
9.35097e-37
1.02585e-36
1.11611e-36
1.20444e-36
1.28928e-36
1.36912e-36
1.44259e-36
1.50865e-36
1.56663e-36
1.6163e-36
1.6578e-36
1.69163e-36
1.71852e-36
1.7394e-36
1.75522e-36
1.76692e-36
1.77539e-36
1.78137e-36
1.78551e-36
1.78831e-36
1.79017e-36
1.79137e-36
1.79214e-36
1.79262e-36
1.79291e-36
1.79308e-36
1.79319e-36
1.79325e-36
1.79328e-36
1.7933e-36
1.79331e-36
1.79331e-36
1.79331e-36
1.79332e-36
1.79332e-36
1.79332e-36
1.79332e-36
1.79332e-36
1.79332e-36
1.79332e-36
1.79332e-36
1.79332e-36
1.79332e-36
1.79333e-36
1.79333e-36
1.79333e-36
1.79334e-36
1.79334e-36
1.79335e-36
1.79335e-36
1.79336e-36
1.79337e-36
1.79337e-36
1.79338e-36
1.79339e-36
1.7934e-36
1.79341e-36
1.79342e-36
1.79344e-36
1.79345e-36
1.79346e-36
1.79348e-36
1.7935e-36
1.79351e-36
1.79353e-36
1.79355e-36
1.79357e-36
1.7936e-36
1.79362e-36
1.79364e-36
1.79367e-36
1.7937e-36
1.79373e-36
1.79376e-36
1.79379e-36
1.79382e-36
1.79386e-36
1.79389e-36
1.79393e-36
1.79397e-36
1.79401e-36
1.79405e-36
1.7941e-36
1.79414e-36
1.79419e-36
1.79424e-36
1.79429e-36
1.79435e-36
1.7944e-36
1.79446e-36
1.79452e-36
1.79458e-36
1.79464e-36
1.7947e-36
1.79477e-36
1.79484e-36
1.79491e-36
1.79498e-36
1.79505e-36
1.79513e-36
1.79521e-36
1.79529e-36
1.79537e-36
1.79545e-36
1.79554e-36
1.79562e-36
1.79571e-36
1.7958e-36
1.79589e-36
1.79597e-36
1.79602e-36
1.79598e-36
1.79576e-36
1.79536e-36
)
;

boundaryField
{
    boundary
    {
        type            empty;
    }
    inlet
    {
        type            fixedValue;
        value           uniform 0;
    }
    outlet
    {
        type            zeroGradient;
    }
    procBoundary2to3
    {
        type            processor;
        value           uniform 1.79503e-36;
    }
}


// ************************************************************************* //
