/*--------------------------------*- C++ -*----------------------------------*\
  =========                 |
  \\      /  F ield         | OpenFOAM: The Open Source CFD Toolbox
   \\    /   O peration     | Website:  https://openfoam.org
    \\  /    A nd           | Version:  7
     \\/     M anipulation  |
\*---------------------------------------------------------------------------*/
FoamFile
{
    version     2.0;
    format      ascii;
    class       surfaceScalarField;
    location    "0.00024";
    object      phi;
}
// * * * * * * * * * * * * * * * * * * * * * * * * * * * * * * * * * * * * * //

dimensions      [1 0 -1 0 0 0 0];

internalField   nonuniform List<scalar> 
124
(
6.92883e-06
6.92823e-06
6.92759e-06
6.92689e-06
6.92611e-06
6.92521e-06
6.92415e-06
6.92292e-06
6.92147e-06
6.91981e-06
6.91791e-06
6.91581e-06
6.91351e-06
6.91106e-06
6.90851e-06
6.90591e-06
6.90332e-06
6.9008e-06
6.8984e-06
6.89618e-06
6.89415e-06
6.89234e-06
6.89075e-06
6.88937e-06
6.88818e-06
6.88718e-06
6.88632e-06
6.88558e-06
6.88495e-06
6.88439e-06
6.88389e-06
6.88343e-06
6.88301e-06
6.88261e-06
6.88223e-06
6.88185e-06
6.88149e-06
6.88113e-06
6.88077e-06
6.88041e-06
6.88006e-06
6.8797e-06
6.87935e-06
6.879e-06
6.87864e-06
6.87829e-06
6.87794e-06
6.87759e-06
6.87724e-06
6.87688e-06
6.87653e-06
6.87618e-06
6.87583e-06
6.87548e-06
6.87513e-06
6.87478e-06
6.87444e-06
6.87409e-06
6.87374e-06
6.87339e-06
6.87304e-06
6.87269e-06
6.87235e-06
6.872e-06
6.87165e-06
6.87131e-06
6.87096e-06
6.87062e-06
6.87027e-06
6.86993e-06
6.86958e-06
6.86924e-06
6.86889e-06
6.86855e-06
6.86821e-06
6.86786e-06
6.86752e-06
6.86718e-06
6.86683e-06
6.86649e-06
6.86615e-06
6.86581e-06
6.86547e-06
6.86513e-06
6.86479e-06
6.86445e-06
6.86411e-06
6.86377e-06
6.86343e-06
6.86309e-06
6.86275e-06
6.86241e-06
6.86207e-06
6.86173e-06
6.8614e-06
6.86106e-06
6.86072e-06
6.86038e-06
6.86005e-06
6.85971e-06
6.85937e-06
6.85904e-06
6.8587e-06
6.85837e-06
6.85803e-06
6.85769e-06
6.85736e-06
6.85702e-06
6.85669e-06
6.85635e-06
6.85602e-06
6.85568e-06
6.85535e-06
6.85502e-06
6.85468e-06
6.85435e-06
6.85401e-06
6.85368e-06
6.85335e-06
6.85301e-06
6.85268e-06
6.85235e-06
6.85201e-06
6.85168e-06
)
;

boundaryField
{
    boundary
    {
        type            empty;
        value           nonuniform 0();
    }
    inlet
    {
        type            calculated;
        value           uniform -6.92938e-06;
    }
    outlet
    {
        type            calculated;
        value           nonuniform 0();
    }
    procBoundary2to3
    {
        type            processor;
        value           uniform 6.85135e-06;
    }
}


// ************************************************************************* //
