/*--------------------------------*- C++ -*----------------------------------*\
  =========                 |
  \\      /  F ield         | OpenFOAM: The Open Source CFD Toolbox
   \\    /   O peration     | Website:  https://openfoam.org
    \\  /    A nd           | Version:  7
     \\/     M anipulation  |
\*---------------------------------------------------------------------------*/
FoamFile
{
    version     2.0;
    format      ascii;
    class       volScalarField;
    location    "0.00068";
    object      H;
}
// * * * * * * * * * * * * * * * * * * * * * * * * * * * * * * * * * * * * * //

dimensions      [0 0 0 0 0 0 0];

internalField   nonuniform List<scalar> 
500
(
1.48443e-41
2.00827e-41
2.11809e-41
2.13827e-41
2.13896e-41
2.13551e-41
2.13141e-41
2.12755e-41
2.12423e-41
2.12158e-41
2.11967e-41
2.11851e-41
2.11808e-41
2.11835e-41
2.11924e-41
2.12071e-41
2.12268e-41
2.12512e-41
2.12799e-41
2.13128e-41
2.13499e-41
2.13916e-41
2.14384e-41
2.14912e-41
2.15508e-41
2.16184e-41
2.16955e-41
2.17835e-41
2.18841e-41
2.19989e-41
2.21299e-41
2.22788e-41
2.24475e-41
2.26375e-41
2.28505e-41
2.30879e-41
2.33506e-41
2.36396e-41
2.39551e-41
2.42971e-41
2.4665e-41
2.50577e-41
2.54736e-41
2.59104e-41
2.63654e-41
2.68353e-41
2.73166e-41
2.7805e-41
2.82963e-41
2.8786e-41
2.92696e-41
2.97429e-41
3.02016e-41
3.06421e-41
3.10609e-41
3.14555e-41
3.18237e-41
3.21639e-41
3.24754e-41
3.27578e-41
3.30116e-41
3.32374e-41
3.34366e-41
3.36107e-41
3.37615e-41
3.38909e-41
3.40011e-41
3.4094e-41
3.41718e-41
3.42363e-41
3.42894e-41
3.43327e-41
3.43678e-41
3.4396e-41
3.44185e-41
3.44363e-41
3.44503e-41
3.44612e-41
3.44696e-41
3.44762e-41
3.44812e-41
3.4485e-41
3.44879e-41
3.44901e-41
3.44918e-41
3.44931e-41
3.44941e-41
3.44949e-41
3.44955e-41
3.4496e-41
3.44965e-41
3.44969e-41
3.44973e-41
3.44976e-41
3.4498e-41
3.44984e-41
3.44987e-41
3.44991e-41
3.44995e-41
3.44999e-41
3.45003e-41
3.45008e-41
3.45012e-41
3.45017e-41
3.45022e-41
3.45027e-41
3.45033e-41
3.45039e-41
3.45045e-41
3.45051e-41
3.45058e-41
3.45065e-41
3.45072e-41
3.45079e-41
3.45087e-41
3.45095e-41
3.45103e-41
3.45112e-41
3.45121e-41
3.45131e-41
3.45141e-41
3.45154e-41
3.45169e-41
3.45192e-41
3.45228e-41
3.45269e-41
3.45295e-41
3.45317e-41
3.45335e-41
3.45348e-41
3.45357e-41
3.45363e-41
3.45366e-41
3.45369e-41
3.4537e-41
3.45372e-41
3.45376e-41
3.45381e-41
3.45388e-41
3.45397e-41
3.45409e-41
3.45423e-41
3.45438e-41
3.45456e-41
3.45474e-41
3.45494e-41
3.45515e-41
3.45535e-41
3.45557e-41
3.45578e-41
3.45599e-41
3.45621e-41
3.45642e-41
3.45664e-41
3.45685e-41
3.45707e-41
3.45729e-41
3.45751e-41
3.45773e-41
3.45795e-41
3.45818e-41
3.45841e-41
3.45864e-41
3.45887e-41
3.45911e-41
3.45935e-41
3.45959e-41
3.45983e-41
3.46008e-41
3.46033e-41
3.46058e-41
3.46083e-41
3.46109e-41
3.46134e-41
3.4616e-41
3.46185e-41
3.46211e-41
3.46236e-41
3.46261e-41
3.46285e-41
3.46309e-41
3.46333e-41
3.46355e-41
3.46378e-41
3.46399e-41
3.46419e-41
3.46439e-41
3.46457e-41
3.46475e-41
3.46491e-41
3.46506e-41
3.4652e-41
3.46533e-41
3.46544e-41
3.46553e-41
3.46561e-41
3.46567e-41
3.46572e-41
3.46574e-41
3.46575e-41
3.46573e-41
3.4657e-41
3.46564e-41
3.46556e-41
3.46545e-41
3.46532e-41
3.46517e-41
3.46499e-41
3.46478e-41
3.46457e-41
3.46442e-41
3.46455e-41
3.46574e-41
3.47072e-41
3.48895e-41
3.55299e-41
3.7742e-41
4.53108e-41
7.10228e-41
1.57814e-40
4.49018e-40
1.42038e-39
4.64223e-39
1.52698e-38
5.01389e-38
1.63956e-37
5.3363e-37
1.72862e-36
5.57401e-36
1.7895e-35
5.7212e-35
1.82197e-34
5.78097e-34
1.828e-33
5.76216e-33
1.81111e-32
5.67782e-32
1.77595e-31
5.54424e-31
1.72816e-30
5.38096e-30
1.67464e-29
5.21304e-29
1.62479e-28
5.0771e-28
1.59345e-27
5.0353e-27
1.6073e-26
5.20447e-26
1.71822e-25
5.81689e-25
2.04116e-24
7.39305e-24
2.77579e-23
1.08132e-22
4.359e-22
1.80998e-21
7.69991e-21
3.33892e-20
1.46962e-19
6.54596e-19
2.94554e-18
1.33853e-17
6.14967e-17
2.86435e-16
1.35877e-15
6.60738e-15
3.32008e-14
1.73835e-13
9.84383e-13
6.60453e-12
5.76275e-11
5.67289e-10
5.29453e-09
4.94061e-08
4.45361e-07
3.61242e-06
2.33051e-05
0.000101478
0.000276432
0.000542364
0.000878194
0.00124096
0.00156088
0.00178275
0.0018996
0.00192866
0.00190295
0.00184663
0.00177579
0.0017001
0.00162495
0.00155307
0.00148567
0.00142312
0.00136537
0.00131212
0.00126301
0.00121764
0.00117565
0.00113669
0.00110044
0.00106664
0.00103503
0.00100542
0.000977598
0.000951415
0.000926722
0.000903393
0.000881313
0.000860384
0.000840514
0.000822178
0.000805096
0.000788701
0.000772953
0.000757813
0.000743246
0.000729218
0.0007157
0.000702662
0.000690079
0.000677926
0.000666181
0.000654823
0.000643833
0.000633191
0.000622882
0.00061289
0.000603199
0.000593795
0.000584667
0.0005758
0.000567185
0.00055881
0.000550664
0.000542739
0.000535025
0.000527514
0.000520197
0.000513067
0.000506117
0.000499339
0.000492728
0.000486277
0.00047998
0.000473831
0.000467826
0.000461959
0.000456226
0.000450621
0.000445141
0.000439781
0.000434538
0.000429407
0.000424384
0.000419468
0.000414653
0.000409937
0.000405318
0.000400791
0.000396354
0.000392005
0.000387741
0.000383559
0.000379458
0.000375435
0.000371487
0.000367614
0.000363812
0.00036008
0.000356417
0.000352821
0.000349291
0.000345824
0.000342421
0.000339071
0.000335771
0.000332528
0.000329339
0.000326204
0.000323121
0.00032009
0.000317108
0.000314175
0.000311289
0.00030845
0.000305656
0.000302906
0.0003002
0.000297536
0.000294913
0.000292331
0.000289789
0.000287285
0.000284819
0.00028239
0.000279997
0.00027764
0.000275318
0.00027303
0.000270776
0.000268554
0.000266364
0.000264206
0.000262079
0.000259982
0.000257915
0.000255877
0.000253868
0.000251886
0.000249933
0.000248006
0.000246106
0.000244232
0.000242384
0.000240561
0.000238763
0.00023699
0.000235241
0.000233515
0.000231813
0.000230133
0.000228477
0.000226843
0.00022523
0.00022364
0.000222071
0.000220523
0.000218996
0.000217489
0.000216004
0.000214538
0.000213092
0.000211666
0.000210259
0.000208872
0.000207503
0.000206154
0.000204824
0.000203512
0.000202218
0.000200943
0.000199686
0.000198446
0.000197225
0.000196021
0.000194835
0.000193667
0.000192515
0.000191381
0.000190264
0.000189164
0.000188081
0.000187014
0.000185964
0.000184931
0.000183913
0.000182912
0.000181926
0.000180955
0.000179997
0.000179042
0.000178066
0.000177049
0.000176139
0.000175245
0.000174367
0.000173503
0.000172652
0.000171814
0.000170988
0.000170173
0.00016937
0.000168577
0.000167794
0.000167021
0.000166257
0.000165502
0.000164755
0.000164015
0.000163283
0.000162558
0.000161839
0.000161126
0.000160418
0.000159715
0.000159017
0.000158323
0.000157634
0.00015695
0.000156271
0.0001556
0.000154938
0.000154292
0.000153668
0.000153082
0.000152558
0.000152139
0.000151887
)
;

boundaryField
{
    boundary
    {
        type            empty;
    }
    inlet
    {
        type            fixedValue;
        value           uniform 0;
    }
    outlet
    {
        type            zeroGradient;
    }
}


// ************************************************************************* //
