/*--------------------------------*- C++ -*----------------------------------*\
  =========                 |
  \\      /  F ield         | OpenFOAM: The Open Source CFD Toolbox
   \\    /   O peration     | Website:  https://openfoam.org
    \\  /    A nd           | Version:  7
     \\/     M anipulation  |
\*---------------------------------------------------------------------------*/
FoamFile
{
    version     2.0;
    format      ascii;
    class       volScalarField;
    location    "0.00068";
    object      H2;
}
// * * * * * * * * * * * * * * * * * * * * * * * * * * * * * * * * * * * * * //

dimensions      [0 0 0 0 0 0 0];

internalField   nonuniform List<scalar> 
500
(
0.0285116
0.0285116
0.0285116
0.0285116
0.0285116
0.0285116
0.0285116
0.0285116
0.0285116
0.0285116
0.0285116
0.0285116
0.0285116
0.0285116
0.0285116
0.0285116
0.0285116
0.0285116
0.0285116
0.0285116
0.0285116
0.0285116
0.0285116
0.0285116
0.0285116
0.0285116
0.0285116
0.0285116
0.0285116
0.0285116
0.0285116
0.0285116
0.0285116
0.0285116
0.0285116
0.0285116
0.0285116
0.0285116
0.0285116
0.0285116
0.0285116
0.0285116
0.0285116
0.0285116
0.0285116
0.0285116
0.0285116
0.0285116
0.0285116
0.0285116
0.0285116
0.0285116
0.0285116
0.0285116
0.0285116
0.0285116
0.0285116
0.0285116
0.0285116
0.0285116
0.0285116
0.0285116
0.0285116
0.0285116
0.0285116
0.0285116
0.0285116
0.0285116
0.0285116
0.0285116
0.0285116
0.0285116
0.0285116
0.0285116
0.0285116
0.0285116
0.0285116
0.0285116
0.0285116
0.0285116
0.0285116
0.0285116
0.0285116
0.0285116
0.0285116
0.0285116
0.0285116
0.0285116
0.0285116
0.0285116
0.0285116
0.0285116
0.0285116
0.0285116
0.0285116
0.0285116
0.0285116
0.0285116
0.0285116
0.0285116
0.0285116
0.0285116
0.0285116
0.0285116
0.0285116
0.0285116
0.0285116
0.0285116
0.0285116
0.0285116
0.0285116
0.0285116
0.0285116
0.0285116
0.0285116
0.0285116
0.0285116
0.0285116
0.0285116
0.0285116
0.0285116
0.0285116
0.0285116
0.0285116
0.0285116
0.0285116
0.0285116
0.0285116
0.0285116
0.0285116
0.0285116
0.0285116
0.0285116
0.0285116
0.0285116
0.0285116
0.0285116
0.0285116
0.0285116
0.0285116
0.0285116
0.0285116
0.0285116
0.0285116
0.0285116
0.0285116
0.0285116
0.0285116
0.0285116
0.0285116
0.0285116
0.0285116
0.0285116
0.0285116
0.0285116
0.0285116
0.0285116
0.0285116
0.0285116
0.0285116
0.0285116
0.0285116
0.0285116
0.0285116
0.0285116
0.0285116
0.0285116
0.0285116
0.0285116
0.0285116
0.0285116
0.0285116
0.0285116
0.0285116
0.0285116
0.0285116
0.0285116
0.0285116
0.0285116
0.0285116
0.0285116
0.0285116
0.0285116
0.0285116
0.0285116
0.0285116
0.0285116
0.0285116
0.0285116
0.0285116
0.0285116
0.0285116
0.0285116
0.0285116
0.0285116
0.0285116
0.0285116
0.0285116
0.0285116
0.0285116
0.0285116
0.0285116
0.0285116
0.0285116
0.0285116
0.0285116
0.0285116
0.0285116
0.0285116
0.0285116
0.0285116
0.0285116
0.0285116
0.0285116
0.0285116
0.0285116
0.0285116
0.0285116
0.0285116
0.0285116
0.0285116
0.0285116
0.0285116
0.0285116
0.0285116
0.0285116
0.0285116
0.0285116
0.0285116
0.0285116
0.0285116
0.0285116
0.0285116
0.0285116
0.0285116
0.0285116
0.0285116
0.0285116
0.0285116
0.0285116
0.0285116
0.0285116
0.0285116
0.0285116
0.0285116
0.0285116
0.0285116
0.0285116
0.0285116
0.0285116
0.0285116
0.0285116
0.0285116
0.0285116
0.0285116
0.0285116
0.0285116
0.0285116
0.0285116
0.0285116
0.0285116
0.0285116
0.0285115
0.0285115
0.0285113
0.028511
0.0285105
0.0285093
0.0285067
0.0285015
0.0284907
0.0284681
0.0284212
0.0283243
0.0281256
0.0277285
0.0269798
0.0257053
0.0238155
0.0214281
0.0186935
0.015696
0.0126447
0.00990645
0.00776958
0.0062142
0.00523836
0.00462609
0.00424818
0.00401476
0.00386812
0.00377273
0.00370728
0.00365918
0.00362106
0.00358867
0.00355957
0.00353238
0.00350634
0.00348104
0.00345625
0.00343188
0.00340788
0.00338423
0.00336092
0.00333796
0.00331535
0.0032931
0.0032712
0.00324966
0.00322847
0.00320763
0.00318777
0.00316868
0.00314984
0.00313125
0.0031129
0.00309478
0.00307691
0.00305926
0.00304185
0.00302466
0.0030077
0.00299096
0.00297445
0.00295815
0.00294207
0.0029262
0.00291054
0.00289509
0.00287984
0.00286479
0.00284993
0.00283527
0.0028208
0.00280652
0.00279242
0.00277849
0.00276475
0.00275117
0.00273777
0.00272453
0.00271145
0.00269853
0.00268577
0.00267316
0.0026607
0.00264839
0.00263622
0.0026242
0.00261231
0.00260056
0.00258895
0.00257746
0.0025661
0.00255487
0.00254377
0.00253279
0.00252192
0.00251117
0.00250054
0.00249002
0.00247962
0.00246932
0.00245913
0.00244904
0.00243906
0.00242919
0.00241941
0.00240973
0.00240015
0.00239067
0.00238129
0.002372
0.00236281
0.00235371
0.00234468
0.00233571
0.00232681
0.002318
0.00230927
0.00230062
0.00229204
0.00228355
0.00227512
0.00226678
0.0022585
0.0022503
0.00224217
0.00223411
0.00222612
0.0022182
0.00221035
0.00220256
0.00219484
0.00218719
0.0021796
0.00217208
0.00216462
0.00215722
0.00214989
0.00214262
0.00213541
0.00212826
0.00212118
0.00211416
0.00210719
0.00210029
0.00209345
0.00208667
0.00207995
0.00207329
0.00206669
0.00206015
0.00205368
0.00204726
0.0020409
0.0020346
0.00202836
0.00202218
0.00201606
0.00201
0.00200401
0.00199807
0.00199219
0.00198638
0.00198063
0.00197493
0.00196931
0.00196374
0.00195824
0.0019528
0.00194742
0.00194212
0.00193687
0.0019317
0.00192659
0.00192155
0.00191658
0.00191169
0.00190686
0.00190211
0.00189744
0.00189284
0.00188833
0.00188389
0.00187954
0.00187527
0.00187109
0.001867
0.001863
0.00185909
0.00185529
0.00185158
0.00184798
0.00184448
0.0018411
0.00183783
0.00183467
0.00183164
0.00182874
0.00182598
0.00182336
0.00182091
0.00181834
0.00181618
0.00181414
0.00181223
0.00181046
0.00180885
0.00180739
0.0018061
0.00180497
0.00180401
0.00180322
0.0018026
0.00180216
0.0018019
0.00180181
0.00180191
0.00180219
0.00180264
0.00180328
0.0018041
0.00180509
0.00180627
0.00180761
0.00180913
0.00181082
0.00181267
0.00181468
0.00181684
0.00181915
0.00182158
0.00182412
0.00182672
0.00182931
0.00183175
0.0018338
0.0018351
)
;

boundaryField
{
    boundary
    {
        type            empty;
    }
    inlet
    {
        type            fixedValue;
        value           uniform 0.0285116;
    }
    outlet
    {
        type            zeroGradient;
    }
}


// ************************************************************************* //
