/*--------------------------------*- C++ -*----------------------------------*\
  =========                 |
  \\      /  F ield         | OpenFOAM: The Open Source CFD Toolbox
   \\    /   O peration     | Website:  https://openfoam.org
    \\  /    A nd           | Version:  7
     \\/     M anipulation  |
\*---------------------------------------------------------------------------*/
FoamFile
{
    version     2.0;
    format      ascii;
    class       volScalarField;
    location    "0.00061";
    object      H;
}
// * * * * * * * * * * * * * * * * * * * * * * * * * * * * * * * * * * * * * //

dimensions      [0 0 0 0 0 0 0];

internalField   nonuniform List<scalar> 
126
(
3.485e-41
3.48498e-41
3.48497e-41
3.48495e-41
3.48491e-41
3.48488e-41
3.48487e-41
3.4849e-41
3.48496e-41
3.48507e-41
3.48521e-41
3.48537e-41
3.48556e-41
3.48577e-41
3.48599e-41
3.48621e-41
3.48643e-41
3.48665e-41
3.48688e-41
3.4871e-41
3.48731e-41
3.48753e-41
3.48775e-41
3.48797e-41
3.48819e-41
3.48841e-41
3.48863e-41
3.48885e-41
3.48907e-41
3.4893e-41
3.48953e-41
3.48976e-41
3.49e-41
3.49023e-41
3.49047e-41
3.49072e-41
3.49096e-41
3.49121e-41
3.49147e-41
3.49172e-41
3.49198e-41
3.49224e-41
3.4925e-41
3.49276e-41
3.49303e-41
3.49329e-41
3.49355e-41
3.49381e-41
3.49407e-41
3.49432e-41
3.49457e-41
3.49481e-41
3.49505e-41
3.49527e-41
3.49549e-41
3.49571e-41
3.49591e-41
3.4961e-41
3.49628e-41
3.49645e-41
3.4966e-41
3.49675e-41
3.49688e-41
3.49699e-41
3.49709e-41
3.49717e-41
3.49724e-41
3.49729e-41
3.49732e-41
3.49733e-41
3.49732e-41
3.49728e-41
3.49723e-41
3.49715e-41
3.49705e-41
3.49692e-41
3.49677e-41
3.49658e-41
3.49637e-41
3.49613e-41
3.49586e-41
3.49555e-41
3.49521e-41
3.49484e-41
3.49444e-41
3.49402e-41
3.49364e-41
3.49352e-41
3.49443e-41
3.49927e-41
3.51842e-41
3.5893e-41
3.84527e-41
4.75868e-41
7.98998e-41
1.93347e-40
5.88784e-40
1.95744e-39
6.66177e-39
2.27213e-38
7.71782e-38
2.60625e-37
8.74632e-37
2.91689e-36
9.66847e-36
3.18579e-35
1.04374e-34
3.40083e-34
1.10232e-33
3.55539e-33
1.14143e-32
3.64875e-32
1.16177e-31
3.686e-31
1.16584e-30
3.67786e-30
1.15797e-29
3.64147e-29
1.1449e-28
3.60368e-28
1.13756e-27
3.60982e-27
1.15521e-26
3.74354e-26
1.23472e-25
4.16942e-25
)
;

boundaryField
{
    boundary
    {
        type            empty;
    }
    inlet
    {
        type            fixedValue;
        value           nonuniform 0();
    }
    outlet
    {
        type            zeroGradient;
    }
    procBoundary3to1
    {
        type            processor;
        value           uniform 1.45689e-24;
    }
    procBoundary3to2
    {
        type            processor;
        value           uniform 3.48436e-41;
    }
}


// ************************************************************************* //
