/*--------------------------------*- C++ -*----------------------------------*\
  =========                 |
  \\      /  F ield         | OpenFOAM: The Open Source CFD Toolbox
   \\    /   O peration     | Website:  https://openfoam.org
    \\  /    A nd           | Version:  7
     \\/     M anipulation  |
\*---------------------------------------------------------------------------*/
FoamFile
{
    version     2.0;
    format      ascii;
    class       volScalarField;
    location    "0.00061";
    object      H2O;
}
// * * * * * * * * * * * * * * * * * * * * * * * * * * * * * * * * * * * * * //

dimensions      [0 0 0 0 0 0 0];

internalField   nonuniform List<scalar> 
126
(
1.88783e-45
1.88791e-45
1.88799e-45
1.88808e-45
1.88819e-45
1.88831e-45
1.88846e-45
1.88864e-45
1.88886e-45
1.88912e-45
1.88944e-45
1.88981e-45
1.89023e-45
1.8907e-45
1.89122e-45
1.89177e-45
1.89235e-45
1.89293e-45
1.8935e-45
1.89406e-45
1.89457e-45
1.89503e-45
1.89544e-45
1.89579e-45
1.89608e-45
1.8963e-45
1.89648e-45
1.8966e-45
1.89668e-45
1.89673e-45
1.89676e-45
1.89677e-45
1.89678e-45
1.89679e-45
1.89681e-45
1.89685e-45
1.89691e-45
1.897e-45
1.89711e-45
1.89725e-45
1.89741e-45
1.89761e-45
1.89782e-45
1.89806e-45
1.89831e-45
1.89857e-45
1.89884e-45
1.89912e-45
1.89939e-45
1.89966e-45
1.89992e-45
1.90017e-45
1.90041e-45
1.90064e-45
1.90085e-45
1.90105e-45
1.90123e-45
1.90139e-45
1.90154e-45
1.90168e-45
1.9018e-45
1.90191e-45
1.90201e-45
1.90209e-45
1.90215e-45
1.90221e-45
1.90225e-45
1.90227e-45
1.90229e-45
1.90228e-45
1.90227e-45
1.90224e-45
1.90219e-45
1.90214e-45
1.90213e-45
1.9023e-45
1.90327e-45
1.90762e-45
1.92567e-45
1.99899e-45
2.29341e-45
3.46656e-45
8.10968e-45
2.63736e-44
9.78107e-44
3.75809e-43
1.45292e-42
5.61175e-42
2.16315e-41
8.32777e-41
3.2064e-40
1.23678e-39
4.78831e-39
1.86443e-38
7.31514e-38
2.89692e-37
1.15937e-36
4.69188e-36
1.91995e-35
7.9383e-35
3.31207e-34
1.39211e-33
5.88351e-33
2.49557e-32
1.06049e-31
4.5078e-31
1.91416e-30
8.11113e-30
3.42702e-29
1.44284e-28
6.05064e-28
2.52665e-27
1.05049e-26
4.34832e-26
1.79209e-25
7.35461e-25
3.00605e-24
1.22395e-23
4.96562e-23
2.00788e-22
8.0943e-22
3.25403e-21
1.30492e-20
5.2214e-20
2.08518e-19
8.31308e-19
)
;

boundaryField
{
    boundary
    {
        type            empty;
    }
    inlet
    {
        type            fixedValue;
        value           nonuniform 0();
    }
    outlet
    {
        type            zeroGradient;
    }
    procBoundary3to1
    {
        type            processor;
        value           uniform 3.327e-18;
    }
    procBoundary3to2
    {
        type            processor;
        value           uniform 1.89119e-45;
    }
}


// ************************************************************************* //
