/*--------------------------------*- C++ -*----------------------------------*\
  =========                 |
  \\      /  F ield         | OpenFOAM: The Open Source CFD Toolbox
   \\    /   O peration     | Website:  https://openfoam.org
    \\  /    A nd           | Version:  7
     \\/     M anipulation  |
\*---------------------------------------------------------------------------*/
FoamFile
{
    version     2.0;
    format      ascii;
    class       volScalarField;
    location    "9e-05";
    object      H;
}
// * * * * * * * * * * * * * * * * * * * * * * * * * * * * * * * * * * * * * //

dimensions      [0 0 0 0 0 0 0];

internalField   nonuniform List<scalar> 
125
(
1.518e-41
2.11742e-41
2.3311e-41
2.48109e-41
2.62656e-41
2.76842e-41
2.89715e-41
3.005e-41
3.08882e-41
3.14959e-41
3.19091e-41
3.21741e-41
3.2335e-41
3.24277e-41
3.24786e-41
3.25051e-41
3.25183e-41
3.25243e-41
3.25267e-41
3.25274e-41
3.25272e-41
3.25267e-41
3.25259e-41
3.2525e-41
3.25241e-41
3.25231e-41
3.25221e-41
3.25211e-41
3.252e-41
3.25189e-41
3.25178e-41
3.25166e-41
3.25154e-41
3.25142e-41
3.25129e-41
3.25117e-41
3.25104e-41
3.2509e-41
3.25077e-41
3.25063e-41
3.25049e-41
3.25035e-41
3.25021e-41
3.25007e-41
3.24992e-41
3.24978e-41
3.24963e-41
3.24948e-41
3.24933e-41
3.24918e-41
3.24902e-41
3.24887e-41
3.24872e-41
3.24856e-41
3.24841e-41
3.24826e-41
3.2481e-41
3.24795e-41
3.24779e-41
3.24764e-41
3.24749e-41
3.24734e-41
3.24719e-41
3.24704e-41
3.24689e-41
3.24674e-41
3.2466e-41
3.24646e-41
3.24632e-41
3.24618e-41
3.24604e-41
3.24591e-41
3.24577e-41
3.24564e-41
3.24552e-41
3.2454e-41
3.24528e-41
3.24516e-41
3.24505e-41
3.24494e-41
3.24483e-41
3.24473e-41
3.24463e-41
3.24454e-41
3.24445e-41
3.24436e-41
3.24428e-41
3.24421e-41
3.24414e-41
3.24407e-41
3.24401e-41
3.24396e-41
3.24391e-41
3.24386e-41
3.24382e-41
3.24379e-41
3.24376e-41
3.24374e-41
3.24372e-41
3.24371e-41
3.24371e-41
3.24371e-41
3.24372e-41
3.24373e-41
3.24375e-41
3.24378e-41
3.24381e-41
3.24385e-41
3.2439e-41
3.24395e-41
3.24401e-41
3.24407e-41
3.24414e-41
3.24422e-41
3.2443e-41
3.24439e-41
3.24448e-41
3.24458e-41
3.24469e-41
3.2448e-41
3.24491e-41
3.24501e-41
3.24509e-41
3.24513e-41
3.2451e-41
)
;

boundaryField
{
    boundary
    {
        type            empty;
    }
    inlet
    {
        type            fixedValue;
        value           uniform 0;
    }
    outlet
    {
        type            zeroGradient;
    }
    procBoundary2to3
    {
        type            processor;
        value           uniform 3.24503e-41;
    }
}


// ************************************************************************* //
