/*--------------------------------*- C++ -*----------------------------------*\
  =========                 |
  \\      /  F ield         | OpenFOAM: The Open Source CFD Toolbox
   \\    /   O peration     | Website:  https://openfoam.org
    \\  /    A nd           | Version:  7
     \\/     M anipulation  |
\*---------------------------------------------------------------------------*/
FoamFile
{
    version     2.0;
    format      ascii;
    class       volScalarField;
    location    "9e-05";
    object      H2O;
}
// * * * * * * * * * * * * * * * * * * * * * * * * * * * * * * * * * * * * * //

dimensions      [0 0 0 0 0 0 0];

internalField   nonuniform List<scalar> 
125
(
8.32022e-48
2.43883e-47
4.40999e-47
6.562e-47
8.713e-47
1.07031e-46
1.2417e-46
1.37966e-46
1.48381e-46
1.55782e-46
1.60747e-46
1.63904e-46
1.65811e-46
1.66909e-46
1.67514e-46
1.67833e-46
1.67995e-46
1.68074e-46
1.6811e-46
1.68126e-46
1.68133e-46
1.68135e-46
1.68136e-46
1.68135e-46
1.68134e-46
1.68133e-46
1.68132e-46
1.68131e-46
1.68129e-46
1.68128e-46
1.68127e-46
1.68125e-46
1.68124e-46
1.68123e-46
1.68121e-46
1.6812e-46
1.68119e-46
1.68117e-46
1.68116e-46
1.68115e-46
1.68113e-46
1.68112e-46
1.68111e-46
1.6811e-46
1.68108e-46
1.68107e-46
1.68106e-46
1.68105e-46
1.68104e-46
1.68103e-46
1.68102e-46
1.68102e-46
1.68101e-46
1.681e-46
1.681e-46
1.68099e-46
1.68099e-46
1.68098e-46
1.68098e-46
1.68098e-46
1.68098e-46
1.68098e-46
1.68098e-46
1.68099e-46
1.68099e-46
1.681e-46
1.681e-46
1.68101e-46
1.68102e-46
1.68103e-46
1.68105e-46
1.68106e-46
1.68108e-46
1.68109e-46
1.68111e-46
1.68113e-46
1.68115e-46
1.68118e-46
1.6812e-46
1.68123e-46
1.68126e-46
1.68129e-46
1.68132e-46
1.68135e-46
1.68139e-46
1.68142e-46
1.68146e-46
1.6815e-46
1.68155e-46
1.68159e-46
1.68164e-46
1.68169e-46
1.68174e-46
1.68179e-46
1.68184e-46
1.6819e-46
1.68196e-46
1.68202e-46
1.68208e-46
1.68214e-46
1.68221e-46
1.68228e-46
1.68235e-46
1.68242e-46
1.6825e-46
1.68257e-46
1.68265e-46
1.68273e-46
1.68281e-46
1.68289e-46
1.68298e-46
1.68306e-46
1.68315e-46
1.68324e-46
1.68333e-46
1.68342e-46
1.68352e-46
1.68361e-46
1.6837e-46
1.68378e-46
1.68379e-46
1.68356e-46
1.68247e-46
1.67831e-46
1.66309e-46
)
;

boundaryField
{
    boundary
    {
        type            empty;
    }
    inlet
    {
        type            fixedValue;
        value           uniform 0;
    }
    outlet
    {
        type            zeroGradient;
    }
    procBoundary2to3
    {
        type            processor;
        value           uniform 1.63606e-46;
    }
}


// ************************************************************************* //
