/*--------------------------------*- C++ -*----------------------------------*\
  =========                 |
  \\      /  F ield         | OpenFOAM: The Open Source CFD Toolbox
   \\    /   O peration     | Website:  https://openfoam.org
    \\  /    A nd           | Version:  7
     \\/     M anipulation  |
\*---------------------------------------------------------------------------*/
FoamFile
{
    version     2.0;
    format      ascii;
    class       volScalarField;
    location    "9e-05";
    object      H2O2;
}
// * * * * * * * * * * * * * * * * * * * * * * * * * * * * * * * * * * * * * //

dimensions      [0 0 0 0 0 0 0];

internalField   nonuniform List<scalar> 
125
(
1.98513e-52
6.31163e-52
1.22433e-51
1.93236e-51
2.69121e-51
3.43152e-51
4.09436e-51
4.64253e-51
5.06362e-51
5.36565e-51
5.56892e-51
5.69786e-51
5.77529e-51
5.81946e-51
5.84348e-51
5.85598e-51
5.86221e-51
5.86519e-51
5.86657e-51
5.86717e-51
5.86743e-51
5.86753e-51
5.86756e-51
5.86757e-51
5.86756e-51
5.86755e-51
5.86754e-51
5.86753e-51
5.86752e-51
5.86751e-51
5.8675e-51
5.86749e-51
5.86749e-51
5.86748e-51
5.86747e-51
5.86747e-51
5.86747e-51
5.86747e-51
5.86747e-51
5.86747e-51
5.86747e-51
5.86748e-51
5.86749e-51
5.8675e-51
5.86752e-51
5.86753e-51
5.86755e-51
5.86757e-51
5.8676e-51
5.86763e-51
5.86766e-51
5.8677e-51
5.86774e-51
5.86778e-51
5.86783e-51
5.86788e-51
5.86794e-51
5.868e-51
5.86807e-51
5.86814e-51
5.86821e-51
5.86829e-51
5.86838e-51
5.86847e-51
5.86857e-51
5.86867e-51
5.86878e-51
5.8689e-51
5.86902e-51
5.86914e-51
5.86928e-51
5.86942e-51
5.86956e-51
5.86972e-51
5.86988e-51
5.87004e-51
5.87022e-51
5.8704e-51
5.87059e-51
5.87079e-51
5.87099e-51
5.8712e-51
5.87142e-51
5.87165e-51
5.87188e-51
5.87213e-51
5.87238e-51
5.87264e-51
5.87291e-51
5.87318e-51
5.87347e-51
5.87376e-51
5.87406e-51
5.87437e-51
5.87469e-51
5.87502e-51
5.87535e-51
5.8757e-51
5.87605e-51
5.87641e-51
5.87678e-51
5.87716e-51
5.87755e-51
5.87794e-51
5.87835e-51
5.87876e-51
5.87918e-51
5.87961e-51
5.88005e-51
5.88049e-51
5.88095e-51
5.88141e-51
5.88188e-51
5.88235e-51
5.88283e-51
5.88332e-51
5.88382e-51
5.88432e-51
5.88481e-51
5.88526e-51
5.8855e-51
5.88483e-51
5.88052e-51
5.86212e-51
5.78982e-51
)
;

boundaryField
{
    boundary
    {
        type            empty;
    }
    inlet
    {
        type            fixedValue;
        value           uniform 0;
    }
    outlet
    {
        type            zeroGradient;
    }
    procBoundary2to3
    {
        type            processor;
        value           uniform 5.65118e-51;
    }
}


// ************************************************************************* //
