/*--------------------------------*- C++ -*----------------------------------*\
  =========                 |
  \\      /  F ield         | OpenFOAM: The Open Source CFD Toolbox
   \\    /   O peration     | Website:  https://openfoam.org
    \\  /    A nd           | Version:  7
     \\/     M anipulation  |
\*---------------------------------------------------------------------------*/
FoamFile
{
    version     2.0;
    format      ascii;
    class       volScalarField;
    location    "9e-05";
    object      HO2;
}
// * * * * * * * * * * * * * * * * * * * * * * * * * * * * * * * * * * * * * //

dimensions      [0 0 0 0 0 0 0];

internalField   nonuniform List<scalar> 
125
(
5.73558e-38
1.32766e-37
2.09847e-37
2.85902e-37
3.5734e-37
4.20676e-37
4.73477e-37
5.14834e-37
5.45298e-37
5.66445e-37
5.80312e-37
5.88927e-37
5.94013e-37
5.96874e-37
5.9841e-37
5.99201e-37
5.9959e-37
5.99775e-37
5.99858e-37
5.99893e-37
5.99907e-37
5.99911e-37
5.9991e-37
5.99908e-37
5.99905e-37
5.99902e-37
5.99899e-37
5.99895e-37
5.99891e-37
5.99888e-37
5.99884e-37
5.9988e-37
5.99876e-37
5.99872e-37
5.99868e-37
5.99864e-37
5.9986e-37
5.99856e-37
5.99852e-37
5.99848e-37
5.99844e-37
5.9984e-37
5.99836e-37
5.99832e-37
5.99828e-37
5.99824e-37
5.9982e-37
5.99817e-37
5.99813e-37
5.9981e-37
5.99807e-37
5.99804e-37
5.99801e-37
5.99798e-37
5.99796e-37
5.99793e-37
5.99791e-37
5.99789e-37
5.99787e-37
5.99786e-37
5.99785e-37
5.99784e-37
5.99783e-37
5.99783e-37
5.99782e-37
5.99783e-37
5.99783e-37
5.99784e-37
5.99785e-37
5.99786e-37
5.99788e-37
5.9979e-37
5.99793e-37
5.99796e-37
5.99799e-37
5.99803e-37
5.99807e-37
5.99811e-37
5.99816e-37
5.99822e-37
5.99827e-37
5.99834e-37
5.9984e-37
5.99848e-37
5.99855e-37
5.99864e-37
5.99872e-37
5.99881e-37
5.99891e-37
5.99901e-37
5.99912e-37
5.99923e-37
5.99935e-37
5.99947e-37
5.99959e-37
5.99973e-37
5.99986e-37
6.00001e-37
6.00015e-37
6.00031e-37
6.00047e-37
6.00063e-37
6.0008e-37
6.00097e-37
6.00115e-37
6.00134e-37
6.00153e-37
6.00172e-37
6.00192e-37
6.00212e-37
6.00233e-37
6.00254e-37
6.00276e-37
6.00298e-37
6.00321e-37
6.00344e-37
6.00367e-37
6.0039e-37
6.00413e-37
6.00434e-37
6.00443e-37
6.00403e-37
6.00165e-37
5.99153e-37
5.95173e-37
)
;

boundaryField
{
    boundary
    {
        type            empty;
    }
    inlet
    {
        type            fixedValue;
        value           uniform 0;
    }
    outlet
    {
        type            zeroGradient;
    }
    procBoundary2to3
    {
        type            processor;
        value           uniform 5.87613e-37;
    }
}


// ************************************************************************* //
