/*--------------------------------*- C++ -*----------------------------------*\
  =========                 |
  \\      /  F ield         | OpenFOAM: The Open Source CFD Toolbox
   \\    /   O peration     | Website:  https://openfoam.org
    \\  /    A nd           | Version:  7
     \\/     M anipulation  |
\*---------------------------------------------------------------------------*/
FoamFile
{
    version     2.0;
    format      ascii;
    class       volScalarField;
    location    "9e-05";
    object      O;
}
// * * * * * * * * * * * * * * * * * * * * * * * * * * * * * * * * * * * * * //

dimensions      [0 0 0 0 0 0 0];

internalField   nonuniform List<scalar> 
125
(
1.6494e-47
4.02719e-47
6.49066e-47
8.957e-47
1.13159e-46
1.34543e-46
1.52845e-46
1.67621e-46
1.78882e-46
1.86998e-46
1.92541e-46
1.9614e-46
1.98367e-46
1.99684e-46
2.0043e-46
2.00836e-46
2.01048e-46
2.01155e-46
2.01206e-46
2.0123e-46
2.0124e-46
2.01244e-46
2.01244e-46
2.01243e-46
2.01242e-46
2.0124e-46
2.01238e-46
2.01236e-46
2.01234e-46
2.01232e-46
2.0123e-46
2.01228e-46
2.01226e-46
2.01224e-46
2.01221e-46
2.01219e-46
2.01217e-46
2.01214e-46
2.01212e-46
2.0121e-46
2.01207e-46
2.01205e-46
2.01203e-46
2.01201e-46
2.01198e-46
2.01196e-46
2.01194e-46
2.01192e-46
2.0119e-46
2.01187e-46
2.01185e-46
2.01183e-46
2.01181e-46
2.0118e-46
2.01178e-46
2.01176e-46
2.01174e-46
2.01173e-46
2.01171e-46
2.0117e-46
2.01169e-46
2.01168e-46
2.01167e-46
2.01166e-46
2.01165e-46
2.01164e-46
2.01164e-46
2.01163e-46
2.01163e-46
2.01163e-46
2.01163e-46
2.01163e-46
2.01164e-46
2.01164e-46
2.01165e-46
2.01166e-46
2.01167e-46
2.01168e-46
2.01169e-46
2.01171e-46
2.01173e-46
2.01175e-46
2.01177e-46
2.01179e-46
2.01182e-46
2.01185e-46
2.01188e-46
2.01191e-46
2.01194e-46
2.01198e-46
2.01202e-46
2.01206e-46
2.0121e-46
2.01215e-46
2.01219e-46
2.01224e-46
2.01229e-46
2.01235e-46
2.0124e-46
2.01246e-46
2.01252e-46
2.01259e-46
2.01265e-46
2.01272e-46
2.01279e-46
2.01286e-46
2.01293e-46
2.01301e-46
2.01309e-46
2.01317e-46
2.01325e-46
2.01333e-46
2.01342e-46
2.01351e-46
2.01359e-46
2.01368e-46
2.01378e-46
2.01386e-46
2.01394e-46
2.01399e-46
2.01391e-46
2.01347e-46
2.01216e-46
2.00909e-46
2.00372e-46
)
;

boundaryField
{
    boundary
    {
        type            empty;
    }
    inlet
    {
        type            fixedValue;
        value           uniform 0;
    }
    outlet
    {
        type            zeroGradient;
    }
    procBoundary2to3
    {
        type            processor;
        value           uniform 1.99698e-46;
    }
}


// ************************************************************************* //
