/*--------------------------------*- C++ -*----------------------------------*\
  =========                 |
  \\      /  F ield         | OpenFOAM: The Open Source CFD Toolbox
   \\    /   O peration     | Website:  https://openfoam.org
    \\  /    A nd           | Version:  7
     \\/     M anipulation  |
\*---------------------------------------------------------------------------*/
FoamFile
{
    version     2.0;
    format      ascii;
    class       volScalarField;
    location    "9e-05";
    object      OH;
}
// * * * * * * * * * * * * * * * * * * * * * * * * * * * * * * * * * * * * * //

dimensions      [0 0 0 0 0 0 0];

internalField   nonuniform List<scalar> 
125
(
9.79988e-48
1.98601e-47
2.77565e-47
3.42281e-47
3.96546e-47
4.41783e-47
4.78431e-47
5.06877e-47
5.27875e-47
5.4257e-47
5.52319e-47
5.58455e-47
5.62129e-47
5.64225e-47
5.65367e-47
5.65962e-47
5.66258e-47
5.66399e-47
5.66461e-47
5.66485e-47
5.66492e-47
5.6649e-47
5.66485e-47
5.66478e-47
5.6647e-47
5.66462e-47
5.66453e-47
5.66444e-47
5.66434e-47
5.66425e-47
5.66414e-47
5.66404e-47
5.66393e-47
5.66383e-47
5.66371e-47
5.6636e-47
5.66348e-47
5.66337e-47
5.66325e-47
5.66312e-47
5.663e-47
5.66288e-47
5.66275e-47
5.66262e-47
5.66249e-47
5.66236e-47
5.66223e-47
5.6621e-47
5.66196e-47
5.66183e-47
5.6617e-47
5.66156e-47
5.66143e-47
5.6613e-47
5.66116e-47
5.66103e-47
5.6609e-47
5.66076e-47
5.66063e-47
5.6605e-47
5.66037e-47
5.66025e-47
5.66012e-47
5.66e-47
5.65987e-47
5.65975e-47
5.65964e-47
5.65952e-47
5.65941e-47
5.6593e-47
5.65919e-47
5.65908e-47
5.65898e-47
5.65888e-47
5.65879e-47
5.6587e-47
5.65861e-47
5.65853e-47
5.65845e-47
5.65837e-47
5.6583e-47
5.65823e-47
5.65817e-47
5.65811e-47
5.65806e-47
5.65801e-47
5.65797e-47
5.65793e-47
5.65789e-47
5.65787e-47
5.65784e-47
5.65783e-47
5.65781e-47
5.65781e-47
5.65781e-47
5.65781e-47
5.65782e-47
5.65784e-47
5.65786e-47
5.65789e-47
5.65792e-47
5.65796e-47
5.658e-47
5.65805e-47
5.6581e-47
5.65816e-47
5.65823e-47
5.6583e-47
5.65837e-47
5.65845e-47
5.65853e-47
5.65862e-47
5.65871e-47
5.65881e-47
5.65891e-47
5.65901e-47
5.65912e-47
5.65923e-47
5.65933e-47
5.65943e-47
5.65948e-47
5.65942e-47
5.65906e-47
5.65817e-47
5.65663e-47
)
;

boundaryField
{
    boundary
    {
        type            empty;
    }
    inlet
    {
        type            fixedValue;
        value           uniform 0;
    }
    outlet
    {
        type            zeroGradient;
    }
    procBoundary2to3
    {
        type            processor;
        value           uniform 5.6547e-47;
    }
}


// ************************************************************************* //
