/*--------------------------------*- C++ -*----------------------------------*\
  =========                 |
  \\      /  F ield         | OpenFOAM: The Open Source CFD Toolbox
   \\    /   O peration     | Website:  https://openfoam.org
    \\  /    A nd           | Version:  7
     \\/     M anipulation  |
\*---------------------------------------------------------------------------*/
FoamFile
{
    version     2.0;
    format      ascii;
    class       volScalarField;
    location    "9e-05";
    object      p;
}
// * * * * * * * * * * * * * * * * * * * * * * * * * * * * * * * * * * * * * //

dimensions      [1 -1 -2 0 0 0 0];

internalField   nonuniform List<scalar> 
125
(
102892
102892
102892
102892
102891
102891
102891
102891
102891
102891
102891
102891
102891
102891
102891
102891
102891
102891
102891
102891
102891
102891
102891
102891
102891
102891
102891
102891
102890
102890
102890
102890
102890
102890
102890
102890
102890
102890
102890
102889
102889
102889
102889
102889
102889
102889
102889
102889
102888
102888
102888
102888
102888
102888
102888
102888
102887
102887
102887
102887
102887
102887
102887
102886
102886
102886
102886
102886
102886
102885
102885
102885
102885
102885
102885
102884
102884
102884
102884
102884
102883
102883
102883
102883
102883
102883
102882
102882
102882
102882
102882
102881
102881
102881
102881
102881
102880
102880
102880
102880
102880
102879
102879
102879
102879
102879
102878
102878
102878
102878
102878
102877
102877
102877
102877
102877
102876
102876
102876
102876
102876
102876
102875
102875
102875
)
;

boundaryField
{
    boundary
    {
        type            empty;
    }
    inlet
    {
        type            zeroGradient;
    }
    outlet
    {
        type            waveTransmissive;
        gamma           1.4;
        value           nonuniform 0();
    }
    procBoundary2to3
    {
        type            processor;
        value           uniform 102875;
    }
}


// ************************************************************************* //
