/*--------------------------------*- C++ -*----------------------------------*\
  =========                 |
  \\      /  F ield         | OpenFOAM: The Open Source CFD Toolbox
   \\    /   O peration     | Website:  https://openfoam.org
    \\  /    A nd           | Version:  7
     \\/     M anipulation  |
\*---------------------------------------------------------------------------*/
FoamFile
{
    version     2.0;
    format      ascii;
    class       surfaceScalarField;
    location    "9e-05";
    object      phi;
}
// * * * * * * * * * * * * * * * * * * * * * * * * * * * * * * * * * * * * * //

dimensions      [1 0 -1 0 0 0 0];

internalField   nonuniform List<scalar> 
124
(
6.9142e-06
6.91326e-06
6.91128e-06
6.90835e-06
6.90491e-06
6.90147e-06
6.89845e-06
6.89609e-06
6.89444e-06
6.89347e-06
6.89304e-06
6.89303e-06
6.89329e-06
6.89374e-06
6.89429e-06
6.8949e-06
6.89553e-06
6.89617e-06
6.89681e-06
6.89743e-06
6.89805e-06
6.89865e-06
6.89923e-06
6.8998e-06
6.90035e-06
6.90088e-06
6.90139e-06
6.90188e-06
6.90235e-06
6.90281e-06
6.90324e-06
6.90364e-06
6.90403e-06
6.90439e-06
6.90473e-06
6.90505e-06
6.90534e-06
6.90561e-06
6.90585e-06
6.90607e-06
6.90626e-06
6.90642e-06
6.90656e-06
6.90667e-06
6.90675e-06
6.9068e-06
6.90683e-06
6.90683e-06
6.9068e-06
6.90674e-06
6.90665e-06
6.90653e-06
6.90639e-06
6.90621e-06
6.90601e-06
6.90577e-06
6.9055e-06
6.90521e-06
6.90488e-06
6.90453e-06
6.90414e-06
6.90373e-06
6.90328e-06
6.9028e-06
6.9023e-06
6.90176e-06
6.9012e-06
6.9006e-06
6.89998e-06
6.89933e-06
6.89864e-06
6.89793e-06
6.89719e-06
6.89642e-06
6.89562e-06
6.8948e-06
6.89394e-06
6.89306e-06
6.89215e-06
6.89122e-06
6.89026e-06
6.88927e-06
6.88826e-06
6.88722e-06
6.88615e-06
6.88506e-06
6.88395e-06
6.88281e-06
6.88165e-06
6.88047e-06
6.87927e-06
6.87804e-06
6.87679e-06
6.87552e-06
6.87423e-06
6.87292e-06
6.87159e-06
6.87024e-06
6.86887e-06
6.86749e-06
6.86609e-06
6.86467e-06
6.86324e-06
6.86179e-06
6.86032e-06
6.85884e-06
6.85735e-06
6.85585e-06
6.85433e-06
6.8528e-06
6.85126e-06
6.84971e-06
6.84815e-06
6.84658e-06
6.845e-06
6.84341e-06
6.84182e-06
6.84022e-06
6.83861e-06
6.837e-06
6.83538e-06
6.83376e-06
6.83214e-06
6.83052e-06
)
;

boundaryField
{
    boundary
    {
        type            empty;
        value           nonuniform 0();
    }
    inlet
    {
        type            calculated;
        value           uniform -6.91422e-06;
    }
    outlet
    {
        type            calculated;
        value           nonuniform 0();
    }
    procBoundary2to3
    {
        type            processor;
        value           uniform 6.82889e-06;
    }
}


// ************************************************************************* //
