/*--------------------------------*- C++ -*----------------------------------*\
  =========                 |
  \\      /  F ield         | OpenFOAM: The Open Source CFD Toolbox
   \\    /   O peration     | Website:  https://openfoam.org
    \\  /    A nd           | Version:  7
     \\/     M anipulation  |
\*---------------------------------------------------------------------------*/
FoamFile
{
    version     2.0;
    format      ascii;
    class       volScalarField;
    location    "9e-05";
    object      Qdot;
}
// * * * * * * * * * * * * * * * * * * * * * * * * * * * * * * * * * * * * * //

dimensions      [1 -1 -3 0 0 0 0];

internalField   nonuniform List<scalar> 
125
(
-2.46638e-27
-1.92671e-27
-1.8755e-27
-1.94593e-27
-2.04943e-27
-2.15688e-27
-2.25426e-27
-2.33444e-27
-2.3953e-27
-2.43824e-27
-2.46658e-27
-2.48418e-27
-2.49451e-27
-2.50026e-27
-2.50331e-27
-2.50484e-27
-2.50557e-27
-2.50588e-27
-2.506e-27
-2.50603e-27
-2.50602e-27
-2.50598e-27
-2.50593e-27
-2.50589e-27
-2.50583e-27
-2.50578e-27
-2.50572e-27
-2.50566e-27
-2.5056e-27
-2.50554e-27
-2.50547e-27
-2.5054e-27
-2.50534e-27
-2.50527e-27
-2.50519e-27
-2.50512e-27
-2.50505e-27
-2.50497e-27
-2.50489e-27
-2.50481e-27
-2.50473e-27
-2.50465e-27
-2.50457e-27
-2.50448e-27
-2.50439e-27
-2.50431e-27
-2.50422e-27
-2.50413e-27
-2.50404e-27
-2.50395e-27
-2.50385e-27
-2.50376e-27
-2.50367e-27
-2.50357e-27
-2.50348e-27
-2.50338e-27
-2.50328e-27
-2.50318e-27
-2.50309e-27
-2.50299e-27
-2.50289e-27
-2.50279e-27
-2.50269e-27
-2.50259e-27
-2.50249e-27
-2.5024e-27
-2.5023e-27
-2.5022e-27
-2.5021e-27
-2.502e-27
-2.50191e-27
-2.50181e-27
-2.50171e-27
-2.50162e-27
-2.50152e-27
-2.50143e-27
-2.50133e-27
-2.50124e-27
-2.50115e-27
-2.50106e-27
-2.50097e-27
-2.50089e-27
-2.5008e-27
-2.50072e-27
-2.50063e-27
-2.50055e-27
-2.50047e-27
-2.5004e-27
-2.50032e-27
-2.50025e-27
-2.50018e-27
-2.50011e-27
-2.50004e-27
-2.49998e-27
-2.49992e-27
-2.49986e-27
-2.4998e-27
-2.49974e-27
-2.49969e-27
-2.49964e-27
-2.4996e-27
-2.49955e-27
-2.49951e-27
-2.49947e-27
-2.49944e-27
-2.49941e-27
-2.49938e-27
-2.49935e-27
-2.49933e-27
-2.49931e-27
-2.49929e-27
-2.49928e-27
-2.49927e-27
-2.49926e-27
-2.49926e-27
-2.49926e-27
-2.49926e-27
-2.49927e-27
-2.49928e-27
-2.49929e-27
-2.4993e-27
-2.49931e-27
-2.4993e-27
-2.49925e-27
-2.49914e-27
)
;

boundaryField
{
    boundary
    {
        type            empty;
    }
    inlet
    {
        type            calculated;
        value           uniform 0;
    }
    outlet
    {
        type            calculated;
        value           nonuniform 0();
    }
    procBoundary2to3
    {
        type            processor;
        value           uniform 0;
    }
}


// ************************************************************************* //
