/*--------------------------------*- C++ -*----------------------------------*\
  =========                 |
  \\      /  F ield         | OpenFOAM: The Open Source CFD Toolbox
   \\    /   O peration     | Website:  https://openfoam.org
    \\  /    A nd           | Version:  7
     \\/     M anipulation  |
\*---------------------------------------------------------------------------*/
FoamFile
{
    version     2.0;
    format      ascii;
    class       volScalarField;
    location    "9e-05";
    object      T;
}
// * * * * * * * * * * * * * * * * * * * * * * * * * * * * * * * * * * * * * //

dimensions      [0 0 0 1 0 0 0];

internalField   nonuniform List<scalar> 
125
(
300.043
300.141
300.278
300.446
300.624
300.794
300.941
301.06
301.148
301.211
301.252
301.278
301.294
301.303
301.308
301.31
301.311
301.312
301.312
301.312
301.312
301.312
301.312
301.312
301.312
301.312
301.312
301.312
301.312
301.312
301.312
301.312
301.311
301.311
301.311
301.311
301.311
301.311
301.311
301.311
301.311
301.311
301.31
301.31
301.31
301.31
301.31
301.31
301.31
301.31
301.31
301.309
301.309
301.309
301.309
301.309
301.309
301.309
301.309
301.308
301.308
301.308
301.308
301.308
301.308
301.308
301.308
301.308
301.307
301.307
301.307
301.307
301.307
301.307
301.307
301.307
301.307
301.307
301.306
301.306
301.306
301.306
301.306
301.306
301.306
301.306
301.306
301.306
301.306
301.306
301.306
301.305
301.305
301.305
301.305
301.305
301.305
301.305
301.305
301.305
301.305
301.305
301.305
301.305
301.305
301.305
301.305
301.305
301.305
301.305
301.305
301.305
301.305
301.305
301.306
301.306
301.306
301.306
301.306
301.306
301.306
301.306
301.306
301.306
301.306
)
;

boundaryField
{
    boundary
    {
        type            empty;
    }
    inlet
    {
        type            fixedValue;
        value           uniform 300;
    }
    outlet
    {
        type            zeroGradient;
    }
    procBoundary2to3
    {
        type            processor;
        value           uniform 301.306;
    }
}


// ************************************************************************* //
