/*--------------------------------*- C++ -*----------------------------------*\
  =========                 |
  \\      /  F ield         | OpenFOAM: The Open Source CFD Toolbox
   \\    /   O peration     | Website:  https://openfoam.org
    \\  /    A nd           | Version:  7
     \\/     M anipulation  |
\*---------------------------------------------------------------------------*/
FoamFile
{
    version     2.0;
    format      ascii;
    class       volVectorField;
    location    "9e-05";
    object      U;
}
// * * * * * * * * * * * * * * * * * * * * * * * * * * * * * * * * * * * * * //

dimensions      [0 1 -1 0 0 0 0];

internalField   nonuniform List<vector> 
125
(
(2.34922 0 0)
(2.35004 0 0)
(2.35072 0 0)
(2.35103 0 0)
(2.35115 0 0)
(2.35132 0 0)
(2.35141 0 0)
(2.35141 0 0)
(2.3514 0 0)
(2.35145 0 0)
(2.35155 0 0)
(2.35169 0 0)
(2.35187 0 0)
(2.35206 0 0)
(2.35228 0 0)
(2.3525 0 0)
(2.35272 0 0)
(2.35295 0 0)
(2.35317 0 0)
(2.35339 0 0)
(2.3536 0 0)
(2.35381 0 0)
(2.35401 0 0)
(2.35421 0 0)
(2.3544 0 0)
(2.35458 0 0)
(2.35476 0 0)
(2.35493 0 0)
(2.35511 0 0)
(2.35526 0 0)
(2.3554 0 0)
(2.35555 0 0)
(2.35569 0 0)
(2.35582 0 0)
(2.35594 0 0)
(2.35605 0 0)
(2.35616 0 0)
(2.35625 0 0)
(2.35635 0 0)
(2.35642 0 0)
(2.3565 0 0)
(2.35656 0 0)
(2.35661 0 0)
(2.35665 0 0)
(2.35669 0 0)
(2.35671 0 0)
(2.35673 0 0)
(2.35674 0 0)
(2.35673 0 0)
(2.35672 0 0)
(2.35669 0 0)
(2.35666 0 0)
(2.35662 0 0)
(2.35657 0 0)
(2.3565 0 0)
(2.35643 0 0)
(2.35635 0 0)
(2.35625 0 0)
(2.35615 0 0)
(2.35604 0 0)
(2.35591 0 0)
(2.35578 0 0)
(2.35563 0 0)
(2.35548 0 0)
(2.35531 0 0)
(2.35514 0 0)
(2.35495 0 0)
(2.35476 0 0)
(2.35455 0 0)
(2.35434 0 0)
(2.35411 0 0)
(2.35387 0 0)
(2.35363 0 0)
(2.35338 0 0)
(2.35312 0 0)
(2.35284 0 0)
(2.35256 0 0)
(2.35226 0 0)
(2.35196 0 0)
(2.35165 0 0)
(2.35133 0 0)
(2.351 0 0)
(2.35067 0 0)
(2.35032 0 0)
(2.34996 0 0)
(2.3496 0 0)
(2.34923 0 0)
(2.34885 0 0)
(2.34846 0 0)
(2.34806 0 0)
(2.34766 0 0)
(2.34725 0 0)
(2.34683 0 0)
(2.3464 0 0)
(2.34597 0 0)
(2.34553 0 0)
(2.34509 0 0)
(2.34463 0 0)
(2.34417 0 0)
(2.34371 0 0)
(2.34324 0 0)
(2.34276 0 0)
(2.34228 0 0)
(2.34179 0 0)
(2.3413 0 0)
(2.3408 0 0)
(2.3403 0 0)
(2.33979 0 0)
(2.33928 0 0)
(2.33877 0 0)
(2.33825 0 0)
(2.33772 0 0)
(2.3372 0 0)
(2.33667 0 0)
(2.33613 0 0)
(2.3356 0 0)
(2.33506 0 0)
(2.33452 0 0)
(2.33398 0 0)
(2.33343 0 0)
(2.33288 0 0)
(2.33234 0 0)
(2.33178 0 0)
(2.33124 0 0)
(2.33068 0 0)
)
;

boundaryField
{
    boundary
    {
        type            empty;
    }
    inlet
    {
        type            fixedValue;
        value           uniform (2.34893 0 0);
    }
    outlet
    {
        type            zeroGradient;
    }
    procBoundary2to3
    {
        type            processor;
        value           uniform (2.33011 0 0);
    }
}


// ************************************************************************* //
