/*--------------------------------*- C++ -*----------------------------------*\
  =========                 |
  \\      /  F ield         | OpenFOAM: The Open Source CFD Toolbox
   \\    /   O peration     | Website:  https://openfoam.org
    \\  /    A nd           | Version:  7
     \\/     M anipulation  |
\*---------------------------------------------------------------------------*/
FoamFile
{
    version     2.0;
    format      ascii;
    class       volScalarField;
    location    "0.00044";
    object      H;
}
// * * * * * * * * * * * * * * * * * * * * * * * * * * * * * * * * * * * * * //

dimensions      [0 0 0 0 0 0 0];

internalField   nonuniform List<scalar> 
124
(
0.0003426
0.000339347
0.000336151
0.000333012
0.000329931
0.000326906
0.000323936
0.000321021
0.000318159
0.000315349
0.00031259
0.000309881
0.000307222
0.00030461
0.000302045
0.000299527
0.000297053
0.000294623
0.000292236
0.000289891
0.000287587
0.000285324
0.000283099
0.000280912
0.000278762
0.000276648
0.000274569
0.000272523
0.000270511
0.00026853
0.000266579
0.000264657
0.000262764
0.000260897
0.000259056
0.000257239
0.000255444
0.000253671
0.000251919
0.000250184
0.000248467
0.000246766
0.000245078
0.000243404
0.00024174
0.000240086
0.00023844
0.0002368
0.000235165
0.000233533
0.000231903
0.000230273
0.000228642
0.000227008
0.00022537
0.000223726
0.000222075
0.000220416
0.000218748
0.000217069
0.000215378
0.000213675
0.000211959
0.000210228
0.000208482
0.000206721
0.000204943
0.00020315
0.000201339
0.000199511
0.000197667
0.000195805
0.000193925
0.000192029
0.000190117
0.000188187
0.000186242
0.000184281
0.000182305
0.000180314
0.00017831
0.000176292
0.000174262
0.000172221
0.000170168
0.000168106
0.000166036
0.000163957
0.000161872
0.000159781
0.000157686
0.000155588
0.000153489
0.000151389
0.00014929
0.000147195
0.000145104
0.000143019
0.000140942
0.000138874
0.000136818
0.000134776
0.000132749
0.000130739
0.000128749
0.000126781
0.000124837
0.000122919
0.00012103
0.000119172
0.000117349
0.000115563
0.000113818
0.000112118
0.000110469
0.000108877
0.000107351
0.000105902
0.000104546
0.000103302
0.000102199
0.000101275
0.000100583
0.000100193
)
;

boundaryField
{
    boundary
    {
        type            empty;
    }
    inlet
    {
        type            fixedValue;
        value           nonuniform 0();
    }
    outlet
    {
        type            zeroGradient;
    }
    procBoundary0to1
    {
        type            processor;
        value           uniform 0.000345909;
    }
}


// ************************************************************************* //
