/*--------------------------------*- C++ -*----------------------------------*\
  =========                 |
  \\      /  F ield         | OpenFOAM: The Open Source CFD Toolbox
   \\    /   O peration     | Website:  https://openfoam.org
    \\  /    A nd           | Version:  7
     \\/     M anipulation  |
\*---------------------------------------------------------------------------*/
FoamFile
{
    version     2.0;
    format      ascii;
    class       volScalarField;
    location    "0.00044";
    object      HO2;
}
// * * * * * * * * * * * * * * * * * * * * * * * * * * * * * * * * * * * * * //

dimensions      [0 0 0 0 0 0 0];

internalField   nonuniform List<scalar> 
124
(
2.79684e-06
2.77978e-06
2.76301e-06
2.74653e-06
2.73031e-06
2.71433e-06
2.69858e-06
2.68304e-06
2.66768e-06
2.65251e-06
2.63749e-06
2.62261e-06
2.60786e-06
2.59321e-06
2.57865e-06
2.56416e-06
2.54972e-06
2.53532e-06
2.52092e-06
2.50653e-06
2.4921e-06
2.47764e-06
2.46311e-06
2.4485e-06
2.43379e-06
2.41896e-06
2.40399e-06
2.38887e-06
2.37357e-06
2.35808e-06
2.34238e-06
2.32646e-06
2.31031e-06
2.29391e-06
2.27725e-06
2.26032e-06
2.24312e-06
2.22564e-06
2.20788e-06
2.18983e-06
2.17151e-06
2.15291e-06
2.13404e-06
2.11492e-06
2.09555e-06
2.07596e-06
2.05616e-06
2.03618e-06
2.01604e-06
1.99578e-06
1.97542e-06
1.955e-06
1.93455e-06
1.91412e-06
1.89375e-06
1.87348e-06
1.85336e-06
1.83343e-06
1.81374e-06
1.79435e-06
1.77529e-06
1.75663e-06
1.7384e-06
1.72066e-06
1.70346e-06
1.68683e-06
1.67084e-06
1.65551e-06
1.64089e-06
1.62702e-06
1.61393e-06
1.60164e-06
1.5902e-06
1.57962e-06
1.56993e-06
1.56112e-06
1.55323e-06
1.54624e-06
1.54016e-06
1.53499e-06
1.53072e-06
1.52732e-06
1.52479e-06
1.5231e-06
1.52222e-06
1.52212e-06
1.52275e-06
1.52409e-06
1.52609e-06
1.5287e-06
1.53188e-06
1.53557e-06
1.53973e-06
1.54431e-06
1.54925e-06
1.55451e-06
1.56003e-06
1.56576e-06
1.57167e-06
1.57771e-06
1.58383e-06
1.59e-06
1.59618e-06
1.60234e-06
1.60845e-06
1.61448e-06
1.62042e-06
1.62624e-06
1.63192e-06
1.63746e-06
1.64285e-06
1.64806e-06
1.65311e-06
1.65798e-06
1.66266e-06
1.66716e-06
1.67147e-06
1.67557e-06
1.67947e-06
1.68314e-06
1.68655e-06
1.68961e-06
1.69218e-06
1.69389e-06
)
;

boundaryField
{
    boundary
    {
        type            empty;
    }
    inlet
    {
        type            fixedValue;
        value           nonuniform 0();
    }
    outlet
    {
        type            zeroGradient;
    }
    procBoundary0to1
    {
        type            processor;
        value           uniform 2.81438e-06;
    }
}


// ************************************************************************* //
