/*--------------------------------*- C++ -*----------------------------------*\
  =========                 |
  \\      /  F ield         | OpenFOAM: The Open Source CFD Toolbox
   \\    /   O peration     | Website:  https://openfoam.org
    \\  /    A nd           | Version:  7
     \\/     M anipulation  |
\*---------------------------------------------------------------------------*/
FoamFile
{
    version     2.0;
    format      ascii;
    class       volVectorField;
    location    "0.00044";
    object      U;
}
// * * * * * * * * * * * * * * * * * * * * * * * * * * * * * * * * * * * * * //

dimensions      [0 1 -1 0 0 0 0];

internalField   nonuniform List<vector> 
124
(
(15.7439 0 0)
(15.7542 0 0)
(15.7644 0 0)
(15.7744 0 0)
(15.7843 0 0)
(15.794 0 0)
(15.8037 0 0)
(15.8132 0 0)
(15.8225 0 0)
(15.8317 0 0)
(15.8408 0 0)
(15.8498 0 0)
(15.8587 0 0)
(15.8674 0 0)
(15.8761 0 0)
(15.8846 0 0)
(15.893 0 0)
(15.9013 0 0)
(15.9095 0 0)
(15.9176 0 0)
(15.9255 0 0)
(15.9334 0 0)
(15.9412 0 0)
(15.9489 0 0)
(15.9564 0 0)
(15.9639 0 0)
(15.9713 0 0)
(15.9787 0 0)
(15.9859 0 0)
(15.993 0 0)
(16.0001 0 0)
(16.0071 0 0)
(16.014 0 0)
(16.0208 0 0)
(16.0276 0 0)
(16.0343 0 0)
(16.041 0 0)
(16.0475 0 0)
(16.0541 0 0)
(16.0605 0 0)
(16.067 0 0)
(16.0733 0 0)
(16.0797 0 0)
(16.0859 0 0)
(16.0922 0 0)
(16.0984 0 0)
(16.1045 0 0)
(16.1106 0 0)
(16.1167 0 0)
(16.1228 0 0)
(16.1288 0 0)
(16.1348 0 0)
(16.1407 0 0)
(16.1467 0 0)
(16.1525 0 0)
(16.1584 0 0)
(16.1642 0 0)
(16.1699 0 0)
(16.1756 0 0)
(16.1813 0 0)
(16.1869 0 0)
(16.1924 0 0)
(16.1979 0 0)
(16.2032 0 0)
(16.2085 0 0)
(16.2137 0 0)
(16.2188 0 0)
(16.2238 0 0)
(16.2287 0 0)
(16.2334 0 0)
(16.238 0 0)
(16.2424 0 0)
(16.2467 0 0)
(16.2508 0 0)
(16.2547 0 0)
(16.2585 0 0)
(16.2621 0 0)
(16.2654 0 0)
(16.2686 0 0)
(16.2716 0 0)
(16.2744 0 0)
(16.2769 0 0)
(16.2793 0 0)
(16.2815 0 0)
(16.2834 0 0)
(16.2852 0 0)
(16.2867 0 0)
(16.2881 0 0)
(16.2893 0 0)
(16.2904 0 0)
(16.2912 0 0)
(16.2919 0 0)
(16.2925 0 0)
(16.2929 0 0)
(16.2932 0 0)
(16.2934 0 0)
(16.2935 0 0)
(16.2935 0 0)
(16.2935 0 0)
(16.2934 0 0)
(16.2932 0 0)
(16.293 0 0)
(16.2928 0 0)
(16.2926 0 0)
(16.2923 0 0)
(16.2921 0 0)
(16.2918 0 0)
(16.2916 0 0)
(16.2915 0 0)
(16.2913 0 0)
(16.2912 0 0)
(16.2911 0 0)
(16.2911 0 0)
(16.2912 0 0)
(16.2913 0 0)
(16.2915 0 0)
(16.2919 0 0)
(16.2923 0 0)
(16.2929 0 0)
(16.2938 0 0)
(16.2949 0 0)
(16.2965 0 0)
(16.2988 0 0)
(16.303 0 0)
)
;

boundaryField
{
    boundary
    {
        type            empty;
    }
    inlet
    {
        type            fixedValue;
        value           nonuniform 0();
    }
    outlet
    {
        type            zeroGradient;
    }
    procBoundary0to1
    {
        type            processor;
        value           uniform (15.7335 0 0);
    }
}


// ************************************************************************* //
