/*--------------------------------*- C++ -*----------------------------------*\
  =========                 |
  \\      /  F ield         | OpenFOAM: The Open Source CFD Toolbox
   \\    /   O peration     | Website:  https://openfoam.org
    \\  /    A nd           | Version:  7
     \\/     M anipulation  |
\*---------------------------------------------------------------------------*/
FoamFile
{
    version     2.0;
    format      ascii;
    class       volScalarField;
    location    "0.00052";
    object      H2O;
}
// * * * * * * * * * * * * * * * * * * * * * * * * * * * * * * * * * * * * * //

dimensions      [0 0 0 0 0 0 0];

internalField   nonuniform List<scalar> 
126
(
1.57627e-45
1.5764e-45
1.57658e-45
1.5768e-45
1.57709e-45
1.57744e-45
1.57788e-45
1.57839e-45
1.57897e-45
1.57961e-45
1.58028e-45
1.58095e-45
1.58161e-45
1.58222e-45
1.58276e-45
1.58322e-45
1.58359e-45
1.58387e-45
1.58407e-45
1.5842e-45
1.58426e-45
1.58427e-45
1.58425e-45
1.5842e-45
1.58413e-45
1.58406e-45
1.584e-45
1.58395e-45
1.58392e-45
1.58392e-45
1.58394e-45
1.58401e-45
1.58411e-45
1.58424e-45
1.58441e-45
1.58461e-45
1.58483e-45
1.58507e-45
1.58533e-45
1.5856e-45
1.58587e-45
1.58614e-45
1.58641e-45
1.58666e-45
1.5869e-45
1.58713e-45
1.58735e-45
1.58754e-45
1.58773e-45
1.58789e-45
1.58804e-45
1.58818e-45
1.5883e-45
1.58841e-45
1.5885e-45
1.58859e-45
1.58866e-45
1.58872e-45
1.58877e-45
1.58881e-45
1.58884e-45
1.58885e-45
1.58886e-45
1.58885e-45
1.58884e-45
1.58881e-45
1.58876e-45
1.5887e-45
1.58863e-45
1.58855e-45
1.58844e-45
1.58833e-45
1.58819e-45
1.58804e-45
1.58787e-45
1.58769e-45
1.5875e-45
1.58739e-45
1.58768e-45
1.58981e-45
1.60012e-45
1.64627e-45
1.84796e-45
2.71976e-45
6.4578e-45
2.23743e-44
8.97185e-44
3.73046e-43
1.55927e-42
6.5068e-42
2.70901e-41
1.12643e-40
4.68564e-40
1.95378e-39
8.18407e-39
3.45149e-38
1.46845e-37
6.31267e-37
2.74449e-36
1.20684e-35
5.36363e-35
2.40578e-34
1.08688e-33
4.93458e-33
2.2463e-32
1.02305e-31
4.65266e-31
2.10955e-30
9.52348e-30
4.27651e-29
1.90877e-28
8.46371e-28
3.72709e-27
1.62967e-26
7.0749e-26
3.04955e-25
1.30523e-24
5.54794e-24
2.34238e-23
9.82575e-23
4.09617e-22
1.69759e-21
6.99658e-21
2.86884e-20
1.17077e-19
4.75738e-19
)
;

boundaryField
{
    boundary
    {
        type            empty;
    }
    inlet
    {
        type            fixedValue;
        value           nonuniform 0();
    }
    outlet
    {
        type            zeroGradient;
    }
    procBoundary3to1
    {
        type            processor;
        value           uniform 1.94001e-18;
    }
    procBoundary3to2
    {
        type            processor;
        value           uniform 1.57961e-45;
    }
}


// ************************************************************************* //
