/*--------------------------------*- C++ -*----------------------------------*\
  =========                 |
  \\      /  F ield         | OpenFOAM: The Open Source CFD Toolbox
   \\    /   O peration     | Website:  https://openfoam.org
    \\  /    A nd           | Version:  7
     \\/     M anipulation  |
\*---------------------------------------------------------------------------*/
FoamFile
{
    version     2.0;
    format      ascii;
    class       volScalarField;
    location    "0.00052";
    object      HO2;
}
// * * * * * * * * * * * * * * * * * * * * * * * * * * * * * * * * * * * * * //

dimensions      [0 0 0 0 0 0 0];

internalField   nonuniform List<scalar> 
126
(
4.09259e-36
4.09282e-36
4.09311e-36
4.09347e-36
4.09393e-36
4.09449e-36
4.09519e-36
4.09603e-36
4.09702e-36
4.09814e-36
4.09936e-36
4.10063e-36
4.10189e-36
4.10308e-36
4.10413e-36
4.10501e-36
4.10567e-36
4.1061e-36
4.10631e-36
4.10631e-36
4.10616e-36
4.10588e-36
4.10554e-36
4.10517e-36
4.10484e-36
4.10457e-36
4.10439e-36
4.10434e-36
4.10442e-36
4.10464e-36
4.10499e-36
4.10547e-36
4.10607e-36
4.10676e-36
4.10753e-36
4.10835e-36
4.10921e-36
4.11008e-36
4.11095e-36
4.1118e-36
4.11262e-36
4.1134e-36
4.11413e-36
4.11481e-36
4.11544e-36
4.11601e-36
4.11653e-36
4.117e-36
4.11741e-36
4.11779e-36
4.11812e-36
4.11841e-36
4.11868e-36
4.11891e-36
4.11911e-36
4.11928e-36
4.11943e-36
4.11956e-36
4.11966e-36
4.11975e-36
4.11981e-36
4.11985e-36
4.11986e-36
4.11985e-36
4.11982e-36
4.11976e-36
4.11968e-36
4.11957e-36
4.11943e-36
4.11926e-36
4.11906e-36
4.11883e-36
4.11857e-36
4.11827e-36
4.11793e-36
4.11756e-36
4.11715e-36
4.1167e-36
4.11621e-36
4.11567e-36
4.11509e-36
4.11447e-36
4.11379e-36
4.11307e-36
4.1123e-36
4.11148e-36
4.11061e-36
4.10968e-36
4.1087e-36
4.10767e-36
4.10664e-36
4.10573e-36
4.10552e-36
4.10818e-36
4.12227e-36
4.18073e-36
4.40971e-36
5.28784e-36
8.61727e-36
2.11304e-35
6.77921e-35
2.40535e-34
8.75754e-34
3.1976e-33
1.16409e-32
4.22225e-32
1.52706e-31
5.51557e-31
1.99351e-30
7.22748e-30
2.63564e-29
9.69609e-29
3.60896e-28
1.36258e-27
5.22835e-27
2.04082e-26
8.10269e-26
3.26851e-25
1.33703e-24
5.5333e-24
2.3111e-23
9.71938e-23
4.10747e-22
1.74147e-21
7.39804e-21
3.14609e-20
)
;

boundaryField
{
    boundary
    {
        type            empty;
    }
    inlet
    {
        type            fixedValue;
        value           nonuniform 0();
    }
    outlet
    {
        type            zeroGradient;
    }
    procBoundary3to1
    {
        type            processor;
        value           uniform 1.3479e-19;
    }
    procBoundary3to2
    {
        type            processor;
        value           uniform 4.10074e-36;
    }
}


// ************************************************************************* //
