/*--------------------------------*- C++ -*----------------------------------*\
  =========                 |
  \\      /  F ield         | OpenFOAM: The Open Source CFD Toolbox
   \\    /   O peration     | Website:  https://openfoam.org
    \\  /    A nd           | Version:  7
     \\/     M anipulation  |
\*---------------------------------------------------------------------------*/
FoamFile
{
    version     2.0;
    format      ascii;
    class       volScalarField;
    location    "7e-05";
    object      H;
}
// * * * * * * * * * * * * * * * * * * * * * * * * * * * * * * * * * * * * * //

dimensions      [0 0 0 0 0 0 0];

internalField   nonuniform List<scalar> 
126
(
3.22399e-41
3.22386e-41
3.22397e-41
3.22415e-41
3.22431e-41
3.2244e-41
3.22444e-41
3.22443e-41
3.2244e-41
3.22434e-41
3.22427e-41
3.22419e-41
3.22411e-41
3.22402e-41
3.22393e-41
3.22383e-41
3.22373e-41
3.22362e-41
3.22349e-41
3.22337e-41
3.22323e-41
3.22308e-41
3.22292e-41
3.22275e-41
3.22256e-41
3.22236e-41
3.22215e-41
3.22192e-41
3.22167e-41
3.2214e-41
3.22112e-41
3.22082e-41
3.22049e-41
3.22015e-41
3.21978e-41
3.21938e-41
3.21896e-41
3.21852e-41
3.21805e-41
3.21754e-41
3.21701e-41
3.21645e-41
3.21585e-41
3.21522e-41
3.21455e-41
3.21385e-41
3.21311e-41
3.21234e-41
3.21152e-41
3.21066e-41
3.20976e-41
3.20881e-41
3.20783e-41
3.20679e-41
3.20571e-41
3.20458e-41
3.2034e-41
3.20216e-41
3.20088e-41
3.19955e-41
3.19816e-41
3.19671e-41
3.19521e-41
3.19366e-41
3.19204e-41
3.19037e-41
3.18864e-41
3.18685e-41
3.185e-41
3.18308e-41
3.18111e-41
3.17908e-41
3.17698e-41
3.17482e-41
3.1726e-41
3.17032e-41
3.16797e-41
3.16556e-41
3.16309e-41
3.16056e-41
3.15797e-41
3.15532e-41
3.15261e-41
3.14983e-41
3.147e-41
3.14411e-41
3.14117e-41
3.13817e-41
3.13512e-41
3.13201e-41
3.12886e-41
3.12565e-41
3.1224e-41
3.1191e-41
3.11575e-41
3.11236e-41
3.10894e-41
3.10547e-41
3.10197e-41
3.09843e-41
3.09486e-41
3.09126e-41
3.08763e-41
3.08397e-41
3.08029e-41
3.07659e-41
3.0729e-41
3.06943e-41
3.0675e-41
3.07582e-41
3.1524e-41
3.68569e-41
7.28885e-41
3.1618e-40
1.9641e-39
1.31621e-38
8.94669e-38
6.10613e-37
4.1765e-36
2.86106e-35
1.9621e-34
1.34657e-33
9.24411e-33
6.34486e-32
4.35134e-31
2.97914e-30
)
;

boundaryField
{
    boundary
    {
        type            empty;
    }
    inlet
    {
        type            fixedValue;
        value           nonuniform 0();
    }
    outlet
    {
        type            zeroGradient;
    }
    procBoundary3to1
    {
        type            processor;
        value           uniform 2.03659e-29;
    }
    procBoundary3to2
    {
        type            processor;
        value           uniform 3.22452e-41;
    }
}


// ************************************************************************* //
