/*--------------------------------*- C++ -*----------------------------------*\
  =========                 |
  \\      /  F ield         | OpenFOAM: The Open Source CFD Toolbox
   \\    /   O peration     | Website:  https://openfoam.org
    \\  /    A nd           | Version:  7
     \\/     M anipulation  |
\*---------------------------------------------------------------------------*/
FoamFile
{
    version     2.0;
    format      ascii;
    class       volScalarField;
    location    "7e-05";
    object      H2O;
}
// * * * * * * * * * * * * * * * * * * * * * * * * * * * * * * * * * * * * * //

dimensions      [0 0 0 0 0 0 0];

internalField   nonuniform List<scalar> 
126
(
1.08953e-46
1.09625e-46
1.10466e-46
1.11313e-46
1.12043e-46
1.12598e-46
1.12982e-46
1.13227e-46
1.13376e-46
1.13462e-46
1.13513e-46
1.13543e-46
1.13564e-46
1.13579e-46
1.13592e-46
1.13603e-46
1.13614e-46
1.13625e-46
1.13635e-46
1.13645e-46
1.13655e-46
1.13665e-46
1.13674e-46
1.13683e-46
1.13692e-46
1.137e-46
1.13708e-46
1.13715e-46
1.13722e-46
1.13729e-46
1.13735e-46
1.1374e-46
1.13745e-46
1.13749e-46
1.13753e-46
1.13755e-46
1.13757e-46
1.13759e-46
1.13759e-46
1.13758e-46
1.13757e-46
1.13754e-46
1.13751e-46
1.13746e-46
1.13741e-46
1.13734e-46
1.13726e-46
1.13717e-46
1.13706e-46
1.13694e-46
1.13681e-46
1.13666e-46
1.1365e-46
1.13632e-46
1.13612e-46
1.13591e-46
1.13568e-46
1.13543e-46
1.13517e-46
1.13489e-46
1.13458e-46
1.13426e-46
1.13392e-46
1.13356e-46
1.13317e-46
1.13277e-46
1.13234e-46
1.1319e-46
1.13143e-46
1.13093e-46
1.13042e-46
1.12988e-46
1.12932e-46
1.12873e-46
1.12812e-46
1.12749e-46
1.12683e-46
1.12615e-46
1.12545e-46
1.12472e-46
1.12396e-46
1.12319e-46
1.12239e-46
1.12156e-46
1.12072e-46
1.11984e-46
1.11895e-46
1.11804e-46
1.1171e-46
1.11614e-46
1.11516e-46
1.11416e-46
1.11313e-46
1.11209e-46
1.11103e-46
1.10995e-46
1.10885e-46
1.10774e-46
1.10661e-46
1.10546e-46
1.1043e-46
1.10312e-46
1.10194e-46
1.10082e-46
1.10018e-46
1.10343e-46
1.14033e-46
1.49562e-46
5.08061e-46
4.29071e-45
4.51922e-44
4.91268e-43
5.34811e-42
5.78162e-41
6.18199e-40
6.52444e-39
6.79131e-38
6.97365e-37
7.07231e-36
7.09768e-35
7.06742e-34
7.00221e-33
6.91937e-32
6.82449e-31
6.70199e-30
6.50918e-29
)
;

boundaryField
{
    boundary
    {
        type            empty;
    }
    inlet
    {
        type            fixedValue;
        value           nonuniform 0();
    }
    outlet
    {
        type            zeroGradient;
    }
    procBoundary3to1
    {
        type            processor;
        value           uniform 7.77995e-28;
    }
    procBoundary3to2
    {
        type            processor;
        value           uniform 1.11398e-46;
    }
}


// ************************************************************************* //
