/*--------------------------------*- C++ -*----------------------------------*\
  =========                 |
  \\      /  F ield         | OpenFOAM: The Open Source CFD Toolbox
   \\    /   O peration     | Website:  https://openfoam.org
    \\  /    A nd           | Version:  7
     \\/     M anipulation  |
\*---------------------------------------------------------------------------*/
FoamFile
{
    version     2.0;
    format      ascii;
    class       volScalarField;
    location    "7e-05";
    object      H2O2;
}
// * * * * * * * * * * * * * * * * * * * * * * * * * * * * * * * * * * * * * //

dimensions      [0 0 0 0 0 0 0];

internalField   nonuniform List<scalar> 
126
(
3.23502e-51
3.26046e-51
3.29423e-51
3.32897e-51
3.3587e-51
3.38077e-51
3.39543e-51
3.40436e-51
3.40947e-51
3.41231e-51
3.41388e-51
3.41482e-51
3.41544e-51
3.41591e-51
3.41632e-51
3.41669e-51
3.41706e-51
3.41741e-51
3.41775e-51
3.41809e-51
3.41842e-51
3.41875e-51
3.41906e-51
3.41936e-51
3.41966e-51
3.41994e-51
3.42021e-51
3.42046e-51
3.4207e-51
3.42093e-51
3.42114e-51
3.42133e-51
3.4215e-51
3.42165e-51
3.42178e-51
3.42188e-51
3.42196e-51
3.42202e-51
3.42205e-51
3.42205e-51
3.42202e-51
3.42196e-51
3.42186e-51
3.42174e-51
3.42157e-51
3.42137e-51
3.42113e-51
3.42085e-51
3.42052e-51
3.42015e-51
3.41974e-51
3.41928e-51
3.41877e-51
3.4182e-51
3.41759e-51
3.41692e-51
3.4162e-51
3.41542e-51
3.41458e-51
3.41368e-51
3.41272e-51
3.4117e-51
3.41061e-51
3.40945e-51
3.40823e-51
3.40694e-51
3.40558e-51
3.40415e-51
3.40264e-51
3.40106e-51
3.39941e-51
3.39768e-51
3.39588e-51
3.394e-51
3.39204e-51
3.39001e-51
3.38789e-51
3.3857e-51
3.38343e-51
3.38109e-51
3.37866e-51
3.37616e-51
3.37358e-51
3.37092e-51
3.36819e-51
3.36538e-51
3.3625e-51
3.35954e-51
3.35651e-51
3.35341e-51
3.35025e-51
3.34701e-51
3.34371e-51
3.34034e-51
3.33691e-51
3.33342e-51
3.32987e-51
3.32627e-51
3.32261e-51
3.3189e-51
3.31514e-51
3.31133e-51
3.30747e-51
3.30359e-51
3.29975e-51
3.29638e-51
3.29625e-51
3.31722e-51
3.4847e-51
4.82642e-51
1.80203e-50
1.82808e-49
2.6097e-48
4.12035e-47
6.70439e-46
1.09483e-44
1.77559e-43
2.848e-42
4.51042e-41
7.04923e-40
1.08721e-38
1.6551e-37
2.4873e-36
3.68904e-35
5.39512e-34
7.76974e-33
)
;

boundaryField
{
    boundary
    {
        type            empty;
    }
    inlet
    {
        type            fixedValue;
        value           nonuniform 0();
    }
    outlet
    {
        type            zeroGradient;
    }
    procBoundary3to1
    {
        type            processor;
        value           uniform 1.47809e-31;
    }
    procBoundary3to2
    {
        type            processor;
        value           uniform 3.33619e-51;
    }
}


// ************************************************************************* //
