/*--------------------------------*- C++ -*----------------------------------*\
  =========                 |
  \\      /  F ield         | OpenFOAM: The Open Source CFD Toolbox
   \\    /   O peration     | Website:  https://openfoam.org
    \\  /    A nd           | Version:  7
     \\/     M anipulation  |
\*---------------------------------------------------------------------------*/
FoamFile
{
    version     2.0;
    format      ascii;
    class       volScalarField;
    location    "7e-05";
    object      HO2;
}
// * * * * * * * * * * * * * * * * * * * * * * * * * * * * * * * * * * * * * //

dimensions      [0 0 0 0 0 0 0];

internalField   nonuniform List<scalar> 
126
(
4.3469e-37
4.36625e-37
4.39079e-37
4.4154e-37
4.43616e-37
4.45141e-37
4.46145e-37
4.46749e-37
4.47088e-37
4.4727e-37
4.47365e-37
4.47416e-37
4.47445e-37
4.47464e-37
4.47478e-37
4.4749e-37
4.475e-37
4.4751e-37
4.47519e-37
4.47527e-37
4.47534e-37
4.47541e-37
4.47546e-37
4.4755e-37
4.47553e-37
4.47555e-37
4.47556e-37
4.47555e-37
4.47552e-37
4.47548e-37
4.47542e-37
4.47535e-37
4.47525e-37
4.47513e-37
4.47499e-37
4.47483e-37
4.47464e-37
4.47443e-37
4.47419e-37
4.47392e-37
4.47363e-37
4.4733e-37
4.47294e-37
4.47254e-37
4.47211e-37
4.47164e-37
4.47114e-37
4.47059e-37
4.47001e-37
4.46938e-37
4.46871e-37
4.46799e-37
4.46722e-37
4.46641e-37
4.46554e-37
4.46462e-37
4.46365e-37
4.46263e-37
4.46154e-37
4.4604e-37
4.4592e-37
4.45795e-37
4.45662e-37
4.45524e-37
4.45379e-37
4.45228e-37
4.4507e-37
4.44905e-37
4.44733e-37
4.44554e-37
4.44369e-37
4.44176e-37
4.43976e-37
4.43769e-37
4.43554e-37
4.43333e-37
4.43103e-37
4.42867e-37
4.42623e-37
4.42372e-37
4.42114e-37
4.41848e-37
4.41575e-37
4.41295e-37
4.41008e-37
4.40714e-37
4.40413e-37
4.40105e-37
4.3979e-37
4.39469e-37
4.39142e-37
4.38808e-37
4.38468e-37
4.38123e-37
4.37771e-37
4.37414e-37
4.37052e-37
4.36685e-37
4.36313e-37
4.35936e-37
4.35555e-37
4.35169e-37
4.3478e-37
4.34388e-37
4.34e-37
4.33655e-37
4.33598e-37
4.35319e-37
4.48003e-37
5.28105e-37
1.02218e-36
4.05168e-36
2.25463e-35
1.34806e-34
8.10937e-34
4.84285e-33
2.86013e-32
1.66764e-31
9.59538e-31
5.45377e-30
3.06967e-29
1.7172e-28
9.58338e-28
5.34989e-27
2.99013e-26
1.67297e-25
)
;

boundaryField
{
    boundary
    {
        type            empty;
    }
    inlet
    {
        type            fixedValue;
        value           nonuniform 0();
    }
    outlet
    {
        type            zeroGradient;
    }
    procBoundary3to1
    {
        type            processor;
        value           uniform 9.82084e-25;
    }
    procBoundary3to2
    {
        type            processor;
        value           uniform 4.41933e-37;
    }
}


// ************************************************************************* //
