/*--------------------------------*- C++ -*----------------------------------*\
  =========                 |
  \\      /  F ield         | OpenFOAM: The Open Source CFD Toolbox
   \\    /   O peration     | Website:  https://openfoam.org
    \\  /    A nd           | Version:  7
     \\/     M anipulation  |
\*---------------------------------------------------------------------------*/
FoamFile
{
    version     2.0;
    format      ascii;
    class       volScalarField;
    location    "7e-05";
    object      O;
}
// * * * * * * * * * * * * * * * * * * * * * * * * * * * * * * * * * * * * * //

dimensions      [0 0 0 0 0 0 0];

internalField   nonuniform List<scalar> 
126
(
1.44029e-46
1.44566e-46
1.45449e-46
1.46331e-46
1.47059e-46
1.47593e-46
1.47948e-46
1.4817e-46
1.483e-46
1.48374e-46
1.48415e-46
1.48439e-46
1.48452e-46
1.4846e-46
1.48466e-46
1.4847e-46
1.48474e-46
1.48477e-46
1.48479e-46
1.48482e-46
1.48483e-46
1.48485e-46
1.48486e-46
1.48486e-46
1.48486e-46
1.48486e-46
1.48485e-46
1.48483e-46
1.4848e-46
1.48477e-46
1.48473e-46
1.48468e-46
1.48463e-46
1.48456e-46
1.48449e-46
1.4844e-46
1.48431e-46
1.4842e-46
1.48408e-46
1.48395e-46
1.48381e-46
1.48365e-46
1.48348e-46
1.48329e-46
1.48309e-46
1.48287e-46
1.48264e-46
1.48239e-46
1.48212e-46
1.48183e-46
1.48152e-46
1.4812e-46
1.48085e-46
1.48048e-46
1.48009e-46
1.47968e-46
1.47924e-46
1.47878e-46
1.47829e-46
1.47779e-46
1.47725e-46
1.47669e-46
1.4761e-46
1.47549e-46
1.47484e-46
1.47417e-46
1.47347e-46
1.47274e-46
1.47199e-46
1.4712e-46
1.47038e-46
1.46953e-46
1.46865e-46
1.46774e-46
1.4668e-46
1.46582e-46
1.46482e-46
1.46378e-46
1.46272e-46
1.46162e-46
1.46049e-46
1.45933e-46
1.45814e-46
1.45691e-46
1.45566e-46
1.45438e-46
1.45307e-46
1.45173e-46
1.45036e-46
1.44896e-46
1.44754e-46
1.44609e-46
1.44462e-46
1.44312e-46
1.44159e-46
1.44005e-46
1.43848e-46
1.43689e-46
1.43528e-46
1.43365e-46
1.43201e-46
1.43036e-46
1.42877e-46
1.4277e-46
1.4304e-46
1.46164e-46
1.72548e-46
4.04439e-46
2.58174e-45
2.41086e-44
2.43882e-43
2.52361e-42
2.62807e-41
2.73169e-40
2.81972e-39
2.88092e-38
2.90693e-37
2.89226e-36
2.83461e-35
2.73515e-34
2.5987e-33
2.43362e-32
2.25145e-31
2.06589e-30
1.8875e-29
1.69812e-28
)
;

boundaryField
{
    boundary
    {
        type            empty;
    }
    inlet
    {
        type            fixedValue;
        value           nonuniform 0();
    }
    outlet
    {
        type            zeroGradient;
    }
    procBoundary3to1
    {
        type            processor;
        value           uniform 1.70009e-27;
    }
    procBoundary3to2
    {
        type            processor;
        value           uniform 1.46048e-46;
    }
}


// ************************************************************************* //
