/*--------------------------------*- C++ -*----------------------------------*\
  =========                 |
  \\      /  F ield         | OpenFOAM: The Open Source CFD Toolbox
   \\    /   O peration     | Website:  https://openfoam.org
    \\  /    A nd           | Version:  7
     \\/     M anipulation  |
\*---------------------------------------------------------------------------*/
FoamFile
{
    version     2.0;
    format      ascii;
    class       volScalarField;
    location    "7e-05";
    object      OH;
}
// * * * * * * * * * * * * * * * * * * * * * * * * * * * * * * * * * * * * * //

dimensions      [0 0 0 0 0 0 0];

internalField   nonuniform List<scalar> 
126
(
5.12423e-47
5.12234e-47
5.12834e-47
5.13487e-47
5.13981e-47
5.14304e-47
5.1449e-47
5.1458e-47
5.14606e-47
5.14593e-47
5.14557e-47
5.14509e-47
5.14453e-47
5.14393e-47
5.1433e-47
5.14266e-47
5.142e-47
5.14133e-47
5.14063e-47
5.13993e-47
5.1392e-47
5.13846e-47
5.1377e-47
5.13692e-47
5.13611e-47
5.13528e-47
5.13443e-47
5.13355e-47
5.13264e-47
5.1317e-47
5.13073e-47
5.12973e-47
5.12869e-47
5.12762e-47
5.12651e-47
5.12535e-47
5.12416e-47
5.12292e-47
5.12163e-47
5.1203e-47
5.11891e-47
5.11748e-47
5.11599e-47
5.11444e-47
5.11283e-47
5.11117e-47
5.10944e-47
5.10764e-47
5.10578e-47
5.10384e-47
5.10184e-47
5.09976e-47
5.0976e-47
5.09537e-47
5.09305e-47
5.09065e-47
5.08817e-47
5.0856e-47
5.08294e-47
5.08019e-47
5.07734e-47
5.0744e-47
5.07136e-47
5.06823e-47
5.06499e-47
5.06165e-47
5.05821e-47
5.05467e-47
5.05102e-47
5.04726e-47
5.04339e-47
5.03942e-47
5.03534e-47
5.03115e-47
5.02685e-47
5.02243e-47
5.01791e-47
5.01329e-47
5.00855e-47
5.0037e-47
4.99875e-47
4.99369e-47
4.98852e-47
4.98325e-47
4.97788e-47
4.97241e-47
4.96685e-47
4.96118e-47
4.95543e-47
4.94958e-47
4.94365e-47
4.93763e-47
4.93153e-47
4.92535e-47
4.91909e-47
4.91277e-47
4.90638e-47
4.89992e-47
4.89341e-47
4.88684e-47
4.88021e-47
4.87355e-47
4.86693e-47
4.86091e-47
4.8606e-47
4.91637e-47
5.55304e-47
1.24193e-46
8.71263e-46
9.02462e-45
9.75923e-44
1.05036e-42
1.11697e-41
1.171e-40
1.20911e-39
1.22941e-38
1.23164e-37
1.21721e-36
1.18908e-35
1.15128e-34
1.1083e-33
1.06431e-32
1.02204e-31
9.81347e-31
9.37404e-30
8.79417e-29
)
;

boundaryField
{
    boundary
    {
        type            empty;
    }
    inlet
    {
        type            fixedValue;
        value           nonuniform 0();
    }
    outlet
    {
        type            zeroGradient;
    }
    procBoundary3to1
    {
        type            processor;
        value           uniform 7.61595e-28;
    }
    procBoundary3to2
    {
        type            processor;
        value           uniform 5.13607e-47;
    }
}


// ************************************************************************* //
