/*--------------------------------*- C++ -*----------------------------------*\
  =========                 |
  \\      /  F ield         | OpenFOAM: The Open Source CFD Toolbox
   \\    /   O peration     | Website:  https://openfoam.org
    \\  /    A nd           | Version:  7
     \\/     M anipulation  |
\*---------------------------------------------------------------------------*/
FoamFile
{
    version     2.0;
    format      ascii;
    class       surfaceScalarField;
    location    "7e-05";
    object      phi;
}
// * * * * * * * * * * * * * * * * * * * * * * * * * * * * * * * * * * * * * //

dimensions      [1 0 -1 0 0 0 0];

internalField   nonuniform List<scalar> 
125
(
6.90782e-06
6.90217e-06
6.89645e-06
6.8907e-06
6.88489e-06
6.87905e-06
6.87317e-06
6.86725e-06
6.8613e-06
6.85531e-06
6.84928e-06
6.84323e-06
6.83714e-06
6.83102e-06
6.82487e-06
6.81869e-06
6.81249e-06
6.80626e-06
6.80001e-06
6.79373e-06
6.78743e-06
6.7811e-06
6.77476e-06
6.7684e-06
6.76201e-06
6.75561e-06
6.74919e-06
6.74276e-06
6.73631e-06
6.72984e-06
6.72336e-06
6.71686e-06
6.71035e-06
6.70383e-06
6.69729e-06
6.69075e-06
6.68419e-06
6.67762e-06
6.67104e-06
6.66445e-06
6.65786e-06
6.65125e-06
6.64464e-06
6.63802e-06
6.6314e-06
6.62477e-06
6.61813e-06
6.61149e-06
6.60485e-06
6.5982e-06
6.59155e-06
6.5849e-06
6.57825e-06
6.5716e-06
6.56495e-06
6.5583e-06
6.55166e-06
6.54501e-06
6.53837e-06
6.53174e-06
6.52511e-06
6.51849e-06
6.51187e-06
6.50527e-06
6.49867e-06
6.49208e-06
6.4855e-06
6.47894e-06
6.47238e-06
6.46584e-06
6.45932e-06
6.45281e-06
6.44631e-06
6.43983e-06
6.43337e-06
6.42693e-06
6.4205e-06
6.41409e-06
6.4077e-06
6.40133e-06
6.39498e-06
6.38865e-06
6.38233e-06
6.37604e-06
6.36977e-06
6.36351e-06
6.35728e-06
6.35107e-06
6.34487e-06
6.33869e-06
6.33253e-06
6.32638e-06
6.32025e-06
6.31413e-06
6.30803e-06
6.30193e-06
6.29585e-06
6.28978e-06
6.28371e-06
6.27765e-06
6.27159e-06
6.26553e-06
6.25947e-06
6.25341e-06
6.24734e-06
6.24127e-06
6.23519e-06
6.2291e-06
6.22299e-06
6.21687e-06
6.21072e-06
6.20456e-06
6.19838e-06
6.19217e-06
6.18594e-06
6.17967e-06
6.17338e-06
6.16706e-06
6.1607e-06
6.15431e-06
6.14788e-06
6.14141e-06
6.13491e-06
6.12837e-06
6.1218e-06
)
;

boundaryField
{
    boundary
    {
        type            empty;
        value           nonuniform 0();
    }
    inlet
    {
        type            calculated;
        value           nonuniform 0();
    }
    outlet
    {
        type            calculated;
        value           nonuniform 0();
    }
    procBoundary3to1
    {
        type            processor;
        value           uniform 6.11519e-06;
    }
    procBoundary3to2
    {
        type            processor;
        value           uniform -6.91343e-06;
    }
}


// ************************************************************************* //
