/*--------------------------------*- C++ -*----------------------------------*\
  =========                 |
  \\      /  F ield         | OpenFOAM: The Open Source CFD Toolbox
   \\    /   O peration     | Website:  https://openfoam.org
    \\  /    A nd           | Version:  7
     \\/     M anipulation  |
\*---------------------------------------------------------------------------*/
FoamFile
{
    version     2.0;
    format      ascii;
    class       volScalarField;
    location    "7e-05";
    object      Qdot;
}
// * * * * * * * * * * * * * * * * * * * * * * * * * * * * * * * * * * * * * //

dimensions      [1 -1 -3 0 0 0 0];

internalField   nonuniform List<scalar> 
126
(
-2.49877e-27
-2.49905e-27
-2.49944e-27
-2.49983e-27
-2.50018e-27
-2.50046e-27
-2.50069e-27
-2.50089e-27
-2.50105e-27
-2.5012e-27
-2.50133e-27
-2.50146e-27
-2.50157e-27
-2.50167e-27
-2.50177e-27
-2.50185e-27
-2.50192e-27
-2.50198e-27
-2.50203e-27
-2.50206e-27
-2.50209e-27
-2.50209e-27
-2.50209e-27
-2.50206e-27
-2.50202e-27
-2.50197e-27
-2.5019e-27
-2.50181e-27
-2.5017e-27
-2.50157e-27
-2.50142e-27
-2.50125e-27
-2.50106e-27
-2.50085e-27
-2.50062e-27
-2.50036e-27
-2.50008e-27
-2.49977e-27
-2.49944e-27
-2.49908e-27
-2.49869e-27
-2.49828e-27
-2.49784e-27
-2.49736e-27
-2.49686e-27
-2.49633e-27
-2.49577e-27
-2.49517e-27
-2.49454e-27
-2.49388e-27
-2.49319e-27
-2.49245e-27
-2.49169e-27
-2.49088e-27
-2.49004e-27
-2.48916e-27
-2.48824e-27
-2.48728e-27
-2.48628e-27
-2.48525e-27
-2.48417e-27
-2.48304e-27
-2.48188e-27
-2.48067e-27
-2.47942e-27
-2.47812e-27
-2.47678e-27
-2.47539e-27
-2.47396e-27
-2.47248e-27
-2.47095e-27
-2.46938e-27
-2.46776e-27
-2.4661e-27
-2.46439e-27
-2.46263e-27
-2.46082e-27
-2.45897e-27
-2.45706e-27
-2.45512e-27
-2.45312e-27
-2.45108e-27
-2.449e-27
-2.44686e-27
-2.44469e-27
-2.44247e-27
-2.4402e-27
-2.4379e-27
-2.43555e-27
-2.43316e-27
-2.43073e-27
-2.42826e-27
-2.42576e-27
-2.42322e-27
-2.42064e-27
-2.41803e-27
-2.41538e-27
-2.41271e-27
-2.41e-27
-2.40727e-27
-2.40451e-27
-2.40172e-27
-2.39891e-27
-2.39608e-27
-2.39323e-27
-2.39034e-27
-2.3874e-27
-2.38417e-27
-2.37921e-27
-2.36302e-27
-2.27337e-27
-1.69882e-27
2.09768e-27
2.74323e-26
1.97529e-25
1.34536e-24
9.12581e-24
6.2077e-23
4.23764e-22
2.90274e-21
1.99506e-20
1.37603e-19
9.52848e-19
6.63011e-18
4.64105e-17
3.27027e-16
)
;

boundaryField
{
    boundary
    {
        type            empty;
    }
    inlet
    {
        type            calculated;
        value           nonuniform 0();
    }
    outlet
    {
        type            calculated;
        value           nonuniform 0();
    }
    procBoundary3to1
    {
        type            processor;
        value           uniform 0;
    }
    procBoundary3to2
    {
        type            processor;
        value           uniform 0;
    }
}


// ************************************************************************* //
