/*--------------------------------*- C++ -*----------------------------------*\
  =========                 |
  \\      /  F ield         | OpenFOAM: The Open Source CFD Toolbox
   \\    /   O peration     | Website:  https://openfoam.org
    \\  /    A nd           | Version:  7
     \\/     M anipulation  |
\*---------------------------------------------------------------------------*/
FoamFile
{
    version     2.0;
    format      ascii;
    class       volScalarField;
    location    "7e-05";
    object      T;
}
// * * * * * * * * * * * * * * * * * * * * * * * * * * * * * * * * * * * * * //

dimensions      [0 0 0 1 0 0 0];

internalField   nonuniform List<scalar> 
126
(
301.296
301.296
301.297
301.297
301.297
301.298
301.298
301.298
301.298
301.298
301.298
301.298
301.298
301.298
301.298
301.298
301.298
301.298
301.298
301.298
301.298
301.298
301.298
301.298
301.298
301.297
301.297
301.297
301.297
301.297
301.296
301.296
301.296
301.296
301.295
301.295
301.294
301.294
301.294
301.293
301.292
301.292
301.291
301.291
301.29
301.289
301.289
301.288
301.287
301.286
301.285
301.284
301.283
301.282
301.281
301.28
301.279
301.277
301.276
301.275
301.273
301.272
301.27
301.269
301.267
301.265
301.264
301.262
301.26
301.258
301.256
301.254
301.252
301.249
301.247
301.245
301.242
301.24
301.237
301.235
301.232
301.229
301.226
301.223
301.22
301.217
301.214
301.211
301.208
301.205
301.202
301.198
301.195
301.191
301.188
301.184
301.181
301.177
301.173
301.169
301.166
301.162
301.158
301.154
301.15
301.146
301.142
301.138
301.134
301.13
301.126
301.122
301.118
301.114
301.11
301.105
301.101
301.097
301.093
301.089
301.084
301.08
301.076
301.071
301.067
301.062
)
;

boundaryField
{
    boundary
    {
        type            empty;
    }
    inlet
    {
        type            fixedValue;
        value           nonuniform 0();
    }
    outlet
    {
        type            zeroGradient;
    }
    procBoundary3to1
    {
        type            processor;
        value           uniform 301.056;
    }
    procBoundary3to2
    {
        type            processor;
        value           uniform 301.297;
    }
}


// ************************************************************************* //
