/*--------------------------------*- C++ -*----------------------------------*\
  =========                 |
  \\      /  F ield         | OpenFOAM: The Open Source CFD Toolbox
   \\    /   O peration     | Website:  https://openfoam.org
    \\  /    A nd           | Version:  7
     \\/     M anipulation  |
\*---------------------------------------------------------------------------*/
FoamFile
{
    version     2.0;
    format      ascii;
    class       volVectorField;
    location    "7e-05";
    object      U;
}
// * * * * * * * * * * * * * * * * * * * * * * * * * * * * * * * * * * * * * //

dimensions      [0 1 -1 0 0 0 0];

internalField   nonuniform List<vector> 
126
(
(2.35822 0 0)
(2.35639 0 0)
(2.35449 0 0)
(2.35249 0 0)
(2.3505 0 0)
(2.34853 0 0)
(2.34654 0 0)
(2.34454 0 0)
(2.34251 0 0)
(2.34048 0 0)
(2.33844 0 0)
(2.33638 0 0)
(2.33431 0 0)
(2.33224 0 0)
(2.33015 0 0)
(2.32805 0 0)
(2.32594 0 0)
(2.32383 0 0)
(2.3217 0 0)
(2.31957 0 0)
(2.31743 0 0)
(2.31528 0 0)
(2.31313 0 0)
(2.31096 0 0)
(2.30879 0 0)
(2.30662 0 0)
(2.30444 0 0)
(2.30225 0 0)
(2.30006 0 0)
(2.29786 0 0)
(2.29566 0 0)
(2.29344 0 0)
(2.29123 0 0)
(2.28901 0 0)
(2.28679 0 0)
(2.28457 0 0)
(2.28233 0 0)
(2.2801 0 0)
(2.27786 0 0)
(2.27562 0 0)
(2.27338 0 0)
(2.27113 0 0)
(2.26888 0 0)
(2.26662 0 0)
(2.26437 0 0)
(2.26212 0 0)
(2.25987 0 0)
(2.2576 0 0)
(2.25533 0 0)
(2.25307 0 0)
(2.25081 0 0)
(2.24854 0 0)
(2.24627 0 0)
(2.24401 0 0)
(2.24174 0 0)
(2.23948 0 0)
(2.23721 0 0)
(2.23494 0 0)
(2.23268 0 0)
(2.23042 0 0)
(2.22815 0 0)
(2.2259 0 0)
(2.22365 0 0)
(2.22138 0 0)
(2.21913 0 0)
(2.21688 0 0)
(2.21464 0 0)
(2.2124 0 0)
(2.21016 0 0)
(2.20792 0 0)
(2.20569 0 0)
(2.20346 0 0)
(2.20124 0 0)
(2.19903 0 0)
(2.19682 0 0)
(2.19461 0 0)
(2.19241 0 0)
(2.19023 0 0)
(2.18803 0 0)
(2.18585 0 0)
(2.18368 0 0)
(2.18151 0 0)
(2.17935 0 0)
(2.17719 0 0)
(2.17504 0 0)
(2.1729 0 0)
(2.17076 0 0)
(2.16863 0 0)
(2.16651 0 0)
(2.16439 0 0)
(2.16228 0 0)
(2.16017 0 0)
(2.15806 0 0)
(2.15597 0 0)
(2.15388 0 0)
(2.15179 0 0)
(2.1497 0 0)
(2.14762 0 0)
(2.14554 0 0)
(2.14346 0 0)
(2.14138 0 0)
(2.13931 0 0)
(2.13723 0 0)
(2.13515 0 0)
(2.13308 0 0)
(2.131 0 0)
(2.1289 0 0)
(2.12682 0 0)
(2.12473 0 0)
(2.12264 0 0)
(2.12053 0 0)
(2.11842 0 0)
(2.1163 0 0)
(2.11418 0 0)
(2.11205 0 0)
(2.10991 0 0)
(2.10775 0 0)
(2.10559 0 0)
(2.10342 0 0)
(2.10122 0 0)
(2.09901 0 0)
(2.09681 0 0)
(2.09459 0 0)
(2.09235 0 0)
(2.09009 0 0)
(2.08779 0 0)
)
;

boundaryField
{
    boundary
    {
        type            empty;
    }
    inlet
    {
        type            fixedValue;
        value           nonuniform 0();
    }
    outlet
    {
        type            zeroGradient;
    }
    procBoundary3to1
    {
        type            processor;
        value           uniform (2.08551 0 0);
    }
    procBoundary3to2
    {
        type            processor;
        value           uniform (2.36015 0 0);
    }
}


// ************************************************************************* //
