/*--------------------------------*- C++ -*----------------------------------*\
  =========                 |
  \\      /  F ield         | OpenFOAM: The Open Source CFD Toolbox
   \\    /   O peration     | Website:  https://openfoam.org
    \\  /    A nd           | Version:  7
     \\/     M anipulation  |
\*---------------------------------------------------------------------------*/
FoamFile
{
    version     2.0;
    format      ascii;
    class       volScalarField;
    location    "0.00036";
    object      OH;
}
// * * * * * * * * * * * * * * * * * * * * * * * * * * * * * * * * * * * * * //

dimensions      [0 0 0 0 0 0 0];

internalField   nonuniform List<scalar> 
125
(
9.39783e-48
1.83334e-47
2.44661e-47
2.86468e-47
3.15063e-47
3.34823e-47
3.48735e-47
3.5884e-47
3.66539e-47
3.72811e-47
3.78348e-47
3.83656e-47
3.89113e-47
3.95008e-47
4.01567e-47
4.08965e-47
4.17331e-47
4.26751e-47
4.37264e-47
4.48864e-47
4.6149e-47
4.75036e-47
4.89342e-47
5.04208e-47
5.19398e-47
5.34652e-47
5.49702e-47
5.64285e-47
5.78161e-47
5.91124e-47
6.03013e-47
6.1372e-47
6.23187e-47
6.31409e-47
6.38424e-47
6.44306e-47
6.49153e-47
6.53081e-47
6.56213e-47
6.58671e-47
6.60569e-47
6.62013e-47
6.63095e-47
6.63895e-47
6.64477e-47
6.64896e-47
6.65192e-47
6.654e-47
6.65544e-47
6.65642e-47
6.65709e-47
6.65754e-47
6.65784e-47
6.65804e-47
6.65818e-47
6.65828e-47
6.65836e-47
6.65841e-47
6.65846e-47
6.65851e-47
6.65855e-47
6.65859e-47
6.65863e-47
6.65868e-47
6.65873e-47
6.65877e-47
6.65883e-47
6.65888e-47
6.65894e-47
6.659e-47
6.65907e-47
6.65914e-47
6.65921e-47
6.65928e-47
6.65937e-47
6.65945e-47
6.65954e-47
6.65963e-47
6.65973e-47
6.65984e-47
6.65994e-47
6.66006e-47
6.66018e-47
6.6603e-47
6.66043e-47
6.66057e-47
6.66071e-47
6.66086e-47
6.66102e-47
6.66118e-47
6.66135e-47
6.66152e-47
6.66171e-47
6.6619e-47
6.66209e-47
6.6623e-47
6.66251e-47
6.66273e-47
6.66296e-47
6.6632e-47
6.66344e-47
6.6637e-47
6.66396e-47
6.66423e-47
6.66451e-47
6.6648e-47
6.66509e-47
6.6654e-47
6.66572e-47
6.66604e-47
6.66637e-47
6.66672e-47
6.66707e-47
6.66743e-47
6.66781e-47
6.66819e-47
6.66858e-47
6.66898e-47
6.66939e-47
6.66981e-47
6.67024e-47
6.67067e-47
6.67111e-47
6.67156e-47
6.67203e-47
)
;

boundaryField
{
    boundary
    {
        type            empty;
    }
    inlet
    {
        type            fixedValue;
        value           uniform 0;
    }
    outlet
    {
        type            zeroGradient;
    }
    procBoundary2to3
    {
        type            processor;
        value           uniform 6.67254e-47;
    }
}


// ************************************************************************* //
