/*--------------------------------*- C++ -*----------------------------------*\
  =========                 |
  \\      /  F ield         | OpenFOAM: The Open Source CFD Toolbox
   \\    /   O peration     | Website:  https://openfoam.org
    \\  /    A nd           | Version:  7
     \\/     M anipulation  |
\*---------------------------------------------------------------------------*/
FoamFile
{
    version     2.0;
    format      ascii;
    class       volScalarField;
    location    "0.00101";
    object      H;
}
// * * * * * * * * * * * * * * * * * * * * * * * * * * * * * * * * * * * * * //

dimensions      [0 0 0 0 0 0 0];

internalField   nonuniform List<scalar> 
125
(
1.48619e-41
2.01361e-41
2.12773e-41
2.15264e-41
2.15827e-41
2.15974e-41
2.16035e-41
2.16081e-41
2.16126e-41
2.16174e-41
2.16221e-41
2.16265e-41
2.16304e-41
2.16335e-41
2.16356e-41
2.16365e-41
2.16358e-41
2.16335e-41
2.16294e-41
2.16233e-41
2.16152e-41
2.16051e-41
2.1593e-41
2.15791e-41
2.15637e-41
2.15471e-41
2.15296e-41
2.15117e-41
2.14939e-41
2.14767e-41
2.14607e-41
2.14465e-41
2.14344e-41
2.14252e-41
2.14192e-41
2.14169e-41
2.14188e-41
2.14252e-41
2.14365e-41
2.14531e-41
2.14755e-41
2.15038e-41
2.15387e-41
2.15806e-41
2.16299e-41
2.16872e-41
2.17532e-41
2.18285e-41
2.19138e-41
2.201e-41
2.21177e-41
2.2238e-41
2.23716e-41
2.25194e-41
2.26821e-41
2.28606e-41
2.30555e-41
2.32674e-41
2.34967e-41
2.37438e-41
2.40087e-41
2.42913e-41
2.45914e-41
2.49085e-41
2.52417e-41
2.559e-41
2.59522e-41
2.63268e-41
2.67119e-41
2.71058e-41
2.75061e-41
2.79107e-41
2.83172e-41
2.87231e-41
2.91258e-41
2.95231e-41
2.99124e-41
3.02916e-41
3.06586e-41
3.10115e-41
3.13486e-41
3.16687e-41
3.19706e-41
3.22535e-41
3.25169e-41
3.27606e-41
3.29847e-41
3.31894e-41
3.33753e-41
3.3543e-41
3.36934e-41
3.38274e-41
3.39461e-41
3.40506e-41
3.41421e-41
3.42217e-41
3.42906e-41
3.43499e-41
3.44006e-41
3.44438e-41
3.44803e-41
3.4511e-41
3.45367e-41
3.45581e-41
3.45758e-41
3.45905e-41
3.46025e-41
3.46123e-41
3.46203e-41
3.46268e-41
3.4632e-41
3.46363e-41
3.46397e-41
3.46425e-41
3.46447e-41
3.46465e-41
3.4648e-41
3.46493e-41
3.46503e-41
3.46512e-41
3.4652e-41
3.46526e-41
3.46532e-41
3.46536e-41
3.46535e-41
)
;

boundaryField
{
    boundary
    {
        type            empty;
    }
    inlet
    {
        type            fixedValue;
        value           uniform 0;
    }
    outlet
    {
        type            zeroGradient;
    }
    procBoundary2to3
    {
        type            processor;
        value           uniform 3.46534e-41;
    }
}


// ************************************************************************* //
