/*--------------------------------*- C++ -*----------------------------------*\
  =========                 |
  \\      /  F ield         | OpenFOAM: The Open Source CFD Toolbox
   \\    /   O peration     | Website:  https://openfoam.org
    \\  /    A nd           | Version:  7
     \\/     M anipulation  |
\*---------------------------------------------------------------------------*/
FoamFile
{
    version     2.0;
    format      ascii;
    class       volScalarField;
    location    "0.00101";
    object      T;
}
// * * * * * * * * * * * * * * * * * * * * * * * * * * * * * * * * * * * * * //

dimensions      [0 0 0 1 0 0 0];

internalField   nonuniform List<scalar> 
125
(
300.001
300.002
300.003
300.003
300.004
300.004
300.005
300.006
300.006
300.007
300.008
300.008
300.009
300.009
300.01
300.01
300.01
300.009
300.009
300.008
300.007
300.005
300.003
300.001
299.999
299.997
299.994
299.991
299.989
299.986
299.984
299.982
299.98
299.978
299.977
299.977
299.977
299.978
299.98
299.982
299.986
299.99
299.995
300.001
300.009
300.017
300.027
300.038
300.05
300.064
300.08
300.097
300.116
300.137
300.161
300.186
300.213
300.242
300.274
300.307
300.343
300.38
300.42
300.461
300.503
300.547
300.592
300.639
300.685
300.732
300.78
300.827
300.873
300.919
300.964
301.007
301.05
301.09
301.129
301.166
301.201
301.234
301.264
301.293
301.319
301.343
301.365
301.385
301.403
301.419
301.434
301.446
301.458
301.468
301.476
301.484
301.49
301.496
301.501
301.505
301.508
301.511
301.513
301.515
301.517
301.518
301.519
301.52
301.521
301.522
301.522
301.523
301.523
301.523
301.523
301.524
301.524
301.524
301.524
301.524
301.524
301.524
301.524
301.524
301.524
)
;

boundaryField
{
    boundary
    {
        type            empty;
    }
    inlet
    {
        type            fixedValue;
        value           uniform 300;
    }
    outlet
    {
        type            zeroGradient;
    }
    procBoundary2to3
    {
        type            processor;
        value           uniform 301.524;
    }
}


// ************************************************************************* //
