/*--------------------------------*- C++ -*----------------------------------*\
  =========                 |
  \\      /  F ield         | OpenFOAM: The Open Source CFD Toolbox
   \\    /   O peration     | Website:  https://openfoam.org
    \\  /    A nd           | Version:  7
     \\/     M anipulation  |
\*---------------------------------------------------------------------------*/
FoamFile
{
    version     2.0;
    format      ascii;
    class       volScalarField;
    location    "9e-05";
    object      H;
}
// * * * * * * * * * * * * * * * * * * * * * * * * * * * * * * * * * * * * * //

dimensions      [0 0 0 0 0 0 0];

internalField   nonuniform List<scalar> 
126
(
3.24503e-41
3.24499e-41
3.24505e-41
3.24523e-41
3.24551e-41
3.24583e-41
3.24615e-41
3.24644e-41
3.24671e-41
3.24694e-41
3.24716e-41
3.24735e-41
3.24754e-41
3.24773e-41
3.24791e-41
3.24809e-41
3.24827e-41
3.24844e-41
3.24861e-41
3.24878e-41
3.24895e-41
3.24911e-41
3.24927e-41
3.24942e-41
3.24957e-41
3.2497e-41
3.24983e-41
3.24996e-41
3.25007e-41
3.25017e-41
3.25027e-41
3.25035e-41
3.25042e-41
3.25047e-41
3.25051e-41
3.25053e-41
3.25054e-41
3.25053e-41
3.2505e-41
3.25045e-41
3.25038e-41
3.25029e-41
3.25017e-41
3.25003e-41
3.24987e-41
3.24967e-41
3.24945e-41
3.2492e-41
3.24892e-41
3.24861e-41
3.24826e-41
3.24788e-41
3.24747e-41
3.24701e-41
3.24652e-41
3.24599e-41
3.24542e-41
3.24481e-41
3.24415e-41
3.24345e-41
3.24271e-41
3.24192e-41
3.24108e-41
3.24019e-41
3.23925e-41
3.23826e-41
3.23722e-41
3.23613e-41
3.23498e-41
3.23378e-41
3.23253e-41
3.23122e-41
3.22985e-41
3.22843e-41
3.22695e-41
3.22541e-41
3.22382e-41
3.22216e-41
3.22045e-41
3.21869e-41
3.21686e-41
3.21498e-41
3.21304e-41
3.21105e-41
3.209e-41
3.2069e-41
3.20474e-41
3.20253e-41
3.20027e-41
3.19796e-41
3.19559e-41
3.19319e-41
3.19073e-41
3.18823e-41
3.18569e-41
3.1831e-41
3.18048e-41
3.17782e-41
3.17512e-41
3.17239e-41
3.16963e-41
3.16684e-41
3.16402e-41
3.16118e-41
3.15831e-41
3.15543e-41
3.15257e-41
3.15001e-41
3.14969e-41
3.1657e-41
3.3005e-41
4.29921e-41
1.15852e-40
6.46409e-40
4.50793e-39
3.25885e-38
2.36468e-37
1.71321e-36
1.23744e-35
8.9016e-35
6.3711e-34
4.53262e-33
3.20242e-32
2.24515e-31
1.56076e-30
1.07518e-29
)
;

boundaryField
{
    boundary
    {
        type            empty;
    }
    inlet
    {
        type            fixedValue;
        value           nonuniform 0();
    }
    outlet
    {
        type            zeroGradient;
    }
    procBoundary3to1
    {
        type            processor;
        value           uniform 7.40791e-29;
    }
    procBoundary3to2
    {
        type            processor;
        value           uniform 3.2451e-41;
    }
}


// ************************************************************************* //
