/*--------------------------------*- C++ -*----------------------------------*\
  =========                 |
  \\      /  F ield         | OpenFOAM: The Open Source CFD Toolbox
   \\    /   O peration     | Website:  https://openfoam.org
    \\  /    A nd           | Version:  7
     \\/     M anipulation  |
\*---------------------------------------------------------------------------*/
FoamFile
{
    version     2.0;
    format      ascii;
    class       volScalarField;
    location    "9e-05";
    object      H2O;
}
// * * * * * * * * * * * * * * * * * * * * * * * * * * * * * * * * * * * * * //

dimensions      [0 0 0 0 0 0 0];

internalField   nonuniform List<scalar> 
126
(
1.63606e-46
1.6391e-46
1.64423e-46
1.65095e-46
1.65832e-46
1.66539e-46
1.67148e-46
1.67625e-46
1.67971e-46
1.68207e-46
1.6836e-46
1.68454e-46
1.68512e-46
1.68548e-46
1.6857e-46
1.68586e-46
1.68598e-46
1.68608e-46
1.68617e-46
1.68625e-46
1.68632e-46
1.68639e-46
1.68646e-46
1.68652e-46
1.68657e-46
1.68661e-46
1.68665e-46
1.68669e-46
1.68671e-46
1.68673e-46
1.68674e-46
1.68674e-46
1.68673e-46
1.68671e-46
1.68667e-46
1.68663e-46
1.68658e-46
1.68651e-46
1.68643e-46
1.68633e-46
1.68622e-46
1.6861e-46
1.68596e-46
1.6858e-46
1.68563e-46
1.68544e-46
1.68523e-46
1.685e-46
1.68475e-46
1.68447e-46
1.68418e-46
1.68386e-46
1.68353e-46
1.68316e-46
1.68277e-46
1.68236e-46
1.68192e-46
1.68146e-46
1.68096e-46
1.68044e-46
1.67989e-46
1.6793e-46
1.67869e-46
1.67805e-46
1.67737e-46
1.67667e-46
1.67593e-46
1.67515e-46
1.67435e-46
1.6735e-46
1.67263e-46
1.67171e-46
1.67077e-46
1.66978e-46
1.66876e-46
1.6677e-46
1.66661e-46
1.66548e-46
1.66432e-46
1.66311e-46
1.66187e-46
1.6606e-46
1.65928e-46
1.65793e-46
1.65655e-46
1.65513e-46
1.65367e-46
1.65219e-46
1.65066e-46
1.64911e-46
1.64752e-46
1.6459e-46
1.64425e-46
1.64256e-46
1.64085e-46
1.63911e-46
1.63735e-46
1.63556e-46
1.63374e-46
1.6319e-46
1.63004e-46
1.62821e-46
1.62692e-46
1.63138e-46
1.69575e-46
2.38145e-46
9.47269e-46
8.20868e-45
8.19064e-44
8.23097e-43
8.21009e-42
8.11873e-41
7.96092e-40
7.74293e-39
7.47094e-38
7.14996e-37
6.78361e-36
6.37467e-35
5.92647e-34
5.4447e-33
4.93901e-32
4.42345e-31
3.91525e-30
3.43179e-29
2.98686e-28
2.58821e-27
)
;

boundaryField
{
    boundary
    {
        type            empty;
    }
    inlet
    {
        type            fixedValue;
        value           nonuniform 0();
    }
    outlet
    {
        type            zeroGradient;
    }
    procBoundary3to1
    {
        type            processor;
        value           uniform 2.61176e-26;
    }
    procBoundary3to2
    {
        type            processor;
        value           uniform 1.66309e-46;
    }
}


// ************************************************************************* //
