/*--------------------------------*- C++ -*----------------------------------*\
  =========                 |
  \\      /  F ield         | OpenFOAM: The Open Source CFD Toolbox
   \\    /   O peration     | Website:  https://openfoam.org
    \\  /    A nd           | Version:  7
     \\/     M anipulation  |
\*---------------------------------------------------------------------------*/
FoamFile
{
    version     2.0;
    format      ascii;
    class       volScalarField;
    location    "9e-05";
    object      H2O2;
}
// * * * * * * * * * * * * * * * * * * * * * * * * * * * * * * * * * * * * * //

dimensions      [0 0 0 0 0 0 0];

internalField   nonuniform List<scalar> 
126
(
5.65118e-51
5.66293e-51
5.68778e-51
5.72205e-51
5.76012e-51
5.79656e-51
5.82753e-51
5.85137e-51
5.86825e-51
5.8794e-51
5.88638e-51
5.8906e-51
5.89313e-51
5.89468e-51
5.89571e-51
5.89647e-51
5.89708e-51
5.89762e-51
5.89813e-51
5.89861e-51
5.89906e-51
5.8995e-51
5.89993e-51
5.90033e-51
5.90071e-51
5.90107e-51
5.9014e-51
5.90171e-51
5.902e-51
5.90225e-51
5.90247e-51
5.90266e-51
5.90281e-51
5.90293e-51
5.90301e-51
5.90304e-51
5.90303e-51
5.90298e-51
5.90287e-51
5.90271e-51
5.9025e-51
5.90224e-51
5.90191e-51
5.90152e-51
5.90107e-51
5.90055e-51
5.89997e-51
5.8993e-51
5.89857e-51
5.89775e-51
5.89686e-51
5.89588e-51
5.89481e-51
5.89365e-51
5.8924e-51
5.89106e-51
5.88962e-51
5.88807e-51
5.88642e-51
5.88467e-51
5.8828e-51
5.88082e-51
5.87873e-51
5.87652e-51
5.8742e-51
5.87174e-51
5.86917e-51
5.86647e-51
5.86364e-51
5.86068e-51
5.85759e-51
5.85437e-51
5.85101e-51
5.84752e-51
5.84388e-51
5.84011e-51
5.83621e-51
5.83216e-51
5.82798e-51
5.82365e-51
5.81919e-51
5.81459e-51
5.80985e-51
5.80497e-51
5.79996e-51
5.79481e-51
5.78953e-51
5.78412e-51
5.77858e-51
5.77291e-51
5.76712e-51
5.76121e-51
5.75518e-51
5.74903e-51
5.74277e-51
5.73641e-51
5.72994e-51
5.72337e-51
5.7167e-51
5.70994e-51
5.70309e-51
5.69615e-51
5.68915e-51
5.68214e-51
5.67577e-51
5.67759e-51
5.79251e-51
7.58518e-51
3.49971e-50
4.55821e-49
6.89067e-48
1.04463e-46
1.5687e-45
2.32951e-44
3.4188e-43
4.95672e-42
7.09709e-41
1.00322e-39
1.39965e-38
1.92678e-37
2.61643e-36
3.50327e-35
4.62209e-34
6.00251e-33
7.66114e-32
9.59413e-31
)
;

boundaryField
{
    boundary
    {
        type            empty;
    }
    inlet
    {
        type            fixedValue;
        value           nonuniform 0();
    }
    outlet
    {
        type            zeroGradient;
    }
    procBoundary3to1
    {
        type            processor;
        value           uniform 1.4406e-29;
    }
    procBoundary3to2
    {
        type            processor;
        value           uniform 5.78982e-51;
    }
}


// ************************************************************************* //
