/*--------------------------------*- C++ -*----------------------------------*\
  =========                 |
  \\      /  F ield         | OpenFOAM: The Open Source CFD Toolbox
   \\    /   O peration     | Website:  https://openfoam.org
    \\  /    A nd           | Version:  7
     \\/     M anipulation  |
\*---------------------------------------------------------------------------*/
FoamFile
{
    version     2.0;
    format      ascii;
    class       volScalarField;
    location    "9e-05";
    object      HO2;
}
// * * * * * * * * * * * * * * * * * * * * * * * * * * * * * * * * * * * * * //

dimensions      [0 0 0 0 0 0 0];

internalField   nonuniform List<scalar> 
126
(
5.87613e-37
5.88333e-37
5.89751e-37
5.91651e-37
5.93724e-37
5.95685e-37
5.97338e-37
5.98602e-37
5.99492e-37
6.00077e-37
6.0044e-37
6.00658e-37
6.00786e-37
6.00862e-37
6.00911e-37
6.00945e-37
6.00971e-37
6.00993e-37
6.01013e-37
6.01031e-37
6.01048e-37
6.01063e-37
6.01076e-37
6.01088e-37
6.01098e-37
6.01107e-37
6.01114e-37
6.01118e-37
6.01121e-37
6.01121e-37
6.01118e-37
6.01113e-37
6.01106e-37
6.01095e-37
6.01082e-37
6.01065e-37
6.01045e-37
6.01021e-37
6.00993e-37
6.00962e-37
6.00927e-37
6.00887e-37
6.00843e-37
6.00794e-37
6.0074e-37
6.00681e-37
6.00617e-37
6.00548e-37
6.00472e-37
6.00391e-37
6.00304e-37
6.00211e-37
6.00111e-37
6.00005e-37
5.99891e-37
5.99771e-37
5.99643e-37
5.99507e-37
5.99364e-37
5.99213e-37
5.99054e-37
5.98887e-37
5.98711e-37
5.98527e-37
5.98333e-37
5.98131e-37
5.9792e-37
5.97699e-37
5.97469e-37
5.97229e-37
5.9698e-37
5.9672e-37
5.96451e-37
5.96172e-37
5.95883e-37
5.95584e-37
5.95275e-37
5.94955e-37
5.94625e-37
5.94285e-37
5.93935e-37
5.93575e-37
5.93205e-37
5.92825e-37
5.92435e-37
5.92035e-37
5.91625e-37
5.91206e-37
5.90777e-37
5.9034e-37
5.89893e-37
5.89438e-37
5.88974e-37
5.88501e-37
5.88021e-37
5.87533e-37
5.87037e-37
5.86534e-37
5.86024e-37
5.85507e-37
5.84985e-37
5.84456e-37
5.83922e-37
5.83386e-37
5.82865e-37
5.82466e-37
5.82837e-37
5.87955e-37
6.22102e-37
8.32957e-37
2.11324e-36
9.81874e-36
5.57897e-35
3.27372e-34
1.91481e-33
1.10934e-32
6.36223e-32
3.61602e-31
2.04069e-30
1.14628e-29
6.42382e-29
3.59844e-28
2.01738e-27
1.13265e-26
6.37012e-26
3.5882e-25
)
;

boundaryField
{
    boundary
    {
        type            empty;
    }
    inlet
    {
        type            fixedValue;
        value           nonuniform 0();
    }
    outlet
    {
        type            zeroGradient;
    }
    procBoundary3to1
    {
        type            processor;
        value           uniform 2.10179e-24;
    }
    procBoundary3to2
    {
        type            processor;
        value           uniform 5.95173e-37;
    }
}


// ************************************************************************* //
