/*--------------------------------*- C++ -*----------------------------------*\
  =========                 |
  \\      /  F ield         | OpenFOAM: The Open Source CFD Toolbox
   \\    /   O peration     | Website:  https://openfoam.org
    \\  /    A nd           | Version:  7
     \\/     M anipulation  |
\*---------------------------------------------------------------------------*/
FoamFile
{
    version     2.0;
    format      ascii;
    class       volScalarField;
    location    "9e-05";
    object      O;
}
// * * * * * * * * * * * * * * * * * * * * * * * * * * * * * * * * * * * * * //

dimensions      [0 0 0 0 0 0 0];

internalField   nonuniform List<scalar> 
126
(
1.99698e-46
1.98999e-46
1.98646e-46
1.98756e-46
1.99186e-46
1.99738e-46
2.00267e-46
2.00699e-46
2.0102e-46
2.0124e-46
2.01383e-46
2.01474e-46
2.0153e-46
2.01564e-46
2.01587e-46
2.01602e-46
2.01614e-46
2.01623e-46
2.01631e-46
2.01637e-46
2.01643e-46
2.01649e-46
2.01653e-46
2.01657e-46
2.01661e-46
2.01663e-46
2.01665e-46
2.01665e-46
2.01665e-46
2.01664e-46
2.01661e-46
2.01658e-46
2.01653e-46
2.01647e-46
2.0164e-46
2.01631e-46
2.0162e-46
2.01609e-46
2.01595e-46
2.0158e-46
2.01563e-46
2.01544e-46
2.01523e-46
2.015e-46
2.01475e-46
2.01448e-46
2.01418e-46
2.01386e-46
2.01352e-46
2.01315e-46
2.01275e-46
2.01233e-46
2.01187e-46
2.01139e-46
2.01088e-46
2.01033e-46
2.00976e-46
2.00915e-46
2.00851e-46
2.00783e-46
2.00712e-46
2.00637e-46
2.00558e-46
2.00476e-46
2.0039e-46
2.003e-46
2.00206e-46
2.00108e-46
2.00005e-46
1.99899e-46
1.99788e-46
1.99673e-46
1.99554e-46
1.99431e-46
1.99303e-46
1.99171e-46
1.99034e-46
1.98893e-46
1.98747e-46
1.98598e-46
1.98443e-46
1.98285e-46
1.98122e-46
1.97955e-46
1.97783e-46
1.97607e-46
1.97428e-46
1.97244e-46
1.97056e-46
1.96864e-46
1.96668e-46
1.96469e-46
1.96265e-46
1.96059e-46
1.95849e-46
1.95635e-46
1.95419e-46
1.95199e-46
1.94977e-46
1.94752e-46
1.94532e-46
1.94379e-46
1.94897e-46
2.02107e-46
2.76335e-46
1.02164e-45
8.45721e-45
8.21161e-44
8.0553e-43
7.84208e-42
7.55925e-41
7.21166e-40
6.80864e-39
6.3612e-38
5.88048e-37
5.37664e-36
4.85833e-35
4.3328e-34
3.80669e-33
3.28719e-32
2.78292e-31
2.30412e-30
1.86181e-29
1.46596e-28
1.12373e-27
8.38846e-27
)
;

boundaryField
{
    boundary
    {
        type            empty;
    }
    inlet
    {
        type            fixedValue;
        value           nonuniform 0();
    }
    outlet
    {
        type            zeroGradient;
    }
    procBoundary3to1
    {
        type            processor;
        value           uniform 6.15706e-26;
    }
    procBoundary3to2
    {
        type            processor;
        value           uniform 2.00372e-46;
    }
}


// ************************************************************************* //
