/*--------------------------------*- C++ -*----------------------------------*\
  =========                 |
  \\      /  F ield         | OpenFOAM: The Open Source CFD Toolbox
   \\    /   O peration     | Website:  https://openfoam.org
    \\  /    A nd           | Version:  7
     \\/     M anipulation  |
\*---------------------------------------------------------------------------*/
FoamFile
{
    version     2.0;
    format      ascii;
    class       volScalarField;
    location    "9e-05";
    object      OH;
}
// * * * * * * * * * * * * * * * * * * * * * * * * * * * * * * * * * * * * * //

dimensions      [0 0 0 0 0 0 0];

internalField   nonuniform List<scalar> 
126
(
5.6547e-47
5.65244e-47
5.65098e-47
5.65114e-47
5.65258e-47
5.65456e-47
5.6565e-47
5.65809e-47
5.65927e-47
5.66008e-47
5.66061e-47
5.66095e-47
5.66117e-47
5.6613e-47
5.66139e-47
5.66144e-47
5.66147e-47
5.66147e-47
5.66146e-47
5.66143e-47
5.66138e-47
5.66131e-47
5.66122e-47
5.6611e-47
5.66097e-47
5.6608e-47
5.66061e-47
5.66039e-47
5.66013e-47
5.65985e-47
5.65953e-47
5.65917e-47
5.65877e-47
5.65834e-47
5.65786e-47
5.65734e-47
5.65677e-47
5.65615e-47
5.65548e-47
5.65476e-47
5.65398e-47
5.65315e-47
5.65225e-47
5.65129e-47
5.65027e-47
5.64918e-47
5.64802e-47
5.64679e-47
5.64548e-47
5.6441e-47
5.64263e-47
5.64109e-47
5.63945e-47
5.63774e-47
5.63593e-47
5.63403e-47
5.63203e-47
5.62994e-47
5.62774e-47
5.62545e-47
5.62305e-47
5.62055e-47
5.61793e-47
5.61521e-47
5.61237e-47
5.60942e-47
5.60636e-47
5.60317e-47
5.59987e-47
5.59645e-47
5.5929e-47
5.58924e-47
5.58544e-47
5.58153e-47
5.57749e-47
5.57333e-47
5.56904e-47
5.56462e-47
5.56008e-47
5.55541e-47
5.55062e-47
5.54571e-47
5.54068e-47
5.53552e-47
5.53025e-47
5.52486e-47
5.51935e-47
5.51373e-47
5.508e-47
5.50216e-47
5.49622e-47
5.49017e-47
5.48403e-47
5.47779e-47
5.47146e-47
5.46504e-47
5.45854e-47
5.45196e-47
5.44531e-47
5.43859e-47
5.43189e-47
5.42607e-47
5.42985e-47
5.53363e-47
6.66528e-47
1.82629e-46
1.35407e-45
1.30666e-44
1.29052e-43
1.26701e-42
1.23323e-41
1.18992e-40
1.13817e-39
1.07888e-38
1.01278e-37
9.40465e-37
8.62587e-36
7.80058e-35
6.94235e-34
6.06989e-33
5.20618e-32
4.37593e-31
3.60234e-30
2.90416e-29
2.29412e-28
1.77878e-27
)
;

boundaryField
{
    boundary
    {
        type            empty;
    }
    inlet
    {
        type            fixedValue;
        value           nonuniform 0();
    }
    outlet
    {
        type            zeroGradient;
    }
    procBoundary3to1
    {
        type            processor;
        value           uniform 1.36386e-26;
    }
    procBoundary3to2
    {
        type            processor;
        value           uniform 5.65663e-47;
    }
}


// ************************************************************************* //
