/*--------------------------------*- C++ -*----------------------------------*\
  =========                 |
  \\      /  F ield         | OpenFOAM: The Open Source CFD Toolbox
   \\    /   O peration     | Website:  https://openfoam.org
    \\  /    A nd           | Version:  7
     \\/     M anipulation  |
\*---------------------------------------------------------------------------*/
FoamFile
{
    version     2.0;
    format      ascii;
    class       volScalarField;
    location    "9e-05";
    object      p;
}
// * * * * * * * * * * * * * * * * * * * * * * * * * * * * * * * * * * * * * //

dimensions      [1 -1 -2 0 0 0 0];

internalField   nonuniform List<scalar> 
126
(
102875
102875
102875
102874
102874
102874
102874
102874
102874
102873
102873
102873
102873
102873
102873
102873
102872
102872
102872
102872
102872
102872
102872
102872
102872
102872
102871
102871
102871
102871
102871
102871
102871
102871
102871
102871
102871
102871
102871
102871
102871
102871
102871
102871
102871
102871
102871
102871
102871
102871
102871
102871
102871
102871
102871
102871
102871
102871
102871
102871
102871
102871
102872
102872
102872
102872
102872
102872
102872
102872
102872
102873
102873
102873
102873
102873
102873
102873
102874
102874
102874
102874
102874
102874
102875
102875
102875
102875
102876
102876
102876
102876
102876
102877
102877
102877
102877
102878
102878
102878
102879
102879
102879
102879
102880
102880
102880
102881
102881
102881
102882
102882
102882
102883
102883
102884
102884
102884
102885
102885
102885
102886
102886
102886
102887
102887
)
;

boundaryField
{
    boundary
    {
        type            empty;
    }
    inlet
    {
        type            zeroGradient;
    }
    outlet
    {
        type            waveTransmissive;
        gamma           1.4;
        value           nonuniform 0();
    }
    procBoundary3to1
    {
        type            processor;
        value           uniform 102888;
    }
    procBoundary3to2
    {
        type            processor;
        value           uniform 102875;
    }
}


// ************************************************************************* //
