/*--------------------------------*- C++ -*----------------------------------*\
  =========                 |
  \\      /  F ield         | OpenFOAM: The Open Source CFD Toolbox
   \\    /   O peration     | Website:  https://openfoam.org
    \\  /    A nd           | Version:  7
     \\/     M anipulation  |
\*---------------------------------------------------------------------------*/
FoamFile
{
    version     2.0;
    format      ascii;
    class       surfaceScalarField;
    location    "9e-05";
    object      phi;
}
// * * * * * * * * * * * * * * * * * * * * * * * * * * * * * * * * * * * * * //

dimensions      [1 0 -1 0 0 0 0];

internalField   nonuniform List<scalar> 
125
(
6.82727e-06
6.82564e-06
6.82402e-06
6.82239e-06
6.82076e-06
6.81913e-06
6.8175e-06
6.81588e-06
6.81426e-06
6.81265e-06
6.81104e-06
6.80944e-06
6.80785e-06
6.80627e-06
6.80469e-06
6.80312e-06
6.80157e-06
6.80002e-06
6.79848e-06
6.79696e-06
6.79545e-06
6.79395e-06
6.79246e-06
6.79099e-06
6.78954e-06
6.7881e-06
6.78667e-06
6.78527e-06
6.78388e-06
6.78251e-06
6.78115e-06
6.77982e-06
6.77851e-06
6.77722e-06
6.77595e-06
6.7747e-06
6.77348e-06
6.77228e-06
6.7711e-06
6.76995e-06
6.76882e-06
6.76772e-06
6.76664e-06
6.76559e-06
6.76457e-06
6.76358e-06
6.76261e-06
6.76167e-06
6.76076e-06
6.75988e-06
6.75903e-06
6.75821e-06
6.75741e-06
6.75665e-06
6.75592e-06
6.75522e-06
6.75455e-06
6.7539e-06
6.75329e-06
6.75271e-06
6.75216e-06
6.75164e-06
6.75115e-06
6.75069e-06
6.75025e-06
6.74985e-06
6.74947e-06
6.74913e-06
6.74881e-06
6.74851e-06
6.74824e-06
6.748e-06
6.74778e-06
6.74758e-06
6.74741e-06
6.74726e-06
6.74713e-06
6.74702e-06
6.74692e-06
6.74685e-06
6.74679e-06
6.74674e-06
6.74671e-06
6.74669e-06
6.74668e-06
6.74669e-06
6.7467e-06
6.74672e-06
6.74674e-06
6.74677e-06
6.7468e-06
6.74684e-06
6.74687e-06
6.74691e-06
6.74694e-06
6.74697e-06
6.747e-06
6.74702e-06
6.74704e-06
6.74705e-06
6.74706e-06
6.74706e-06
6.74705e-06
6.74703e-06
6.747e-06
6.74696e-06
6.74691e-06
6.74685e-06
6.74678e-06
6.74669e-06
6.7466e-06
6.7465e-06
6.74638e-06
6.74626e-06
6.74612e-06
6.74597e-06
6.74582e-06
6.74565e-06
6.74547e-06
6.74528e-06
6.74509e-06
6.74488e-06
6.74466e-06
6.74444e-06
6.7442e-06
)
;

boundaryField
{
    boundary
    {
        type            empty;
        value           nonuniform 0();
    }
    inlet
    {
        type            calculated;
        value           nonuniform 0();
    }
    outlet
    {
        type            calculated;
        value           nonuniform 0();
    }
    procBoundary3to1
    {
        type            processor;
        value           uniform 6.74396e-06;
    }
    procBoundary3to2
    {
        type            processor;
        value           uniform -6.82889e-06;
    }
}


// ************************************************************************* //
