/*--------------------------------*- C++ -*----------------------------------*\
  =========                 |
  \\      /  F ield         | OpenFOAM: The Open Source CFD Toolbox
   \\    /   O peration     | Website:  https://openfoam.org
    \\  /    A nd           | Version:  7
     \\/     M anipulation  |
\*---------------------------------------------------------------------------*/
FoamFile
{
    version     2.0;
    format      ascii;
    class       volScalarField;
    location    "9e-05";
    object      Qdot;
}
// * * * * * * * * * * * * * * * * * * * * * * * * * * * * * * * * * * * * * //

dimensions      [1 -1 -3 0 0 0 0];

internalField   nonuniform List<scalar> 
126
(
-2.49899e-27
-2.49886e-27
-2.49883e-27
-2.4989e-27
-2.49905e-27
-2.49922e-27
-2.49938e-27
-2.49952e-27
-2.49964e-27
-2.49973e-27
-2.4998e-27
-2.49986e-27
-2.49992e-27
-2.49998e-27
-2.50003e-27
-2.50008e-27
-2.50013e-27
-2.50018e-27
-2.50023e-27
-2.50027e-27
-2.50032e-27
-2.50036e-27
-2.5004e-27
-2.50043e-27
-2.50046e-27
-2.50049e-27
-2.50051e-27
-2.50053e-27
-2.50054e-27
-2.50054e-27
-2.50054e-27
-2.50053e-27
-2.50051e-27
-2.50048e-27
-2.50045e-27
-2.5004e-27
-2.50034e-27
-2.50027e-27
-2.50018e-27
-2.50009e-27
-2.49998e-27
-2.49985e-27
-2.49971e-27
-2.49955e-27
-2.49938e-27
-2.49918e-27
-2.49897e-27
-2.49874e-27
-2.49849e-27
-2.49821e-27
-2.49791e-27
-2.49759e-27
-2.49724e-27
-2.49687e-27
-2.49647e-27
-2.49604e-27
-2.49559e-27
-2.4951e-27
-2.49459e-27
-2.49404e-27
-2.49346e-27
-2.49285e-27
-2.49221e-27
-2.49153e-27
-2.49081e-27
-2.49006e-27
-2.48928e-27
-2.48845e-27
-2.48759e-27
-2.48669e-27
-2.48575e-27
-2.48477e-27
-2.48375e-27
-2.48269e-27
-2.48159e-27
-2.48045e-27
-2.47926e-27
-2.47804e-27
-2.47678e-27
-2.47547e-27
-2.47412e-27
-2.47274e-27
-2.47131e-27
-2.46984e-27
-2.46833e-27
-2.46679e-27
-2.46521e-27
-2.46359e-27
-2.46193e-27
-2.46024e-27
-2.45851e-27
-2.45676e-27
-2.45497e-27
-2.45315e-27
-2.4513e-27
-2.44942e-27
-2.44752e-27
-2.44559e-27
-2.44364e-27
-2.44167e-27
-2.43968e-27
-2.43767e-27
-2.43565e-27
-2.43361e-27
-2.43155e-27
-2.42948e-27
-2.42736e-27
-2.42489e-27
-2.42002e-27
-2.39771e-27
-2.24842e-27
-1.17078e-27
6.72146e-27
6.48398e-26
4.94658e-25
3.68612e-24
2.7469e-23
2.05218e-22
1.53614e-21
1.15054e-20
8.60758e-20
6.42015e-19
4.76488e-18
3.51245e-17
2.56771e-16
1.85977e-15
)
;

boundaryField
{
    boundary
    {
        type            empty;
    }
    inlet
    {
        type            calculated;
        value           nonuniform 0();
    }
    outlet
    {
        type            calculated;
        value           nonuniform 0();
    }
    procBoundary3to1
    {
        type            processor;
        value           uniform 0;
    }
    procBoundary3to2
    {
        type            processor;
        value           uniform 0;
    }
}


// ************************************************************************* //
