/*--------------------------------*- C++ -*----------------------------------*\
  =========                 |
  \\      /  F ield         | OpenFOAM: The Open Source CFD Toolbox
   \\    /   O peration     | Website:  https://openfoam.org
    \\  /    A nd           | Version:  7
     \\/     M anipulation  |
\*---------------------------------------------------------------------------*/
FoamFile
{
    version     2.0;
    format      ascii;
    class       volScalarField;
    location    "9e-05";
    object      T;
}
// * * * * * * * * * * * * * * * * * * * * * * * * * * * * * * * * * * * * * //

dimensions      [0 0 0 1 0 0 0];

internalField   nonuniform List<scalar> 
126
(
301.306
301.306
301.306
301.306
301.306
301.307
301.307
301.307
301.307
301.307
301.308
301.308
301.308
301.308
301.308
301.308
301.308
301.309
301.309
301.309
301.309
301.309
301.309
301.309
301.309
301.309
301.31
301.31
301.31
301.31
301.31
301.31
301.31
301.31
301.31
301.31
301.31
301.31
301.31
301.309
301.309
301.309
301.309
301.309
301.309
301.308
301.308
301.308
301.308
301.307
301.307
301.306
301.306
301.305
301.305
301.304
301.304
301.303
301.302
301.302
301.301
301.3
301.299
301.298
301.297
301.296
301.295
301.294
301.293
301.292
301.29
301.289
301.288
301.286
301.285
301.283
301.282
301.28
301.278
301.276
301.274
301.273
301.271
301.269
301.267
301.264
301.262
301.26
301.258
301.255
301.253
301.251
301.248
301.246
301.243
301.24
301.238
301.235
301.232
301.23
301.227
301.224
301.221
301.218
301.216
301.213
301.21
301.207
301.204
301.201
301.198
301.195
301.192
301.189
301.186
301.183
301.18
301.177
301.174
301.171
301.167
301.164
301.161
301.158
301.155
301.151
)
;

boundaryField
{
    boundary
    {
        type            empty;
    }
    inlet
    {
        type            fixedValue;
        value           nonuniform 0();
    }
    outlet
    {
        type            zeroGradient;
    }
    procBoundary3to1
    {
        type            processor;
        value           uniform 301.148;
    }
    procBoundary3to2
    {
        type            processor;
        value           uniform 301.306;
    }
}


// ************************************************************************* //
