/*--------------------------------*- C++ -*----------------------------------*\
  =========                 |
  \\      /  F ield         | OpenFOAM: The Open Source CFD Toolbox
   \\    /   O peration     | Website:  https://openfoam.org
    \\  /    A nd           | Version:  7
     \\/     M anipulation  |
\*---------------------------------------------------------------------------*/
FoamFile
{
    version     2.0;
    format      ascii;
    class       volVectorField;
    location    "9e-05";
    object      U;
}
// * * * * * * * * * * * * * * * * * * * * * * * * * * * * * * * * * * * * * //

dimensions      [0 1 -1 0 0 0 0];

internalField   nonuniform List<vector> 
126
(
(2.33011 0 0)
(2.32958 0 0)
(2.32905 0 0)
(2.3285 0 0)
(2.32792 0 0)
(2.32738 0 0)
(2.32683 0 0)
(2.32629 0 0)
(2.32574 0 0)
(2.32519 0 0)
(2.32465 0 0)
(2.32411 0 0)
(2.32357 0 0)
(2.32303 0 0)
(2.32249 0 0)
(2.32196 0 0)
(2.32143 0 0)
(2.32091 0 0)
(2.32039 0 0)
(2.31987 0 0)
(2.31935 0 0)
(2.31884 0 0)
(2.31834 0 0)
(2.31783 0 0)
(2.31734 0 0)
(2.31685 0 0)
(2.31636 0 0)
(2.31588 0 0)
(2.3154 0 0)
(2.31494 0 0)
(2.31448 0 0)
(2.31402 0 0)
(2.31356 0 0)
(2.31312 0 0)
(2.31269 0 0)
(2.31226 0 0)
(2.31184 0 0)
(2.31143 0 0)
(2.31102 0 0)
(2.31062 0 0)
(2.31023 0 0)
(2.30985 0 0)
(2.30948 0 0)
(2.30911 0 0)
(2.30876 0 0)
(2.30842 0 0)
(2.30808 0 0)
(2.30775 0 0)
(2.30743 0 0)
(2.30712 0 0)
(2.30682 0 0)
(2.30654 0 0)
(2.30625 0 0)
(2.30598 0 0)
(2.30572 0 0)
(2.30548 0 0)
(2.30523 0 0)
(2.305 0 0)
(2.30478 0 0)
(2.30457 0 0)
(2.30437 0 0)
(2.30418 0 0)
(2.304 0 0)
(2.30383 0 0)
(2.30366 0 0)
(2.30351 0 0)
(2.30337 0 0)
(2.30324 0 0)
(2.30311 0 0)
(2.30299 0 0)
(2.30288 0 0)
(2.30278 0 0)
(2.30269 0 0)
(2.3026 0 0)
(2.30253 0 0)
(2.30246 0 0)
(2.30239 0 0)
(2.30234 0 0)
(2.30228 0 0)
(2.30224 0 0)
(2.30219 0 0)
(2.30216 0 0)
(2.30213 0 0)
(2.3021 0 0)
(2.30207 0 0)
(2.30205 0 0)
(2.30203 0 0)
(2.30201 0 0)
(2.302 0 0)
(2.30198 0 0)
(2.30197 0 0)
(2.30196 0 0)
(2.30195 0 0)
(2.30193 0 0)
(2.30192 0 0)
(2.30191 0 0)
(2.30189 0 0)
(2.30187 0 0)
(2.30185 0 0)
(2.30183 0 0)
(2.30181 0 0)
(2.30178 0 0)
(2.30175 0 0)
(2.30171 0 0)
(2.30167 0 0)
(2.30164 0 0)
(2.30159 0 0)
(2.30154 0 0)
(2.30149 0 0)
(2.30143 0 0)
(2.30137 0 0)
(2.3013 0 0)
(2.30124 0 0)
(2.30116 0 0)
(2.30109 0 0)
(2.30101 0 0)
(2.30092 0 0)
(2.30084 0 0)
(2.30075 0 0)
(2.30065 0 0)
(2.30055 0 0)
(2.30044 0 0)
(2.30034 0 0)
(2.30023 0 0)
(2.30012 0 0)
(2.3 0 0)
)
;

boundaryField
{
    boundary
    {
        type            empty;
    }
    inlet
    {
        type            fixedValue;
        value           nonuniform 0();
    }
    outlet
    {
        type            zeroGradient;
    }
    procBoundary3to1
    {
        type            processor;
        value           uniform (2.29986 0 0);
    }
    procBoundary3to2
    {
        type            processor;
        value           uniform (2.33068 0 0);
    }
}


// ************************************************************************* //
