/*--------------------------------*- C++ -*----------------------------------*\
  =========                 |
  \\      /  F ield         | OpenFOAM: The Open Source CFD Toolbox
   \\    /   O peration     | Website:  https://openfoam.org
    \\  /    A nd           | Version:  7
     \\/     M anipulation  |
\*---------------------------------------------------------------------------*/
FoamFile
{
    version     2.0;
    format      ascii;
    class       volScalarField;
    location    "0.00094";
    object      HO2;
}
// * * * * * * * * * * * * * * * * * * * * * * * * * * * * * * * * * * * * * //

dimensions      [0 0 0 0 0 0 0];

internalField   nonuniform List<scalar> 
124
(
2.78106e-06
2.76547e-06
2.7502e-06
2.73526e-06
2.72063e-06
2.7063e-06
2.69228e-06
2.67854e-06
2.66508e-06
2.6519e-06
2.63899e-06
2.62633e-06
2.61393e-06
2.60178e-06
2.58987e-06
2.57819e-06
2.56674e-06
2.55551e-06
2.5445e-06
2.53369e-06
2.52309e-06
2.51269e-06
2.50248e-06
2.49246e-06
2.48262e-06
2.47296e-06
2.46347e-06
2.45414e-06
2.44498e-06
2.43598e-06
2.42713e-06
2.41843e-06
2.40987e-06
2.40145e-06
2.39318e-06
2.38503e-06
2.37701e-06
2.36912e-06
2.36136e-06
2.35371e-06
2.34618e-06
2.33876e-06
2.33145e-06
2.32425e-06
2.31716e-06
2.31017e-06
2.30328e-06
2.29649e-06
2.2898e-06
2.28321e-06
2.2767e-06
2.27029e-06
2.26397e-06
2.25774e-06
2.25159e-06
2.24554e-06
2.23956e-06
2.23367e-06
2.22786e-06
2.22213e-06
2.21647e-06
2.2109e-06
2.2054e-06
2.19998e-06
2.19463e-06
2.18936e-06
2.18415e-06
2.17902e-06
2.17396e-06
2.16896e-06
2.16403e-06
2.15917e-06
2.15438e-06
2.14964e-06
2.14497e-06
2.14036e-06
2.13582e-06
2.13133e-06
2.1269e-06
2.12253e-06
2.11822e-06
2.11396e-06
2.10976e-06
2.10561e-06
2.10152e-06
2.09748e-06
2.09349e-06
2.08955e-06
2.08566e-06
2.08182e-06
2.07803e-06
2.07429e-06
2.0706e-06
2.06695e-06
2.06335e-06
2.05979e-06
2.05628e-06
2.0528e-06
2.04937e-06
2.04599e-06
2.04264e-06
2.03933e-06
2.03606e-06
2.03282e-06
2.02962e-06
2.02645e-06
2.02332e-06
2.02021e-06
2.01714e-06
2.0141e-06
2.01108e-06
2.00808e-06
2.00512e-06
2.00217e-06
1.99924e-06
1.99634e-06
1.99346e-06
1.99061e-06
1.98779e-06
1.98502e-06
1.98234e-06
1.97981e-06
1.9776e-06
1.97603e-06
)
;

boundaryField
{
    boundary
    {
        type            empty;
    }
    inlet
    {
        type            fixedValue;
        value           nonuniform 0();
    }
    outlet
    {
        type            zeroGradient;
    }
    procBoundary0to1
    {
        type            processor;
        value           uniform 2.79696e-06;
    }
}


// ************************************************************************* //
