/*--------------------------------*- C++ -*----------------------------------*\
  =========                 |
  \\      /  F ield         | OpenFOAM: The Open Source CFD Toolbox
   \\    /   O peration     | Website:  https://openfoam.org
    \\  /    A nd           | Version:  7
     \\/     M anipulation  |
\*---------------------------------------------------------------------------*/
FoamFile
{
    version     2.0;
    format      ascii;
    class       volVectorField;
    location    "0.00094";
    object      U;
}
// * * * * * * * * * * * * * * * * * * * * * * * * * * * * * * * * * * * * * //

dimensions      [0 1 -1 0 0 0 0];

internalField   nonuniform List<vector> 
124
(
(15.7993 0 0)
(15.8094 0 0)
(15.8193 0 0)
(15.8291 0 0)
(15.8388 0 0)
(15.8483 0 0)
(15.8578 0 0)
(15.8671 0 0)
(15.8762 0 0)
(15.8853 0 0)
(15.8942 0 0)
(15.9031 0 0)
(15.9118 0 0)
(15.9204 0 0)
(15.9289 0 0)
(15.9373 0 0)
(15.9456 0 0)
(15.9538 0 0)
(15.9619 0 0)
(15.9699 0 0)
(15.9778 0 0)
(15.9856 0 0)
(15.9934 0 0)
(16.001 0 0)
(16.0085 0 0)
(16.016 0 0)
(16.0234 0 0)
(16.0307 0 0)
(16.0379 0 0)
(16.045 0 0)
(16.0521 0 0)
(16.0591 0 0)
(16.066 0 0)
(16.0728 0 0)
(16.0796 0 0)
(16.0862 0 0)
(16.0928 0 0)
(16.0994 0 0)
(16.1059 0 0)
(16.1123 0 0)
(16.1186 0 0)
(16.1249 0 0)
(16.1311 0 0)
(16.1372 0 0)
(16.1433 0 0)
(16.1493 0 0)
(16.1553 0 0)
(16.1612 0 0)
(16.1671 0 0)
(16.1728 0 0)
(16.1786 0 0)
(16.1843 0 0)
(16.1899 0 0)
(16.1954 0 0)
(16.201 0 0)
(16.2064 0 0)
(16.2118 0 0)
(16.2172 0 0)
(16.2225 0 0)
(16.2277 0 0)
(16.2329 0 0)
(16.2381 0 0)
(16.2432 0 0)
(16.2483 0 0)
(16.2533 0 0)
(16.2582 0 0)
(16.2632 0 0)
(16.268 0 0)
(16.2729 0 0)
(16.2777 0 0)
(16.2824 0 0)
(16.2871 0 0)
(16.2918 0 0)
(16.2964 0 0)
(16.301 0 0)
(16.3055 0 0)
(16.31 0 0)
(16.3145 0 0)
(16.3189 0 0)
(16.3233 0 0)
(16.3276 0 0)
(16.3319 0 0)
(16.3362 0 0)
(16.3404 0 0)
(16.3446 0 0)
(16.3488 0 0)
(16.3529 0 0)
(16.357 0 0)
(16.361 0 0)
(16.3651 0 0)
(16.369 0 0)
(16.373 0 0)
(16.3769 0 0)
(16.3808 0 0)
(16.3846 0 0)
(16.3885 0 0)
(16.3923 0 0)
(16.396 0 0)
(16.3997 0 0)
(16.4034 0 0)
(16.4071 0 0)
(16.4108 0 0)
(16.4144 0 0)
(16.4179 0 0)
(16.4215 0 0)
(16.425 0 0)
(16.4285 0 0)
(16.432 0 0)
(16.4354 0 0)
(16.4389 0 0)
(16.4423 0 0)
(16.4456 0 0)
(16.449 0 0)
(16.4523 0 0)
(16.4556 0 0)
(16.4589 0 0)
(16.4622 0 0)
(16.4655 0 0)
(16.4688 0 0)
(16.4721 0 0)
(16.4753 0 0)
(16.4784 0 0)
(16.4811 0 0)
(16.4829 0 0)
)
;

boundaryField
{
    boundary
    {
        type            empty;
    }
    inlet
    {
        type            fixedValue;
        value           nonuniform 0();
    }
    outlet
    {
        type            zeroGradient;
    }
    procBoundary0to1
    {
        type            processor;
        value           uniform (15.7892 0 0);
    }
}


// ************************************************************************* //
