/*--------------------------------*- C++ -*----------------------------------*\
  =========                 |
  \\      /  F ield         | OpenFOAM: The Open Source CFD Toolbox
   \\    /   O peration     | Website:  https://openfoam.org
    \\  /    A nd           | Version:  7
     \\/     M anipulation  |
\*---------------------------------------------------------------------------*/
FoamFile
{
    version     2.0;
    format      ascii;
    class       volScalarField;
    location    "0.0001";
    object      cellCpuTimes;
}
// * * * * * * * * * * * * * * * * * * * * * * * * * * * * * * * * * * * * * //

dimensions      [0 0 0 0 0 0 0];

internalField   nonuniform List<scalar> 
500
(
8.7e-05
5.2e-05
5e-05
4.9e-05
4.8e-05
4.9e-05
4.9e-05
4.9e-05
4.8e-05
4.7e-05
4.9e-05
4.7e-05
4.8e-05
4.7e-05
4.8e-05
4.8e-05
4.8e-05
4.8e-05
4.8e-05
4.9e-05
4.6e-05
4.8e-05
4.8e-05
4.7e-05
4.7e-05
4.8e-05
4.8e-05
4.8e-05
4.7e-05
4.8e-05
4.8e-05
4.8e-05
4.9e-05
4.7e-05
4.8e-05
4.8e-05
4.8e-05
4.8e-05
4.7e-05
4.7e-05
4.9e-05
4.7e-05
4.6e-05
4.7e-05
4.8e-05
4.8e-05
4.8e-05
4.7e-05
4.8e-05
4.7e-05
4.8e-05
4.7e-05
4.8e-05
4.8e-05
4.6e-05
4.9e-05
4.8e-05
4.8e-05
4.8e-05
4.7e-05
4.8e-05
4.8e-05
4.8e-05
4.7e-05
4.8e-05
4.8e-05
4.8e-05
4.9e-05
4.9e-05
4.8e-05
4.7e-05
4.8e-05
4.8e-05
4.8e-05
4.6e-05
4.7e-05
5.3e-05
4.9e-05
4.8e-05
4.7e-05
4.6e-05
4.6e-05
4.8e-05
4.8e-05
4.6e-05
4.7e-05
4.7e-05
4.8e-05
4.9e-05
4.7e-05
4.8e-05
4.8e-05
4.7e-05
4.8e-05
4.8e-05
4.6e-05
4.8e-05
4.8e-05
4.8e-05
4.8e-05
4.8e-05
4.8e-05
4.6e-05
4.8e-05
4.8e-05
4.8e-05
4.7e-05
4.7e-05
4.8e-05
4.8e-05
4.8e-05
4.8e-05
4.8e-05
4.8e-05
4.6e-05
4.7e-05
4.8e-05
4.8e-05
4.8e-05
4.8e-05
4.8e-05
4.8e-05
4.8e-05
4.8e-05
4.8e-05
8.5e-05
5.5e-05
4.8e-05
4.7e-05
4.8e-05
4.8e-05
4.8e-05
4.7e-05
4.7e-05
4.7e-05
4.7e-05
4.7e-05
4.7e-05
4.7e-05
4.7e-05
4.7e-05
4.7e-05
4.6e-05
4.7e-05
4.7e-05
4.7e-05
4.7e-05
4.7e-05
4.6e-05
4.6e-05
4.7e-05
4.7e-05
4.7e-05
4.6e-05
4.6e-05
4.6e-05
4.6e-05
4.6e-05
4.7e-05
4.6e-05
4.6e-05
4.7e-05
4.6e-05
4.8e-05
4.6e-05
4.7e-05
4.7e-05
4.7e-05
4.7e-05
4.7e-05
4.7e-05
4.6e-05
4.7e-05
4.7e-05
4.7e-05
4.7e-05
4.6e-05
4.6e-05
4.7e-05
4.7e-05
4.6e-05
4.6e-05
4.7e-05
4.6e-05
4.7e-05
4.7e-05
4.7e-05
4.6e-05
4.7e-05
4.6e-05
4.7e-05
4.6e-05
4.7e-05
4.6e-05
4.7e-05
4.7e-05
4.7e-05
4.7e-05
4.6e-05
4.7e-05
4.6e-05
4.7e-05
4.7e-05
5.2e-05
4.7e-05
4.7e-05
4.7e-05
4.7e-05
4.7e-05
4.6e-05
4.7e-05
4.6e-05
4.7e-05
4.6e-05
4.7e-05
4.7e-05
4.7e-05
4.6e-05
4.6e-05
4.7e-05
4.6e-05
4.7e-05
4.6e-05
4.7e-05
4.6e-05
4.7e-05
4.7e-05
4.6e-05
4.7e-05
4.7e-05
4.7e-05
4.6e-05
4.6e-05
4.7e-05
4.6e-05
4.7e-05
4.6e-05
4.7e-05
4.7e-05
4.6e-05
4.6e-05
4.6e-05
4.7e-05
4.7e-05
4.6e-05
4.6e-05
4.6e-05
4.6e-05
4.7e-05
4.6e-05
4.6e-05
4.7e-05
4.7e-05
4.7e-05
4.6e-05
4.7e-05
4.6e-05
4.6e-05
4.6e-05
4.7e-05
4.6e-05
4.6e-05
4.6e-05
4.7e-05
4.7e-05
4.6e-05
4.6e-05
4.7e-05
4.8e-05
4.6e-05
4.7e-05
4.6e-05
4.6e-05
5.7e-05
6.5e-05
7.7e-05
0.000116
0.000131
0.000154
0.000172
0.000164
0.000174
0.000184
0.000241
0.000255
0.000273
0.000277
0.000259
0.000226
0.000221
0.000228
0.000257
0.000222
0.000192
0.000179
0.000171
0.000164
0.000156
0.000153
0.000149
0.000149
0.000152
0.00015
0.000146
0.000185
0.000141
0.000132
0.000134
0.000131
0.000132
0.000131
0.000127
0.000127
0.000125
0.000123
0.000134
0.000129
0.000129
0.000129
0.000129
0.000129
0.000127
0.000129
0.000128
0.000129
0.000132
0.000133
0.000133
0.000127
0.000129
0.000128
0.000127
0.000139
0.000127
0.000129
0.000129
0.00013
0.000131
0.000131
0.000131
0.000131
0.00013
0.000131
0.000132
0.000137
0.000161
0.000162
0.000161
0.000128
0.000128
0.00013
0.000124
0.000123
0.00012
0.00012
0.000121
0.000124
0.000124
0.000124
0.000126
0.000128
0.000119
0.000122
0.000119
0.000114
0.000117
0.000121
0.000123
0.000122
0.000125
0.000119
0.00012
0.000119
0.000105
0.000103
0.000105
0.000148
0.00011
0.000106
0.000107
0.000103
0.000101
9.4e-05
9.5e-05
9.5e-05
9e-05
8.9e-05
8.3e-05
8.8e-05
8.9e-05
8.7e-05
8.6e-05
8.2e-05
8.4e-05
8.4e-05
8.1e-05
7.7e-05
7.6e-05
7.5e-05
6.9e-05
7.1e-05
6.6e-05
6.4e-05
6.2e-05
7e-05
6.2e-05
6.5e-05
6.2e-05
6e-05
6e-05
6e-05
6e-05
5.9e-05
6e-05
6.4e-05
6.4e-05
6.6e-05
6.3e-05
6.4e-05
6.3e-05
6.4e-05
6.3e-05
6.4e-05
6.3e-05
6.9e-05
6.4e-05
6.3e-05
6.3e-05
6.3e-05
6.3e-05
6.3e-05
6.3e-05
6.4e-05
6.3e-05
6.4e-05
6.3e-05
6.3e-05
6.4e-05
6.3e-05
6.4e-05
6.3e-05
6.4e-05
6.4e-05
6.4e-05
6.3e-05
6.3e-05
6.3e-05
6.4e-05
6.3e-05
6.3e-05
6.3e-05
6.4e-05
6.3e-05
6.4e-05
6.3e-05
6.3e-05
6.3e-05
6.3e-05
6.4e-05
6.3e-05
6.4e-05
6e-05
6e-05
6e-05
5.9e-05
6e-05
6e-05
5.9e-05
6e-05
5.9e-05
6.4e-05
6.5e-05
6.3e-05
6.3e-05
6.4e-05
6.3e-05
6.3e-05
6.4e-05
6.3e-05
6.4e-05
6.4e-05
6.5e-05
6.4e-05
6.4e-05
6.4e-05
6.4e-05
7e-05
6.4e-05
6.4e-05
6.4e-05
6.4e-05
6.4e-05
6e-05
6.1e-05
6.1e-05
6e-05
6e-05
6e-05
6e-05
6.3e-05
)
;

boundaryField
{
    boundary
    {
        type            empty;
    }
    inlet
    {
        type            calculated;
        value           uniform 0;
    }
    outlet
    {
        type            calculated;
        value           uniform 0;
    }
}


// ************************************************************************* //
