/*--------------------------------*- C++ -*----------------------------------*\
  =========                 |
  \\      /  F ield         | OpenFOAM: The Open Source CFD Toolbox
   \\    /   O peration     | Website:  https://openfoam.org
    \\  /    A nd           | Version:  7
     \\/     M anipulation  |
\*---------------------------------------------------------------------------*/
FoamFile
{
    version     2.0;
    format      ascii;
    class       volScalarField;
    location    "0.0001";
    object      H2O2;
}
// * * * * * * * * * * * * * * * * * * * * * * * * * * * * * * * * * * * * * //

dimensions      [0 0 0 0 0 0 0];

internalField   nonuniform List<scalar> 
500
(
2.00401e-52
6.42558e-52
1.26246e-51
2.02754e-51
2.88452e-51
3.76626e-51
4.60495e-51
5.34581e-51
5.95616e-51
6.42698e-51
6.76841e-51
7.00208e-51
7.15355e-51
7.24687e-51
7.30169e-51
7.33249e-51
7.34907e-51
7.35764e-51
7.36191e-51
7.36396e-51
7.3649e-51
7.36531e-51
7.36548e-51
7.36555e-51
7.36556e-51
7.36555e-51
7.36554e-51
7.36552e-51
7.3655e-51
7.36549e-51
7.36547e-51
7.36545e-51
7.36543e-51
7.36542e-51
7.3654e-51
7.36539e-51
7.36537e-51
7.36536e-51
7.36535e-51
7.36535e-51
7.36534e-51
7.36534e-51
7.36534e-51
7.36534e-51
7.36534e-51
7.36535e-51
7.36536e-51
7.36538e-51
7.36539e-51
7.36541e-51
7.36544e-51
7.36547e-51
7.3655e-51
7.36554e-51
7.36558e-51
7.36563e-51
7.36568e-51
7.36574e-51
7.3658e-51
7.36587e-51
7.36594e-51
7.36602e-51
7.36611e-51
7.3662e-51
7.3663e-51
7.3664e-51
7.36651e-51
7.36663e-51
7.36676e-51
7.36689e-51
7.36703e-51
7.36718e-51
7.36734e-51
7.3675e-51
7.36767e-51
7.36785e-51
7.36804e-51
7.36824e-51
7.36845e-51
7.36866e-51
7.36889e-51
7.36912e-51
7.36937e-51
7.36962e-51
7.36988e-51
7.37015e-51
7.37044e-51
7.37073e-51
7.37103e-51
7.37134e-51
7.37166e-51
7.372e-51
7.37234e-51
7.37269e-51
7.37306e-51
7.37343e-51
7.37381e-51
7.37421e-51
7.37462e-51
7.37503e-51
7.37546e-51
7.3759e-51
7.37635e-51
7.37681e-51
7.37727e-51
7.37775e-51
7.37824e-51
7.37874e-51
7.37926e-51
7.37978e-51
7.38031e-51
7.38084e-51
7.38139e-51
7.38195e-51
7.38252e-51
7.38309e-51
7.38368e-51
7.38426e-51
7.38485e-51
7.38537e-51
7.38566e-51
7.38492e-51
7.38014e-51
7.35988e-51
7.28411e-51
7.14171e-51
7.13333e-51
7.15061e-51
7.18007e-51
7.2171e-51
7.25655e-51
7.29366e-51
7.32517e-51
7.3497e-51
7.36743e-51
7.37947e-51
7.38725e-51
7.39212e-51
7.39512e-51
7.39702e-51
7.39829e-51
7.39921e-51
7.39995e-51
7.4006e-51
7.40119e-51
7.40174e-51
7.40227e-51
7.40277e-51
7.40325e-51
7.4037e-51
7.40412e-51
7.40451e-51
7.40488e-51
7.40521e-51
7.4055e-51
7.40576e-51
7.40597e-51
7.40614e-51
7.40627e-51
7.40634e-51
7.40637e-51
7.40634e-51
7.40625e-51
7.4061e-51
7.40589e-51
7.40562e-51
7.40527e-51
7.40485e-51
7.40435e-51
7.40378e-51
7.40312e-51
7.40238e-51
7.40154e-51
7.40061e-51
7.39959e-51
7.39846e-51
7.39724e-51
7.3959e-51
7.39445e-51
7.39289e-51
7.3912e-51
7.3894e-51
7.38747e-51
7.38541e-51
7.38321e-51
7.38089e-51
7.37842e-51
7.37581e-51
7.37305e-51
7.37014e-51
7.36708e-51
7.36387e-51
7.3605e-51
7.35696e-51
7.35327e-51
7.34941e-51
7.34539e-51
7.34119e-51
7.33683e-51
7.33229e-51
7.32758e-51
7.3227e-51
7.31764e-51
7.31241e-51
7.307e-51
7.30142e-51
7.29566e-51
7.28973e-51
7.28363e-51
7.27735e-51
7.27091e-51
7.2643e-51
7.25752e-51
7.25058e-51
7.24348e-51
7.23623e-51
7.22881e-51
7.22125e-51
7.21355e-51
7.2057e-51
7.19771e-51
7.1896e-51
7.18135e-51
7.17298e-51
7.1645e-51
7.1559e-51
7.1472e-51
7.13845e-51
7.13033e-51
7.13241e-51
7.28688e-51
9.72349e-51
4.62499e-50
5.88261e-49
8.55381e-48
1.24381e-46
1.78985e-45
2.54604e-44
3.57879e-43
4.96919e-42
6.81343e-41
9.22161e-40
1.23143e-38
1.62155e-37
2.10422e-36
2.68895e-35
3.38156e-34
4.18391e-33
5.09914e-32
6.16141e-31
7.57316e-30
9.81603e-29
1.11034e-27
1.22234e-26
1.31819e-25
1.39185e-24
1.43775e-23
1.45171e-22
1.43145e-21
1.37706e-20
1.29105e-19
1.1783e-18
1.04556e-17
9.00787e-17
7.52355e-16
6.08166e-15
4.7491e-14
3.5751e-13
2.58853e-12
1.79805e-11
1.1949e-10
7.5745e-10
4.56563e-09
2.60812e-08
1.40668e-07
7.12305e-07
3.34364e-06
1.40122e-05
4.69675e-05
9.99458e-05
0.000129058
0.000111318
6.15062e-05
2.58464e-05
1.03994e-05
5.42644e-06
4.403e-06
4.65427e-06
5.36183e-06
5.91089e-06
6.31697e-06
6.55871e-06
6.65982e-06
6.65419e-06
6.57277e-06
6.43992e-06
6.27354e-06
6.08625e-06
5.88678e-06
5.68094e-06
5.4726e-06
5.26424e-06
5.05736e-06
4.85284e-06
4.65116e-06
4.45251e-06
4.25695e-06
4.06448e-06
3.8751e-06
3.68887e-06
3.50593e-06
3.32658e-06
3.15648e-06
2.99249e-06
2.8316e-06
2.67419e-06
2.52067e-06
2.3715e-06
2.22713e-06
2.08801e-06
1.95454e-06
1.82705e-06
1.70584e-06
1.59111e-06
1.48297e-06
1.38145e-06
1.28652e-06
1.19806e-06
1.11589e-06
1.03978e-06
9.69468e-07
9.04643e-07
8.44988e-07
7.90171e-07
7.39859e-07
6.93721e-07
6.51437e-07
6.12697e-07
5.77211e-07
5.44704e-07
5.1492e-07
4.87622e-07
4.62592e-07
4.3963e-07
4.18555e-07
3.99201e-07
3.81417e-07
3.65068e-07
3.50029e-07
3.36193e-07
3.23457e-07
3.11733e-07
3.00938e-07
2.91e-07
2.81851e-07
2.73431e-07
2.65685e-07
2.58564e-07
2.52021e-07
2.46015e-07
2.40507e-07
2.35462e-07
2.30846e-07
2.26629e-07
2.22781e-07
2.19276e-07
2.16088e-07
2.13194e-07
2.10571e-07
2.08199e-07
2.06057e-07
2.04128e-07
2.02393e-07
2.00836e-07
1.99434e-07
1.98158e-07
1.97083e-07
1.96102e-07
1.95234e-07
1.94466e-07
1.93788e-07
1.93192e-07
1.92669e-07
1.92212e-07
1.91814e-07
1.91468e-07
1.91168e-07
1.9091e-07
1.90687e-07
1.90495e-07
1.90331e-07
1.9019e-07
1.9007e-07
1.89968e-07
1.89882e-07
1.89808e-07
1.89746e-07
1.89694e-07
1.8965e-07
1.89612e-07
1.89581e-07
1.89554e-07
1.89532e-07
1.89513e-07
1.89497e-07
1.89483e-07
1.89471e-07
1.8946e-07
1.89451e-07
1.89443e-07
1.89436e-07
1.8943e-07
1.89424e-07
1.89418e-07
1.89413e-07
1.89409e-07
1.89404e-07
1.894e-07
1.89396e-07
1.89392e-07
1.89388e-07
1.89384e-07
1.8938e-07
1.89376e-07
1.89373e-07
1.89369e-07
1.89365e-07
1.89362e-07
1.89358e-07
1.89354e-07
1.89351e-07
1.89347e-07
1.89344e-07
1.8934e-07
1.89337e-07
1.89333e-07
1.89329e-07
1.89326e-07
1.89322e-07
1.89319e-07
1.89315e-07
1.89312e-07
1.89308e-07
1.89305e-07
1.89301e-07
1.89298e-07
1.89295e-07
1.89291e-07
1.89288e-07
1.89285e-07
1.89281e-07
1.89278e-07
1.89275e-07
1.89271e-07
1.89268e-07
1.89265e-07
1.89262e-07
1.89258e-07
1.89255e-07
1.89252e-07
1.89249e-07
1.89246e-07
1.89243e-07
1.8924e-07
1.89237e-07
1.89234e-07
1.89232e-07
1.89229e-07
1.89226e-07
1.89223e-07
1.89221e-07
1.89218e-07
1.89215e-07
1.89213e-07
1.8921e-07
1.89208e-07
1.89205e-07
1.89203e-07
1.89201e-07
1.89198e-07
1.89196e-07
1.89194e-07
1.89192e-07
1.89189e-07
1.89187e-07
1.89185e-07
1.89183e-07
1.89181e-07
1.8918e-07
1.89178e-07
1.89176e-07
1.89174e-07
1.89172e-07
1.89171e-07
1.89169e-07
1.89168e-07
1.89166e-07
1.89165e-07
1.89164e-07
1.89163e-07
)
;

boundaryField
{
    boundary
    {
        type            empty;
    }
    inlet
    {
        type            fixedValue;
        value           uniform 0;
    }
    outlet
    {
        type            zeroGradient;
    }
}


// ************************************************************************* //
