/*--------------------------------*- C++ -*----------------------------------*\
  =========                 |
  \\      /  F ield         | OpenFOAM: The Open Source CFD Toolbox
   \\    /   O peration     | Website:  https://openfoam.org
    \\  /    A nd           | Version:  7
     \\/     M anipulation  |
\*---------------------------------------------------------------------------*/
FoamFile
{
    version     2.0;
    format      ascii;
    class       volScalarField;
    location    "0.0001";
    object      HO2;
}
// * * * * * * * * * * * * * * * * * * * * * * * * * * * * * * * * * * * * * //

dimensions      [0 0 0 0 0 0 0];

internalField   nonuniform List<scalar> 
500
(
5.70836e-38
1.3211e-37
2.09447e-37
2.87445e-37
3.6338e-37
4.33956e-37
4.96161e-37
5.47996e-37
5.88806e-37
6.19188e-37
6.40609e-37
6.54944e-37
6.64071e-37
6.69613e-37
6.72829e-37
6.74616e-37
6.7557e-37
6.7606e-37
6.76301e-37
6.76415e-37
6.76466e-37
6.76488e-37
6.76495e-37
6.76497e-37
6.76495e-37
6.76493e-37
6.76489e-37
6.76486e-37
6.76482e-37
6.76479e-37
6.76475e-37
6.76471e-37
6.76467e-37
6.76463e-37
6.76459e-37
6.76455e-37
6.76451e-37
6.76447e-37
6.76443e-37
6.76439e-37
6.76435e-37
6.76431e-37
6.76427e-37
6.76423e-37
6.7642e-37
6.76416e-37
6.76412e-37
6.76409e-37
6.76405e-37
6.76402e-37
6.76399e-37
6.76396e-37
6.76393e-37
6.76391e-37
6.76388e-37
6.76386e-37
6.76384e-37
6.76383e-37
6.76381e-37
6.7638e-37
6.76379e-37
6.76378e-37
6.76378e-37
6.76378e-37
6.76378e-37
6.76378e-37
6.76379e-37
6.7638e-37
6.76382e-37
6.76384e-37
6.76386e-37
6.76389e-37
6.76392e-37
6.76396e-37
6.764e-37
6.76404e-37
6.76409e-37
6.76415e-37
6.7642e-37
6.76427e-37
6.76434e-37
6.76441e-37
6.76449e-37
6.76457e-37
6.76466e-37
6.76475e-37
6.76485e-37
6.76496e-37
6.76507e-37
6.76519e-37
6.76531e-37
6.76544e-37
6.76557e-37
6.76571e-37
6.76586e-37
6.76601e-37
6.76617e-37
6.76633e-37
6.7665e-37
6.76668e-37
6.76686e-37
6.76705e-37
6.76724e-37
6.76744e-37
6.76765e-37
6.76786e-37
6.76808e-37
6.7683e-37
6.76853e-37
6.76877e-37
6.76901e-37
6.76925e-37
6.7695e-37
6.76976e-37
6.77002e-37
6.77028e-37
6.77055e-37
6.77082e-37
6.77109e-37
6.77133e-37
6.77145e-37
6.77108e-37
6.76873e-37
6.75875e-37
6.71942e-37
6.64372e-37
6.64819e-37
6.65784e-37
6.67261e-37
6.69076e-37
6.70987e-37
6.72769e-37
6.74273e-37
6.75437e-37
6.76276e-37
6.76844e-37
6.77209e-37
6.77436e-37
6.77575e-37
6.77662e-37
6.77718e-37
6.77759e-37
6.7779e-37
6.77817e-37
6.7784e-37
6.77861e-37
6.77881e-37
6.77899e-37
6.77915e-37
6.77929e-37
6.77941e-37
6.77952e-37
6.7796e-37
6.77966e-37
6.77969e-37
6.7797e-37
6.77968e-37
6.77962e-37
6.77954e-37
6.77943e-37
6.77927e-37
6.77909e-37
6.77886e-37
6.77859e-37
6.77828e-37
6.77793e-37
6.77753e-37
6.77708e-37
6.77658e-37
6.77602e-37
6.77541e-37
6.77474e-37
6.77401e-37
6.77322e-37
6.77237e-37
6.77145e-37
6.77046e-37
6.76939e-37
6.76826e-37
6.76704e-37
6.76575e-37
6.76438e-37
6.76292e-37
6.76138e-37
6.75975e-37
6.75803e-37
6.75622e-37
6.75432e-37
6.75232e-37
6.75022e-37
6.74802e-37
6.74571e-37
6.74331e-37
6.7408e-37
6.73818e-37
6.73545e-37
6.73262e-37
6.72967e-37
6.72661e-37
6.72344e-37
6.72016e-37
6.71676e-37
6.71325e-37
6.70963e-37
6.70589e-37
6.70203e-37
6.69806e-37
6.69398e-37
6.68978e-37
6.68548e-37
6.68106e-37
6.67653e-37
6.6719e-37
6.66716e-37
6.66231e-37
6.65737e-37
6.65232e-37
6.64718e-37
6.64194e-37
6.63661e-37
6.63119e-37
6.62568e-37
6.6201e-37
6.61443e-37
6.60869e-37
6.60287e-37
6.59699e-37
6.59106e-37
6.58511e-37
6.57945e-37
6.57581e-37
6.58479e-37
6.67104e-37
7.2262e-37
1.06085e-36
3.09075e-36
1.51547e-35
8.61654e-35
5.00005e-34
2.88817e-33
1.65451e-32
9.40462e-32
5.31331e-31
2.98974e-30
1.67892e-29
9.42527e-29
5.29588e-28
2.98025e-27
1.68016e-26
9.48935e-26
5.3698e-25
3.18336e-24
1.83893e-23
1.06205e-22
6.18467e-22
3.63966e-21
2.16771e-20
1.30794e-19
7.99812e-19
4.95389e-18
3.1023e-17
1.95824e-16
1.24071e-15
7.85085e-15
4.93456e-14
3.06395e-13
1.86953e-12
1.11556e-11
6.48101e-11
3.65148e-10
1.98806e-09
1.04268e-08
5.25059e-08
2.53049e-07
1.16173e-06
5.04305e-06
2.04472e-05
7.48656e-05
0.000226543
0.000456436
0.000519736
0.000444269
0.000331019
0.000234157
0.000163924
0.000114418
7.9814e-05
5.71677e-05
3.93755e-05
3.00296e-05
2.38256e-05
1.96782e-05
1.68291e-05
1.47954e-05
1.32803e-05
1.2103e-05
1.11525e-05
1.03596e-05
9.67987e-06
9.08424e-06
8.55292e-06
8.07214e-06
7.63204e-06
7.22539e-06
6.84678e-06
6.49214e-06
6.15837e-06
5.84312e-06
5.54459e-06
5.26147e-06
4.99284e-06
4.73814e-06
4.50429e-06
4.28519e-06
4.07626e-06
3.87742e-06
3.68863e-06
3.50988e-06
3.34119e-06
3.18256e-06
3.034e-06
2.89546e-06
2.7669e-06
2.64819e-06
2.53918e-06
2.43964e-06
2.34931e-06
2.26785e-06
2.19487e-06
2.12992e-06
2.0725e-06
2.02209e-06
1.97811e-06
1.93998e-06
1.9071e-06
1.87889e-06
1.85477e-06
1.8342e-06
1.81668e-06
1.80174e-06
1.78896e-06
1.77798e-06
1.7685e-06
1.76025e-06
1.75303e-06
1.74666e-06
1.74103e-06
1.73603e-06
1.7316e-06
1.72768e-06
1.72425e-06
1.72127e-06
1.71874e-06
1.71664e-06
1.71494e-06
1.71364e-06
1.71272e-06
1.71215e-06
1.71191e-06
1.71197e-06
1.71229e-06
1.71285e-06
1.71361e-06
1.71455e-06
1.71561e-06
1.71679e-06
1.71804e-06
1.71934e-06
1.72068e-06
1.72204e-06
1.72341e-06
1.72479e-06
1.72621e-06
1.72768e-06
1.7293e-06
1.7311e-06
1.7327e-06
1.73355e-06
1.73422e-06
1.73479e-06
1.73528e-06
1.73571e-06
1.73609e-06
1.73642e-06
1.73671e-06
1.73697e-06
1.73718e-06
1.73737e-06
1.73754e-06
1.73768e-06
1.7378e-06
1.73791e-06
1.73801e-06
1.73809e-06
1.73817e-06
1.73824e-06
1.73831e-06
1.73837e-06
1.73843e-06
1.73848e-06
1.73854e-06
1.73859e-06
1.73864e-06
1.73869e-06
1.73874e-06
1.73878e-06
1.73883e-06
1.73887e-06
1.73891e-06
1.73895e-06
1.739e-06
1.73904e-06
1.73908e-06
1.73912e-06
1.73916e-06
1.7392e-06
1.73923e-06
1.73927e-06
1.73931e-06
1.73935e-06
1.73939e-06
1.73943e-06
1.73946e-06
1.7395e-06
1.73954e-06
1.73958e-06
1.73961e-06
1.73965e-06
1.73969e-06
1.73972e-06
1.73976e-06
1.7398e-06
1.73984e-06
1.73987e-06
1.73991e-06
1.73994e-06
1.73998e-06
1.74002e-06
1.74005e-06
1.74009e-06
1.74012e-06
1.74016e-06
1.74019e-06
1.74023e-06
1.74026e-06
1.7403e-06
1.74033e-06
1.74037e-06
1.7404e-06
1.74043e-06
1.74047e-06
1.7405e-06
1.74053e-06
1.74056e-06
1.74059e-06
1.74062e-06
1.74065e-06
1.74069e-06
1.74072e-06
1.74074e-06
1.74077e-06
1.7408e-06
1.74083e-06
1.74086e-06
1.74088e-06
1.74091e-06
1.74094e-06
1.74096e-06
1.74099e-06
1.74101e-06
1.74104e-06
1.74106e-06
1.74108e-06
1.7411e-06
1.74113e-06
1.74115e-06
1.74117e-06
1.74119e-06
1.74121e-06
1.74123e-06
1.74124e-06
1.74126e-06
1.74128e-06
1.74129e-06
1.74131e-06
1.74132e-06
1.74134e-06
1.74135e-06
1.74137e-06
1.74138e-06
1.74139e-06
1.7414e-06
1.74141e-06
1.74142e-06
1.74143e-06
1.74144e-06
1.74145e-06
1.74146e-06
1.74146e-06
1.74147e-06
)
;

boundaryField
{
    boundary
    {
        type            empty;
    }
    inlet
    {
        type            fixedValue;
        value           uniform 0;
    }
    outlet
    {
        type            zeroGradient;
    }
}


// ************************************************************************* //
