/*--------------------------------*- C++ -*----------------------------------*\
  =========                 |
  \\      /  F ield         | OpenFOAM: The Open Source CFD Toolbox
   \\    /   O peration     | Website:  https://openfoam.org
    \\  /    A nd           | Version:  7
     \\/     M anipulation  |
\*---------------------------------------------------------------------------*/
FoamFile
{
    version     2.0;
    format      ascii;
    class       volScalarField;
    location    "0.0001";
    object      O;
}
// * * * * * * * * * * * * * * * * * * * * * * * * * * * * * * * * * * * * * //

dimensions      [0 0 0 0 0 0 0];

internalField   nonuniform List<scalar> 
500
(
1.63881e-47
4.00011e-47
6.46499e-47
8.98257e-47
1.14717e-46
1.38301e-46
1.59572e-46
1.7778e-46
1.92557e-46
2.03934e-46
2.12254e-46
2.18047e-46
2.21895e-46
2.24339e-46
2.25826e-46
2.26695e-46
2.27184e-46
2.27449e-46
2.27587e-46
2.27657e-46
2.27691e-46
2.27706e-46
2.27712e-46
2.27714e-46
2.27714e-46
2.27712e-46
2.27711e-46
2.27709e-46
2.27707e-46
2.27705e-46
2.27703e-46
2.27701e-46
2.27699e-46
2.27696e-46
2.27694e-46
2.27692e-46
2.2769e-46
2.27687e-46
2.27685e-46
2.27683e-46
2.2768e-46
2.27678e-46
2.27676e-46
2.27673e-46
2.27671e-46
2.27669e-46
2.27667e-46
2.27665e-46
2.27662e-46
2.2766e-46
2.27658e-46
2.27656e-46
2.27655e-46
2.27653e-46
2.27651e-46
2.27649e-46
2.27648e-46
2.27646e-46
2.27645e-46
2.27644e-46
2.27643e-46
2.27642e-46
2.27641e-46
2.2764e-46
2.27639e-46
2.27639e-46
2.27638e-46
2.27638e-46
2.27638e-46
2.27638e-46
2.27639e-46
2.27639e-46
2.2764e-46
2.2764e-46
2.27641e-46
2.27643e-46
2.27644e-46
2.27646e-46
2.27647e-46
2.27649e-46
2.27652e-46
2.27654e-46
2.27657e-46
2.2766e-46
2.27663e-46
2.27666e-46
2.2767e-46
2.27673e-46
2.27678e-46
2.27682e-46
2.27686e-46
2.27691e-46
2.27696e-46
2.27702e-46
2.27707e-46
2.27713e-46
2.27719e-46
2.27725e-46
2.27732e-46
2.27739e-46
2.27746e-46
2.27753e-46
2.27761e-46
2.27769e-46
2.27777e-46
2.27785e-46
2.27794e-46
2.27803e-46
2.27812e-46
2.27822e-46
2.27831e-46
2.27841e-46
2.27851e-46
2.27861e-46
2.27872e-46
2.27882e-46
2.27893e-46
2.27904e-46
2.27913e-46
2.27919e-46
2.27913e-46
2.27878e-46
2.27776e-46
2.27553e-46
2.27153e-46
2.26584e-46
2.26043e-46
2.25613e-46
2.25457e-46
2.25605e-46
2.25973e-46
2.26437e-46
2.26891e-46
2.27278e-46
2.27575e-46
2.27788e-46
2.27933e-46
2.28027e-46
2.28088e-46
2.28128e-46
2.28154e-46
2.28172e-46
2.28186e-46
2.28197e-46
2.28207e-46
2.28215e-46
2.28223e-46
2.28229e-46
2.28235e-46
2.2824e-46
2.28244e-46
2.28248e-46
2.2825e-46
2.28251e-46
2.28251e-46
2.2825e-46
2.28248e-46
2.28244e-46
2.28239e-46
2.28233e-46
2.28225e-46
2.28215e-46
2.28203e-46
2.2819e-46
2.28175e-46
2.28158e-46
2.28139e-46
2.28118e-46
2.28094e-46
2.28068e-46
2.2804e-46
2.28009e-46
2.27976e-46
2.27939e-46
2.279e-46
2.27858e-46
2.27813e-46
2.27765e-46
2.27713e-46
2.27658e-46
2.276e-46
2.27538e-46
2.27473e-46
2.27403e-46
2.2733e-46
2.27253e-46
2.27172e-46
2.27087e-46
2.26997e-46
2.26903e-46
2.26805e-46
2.26703e-46
2.26596e-46
2.26484e-46
2.26367e-46
2.26246e-46
2.2612e-46
2.2599e-46
2.25854e-46
2.25714e-46
2.25568e-46
2.25418e-46
2.25262e-46
2.25102e-46
2.24937e-46
2.24766e-46
2.24591e-46
2.24411e-46
2.24226e-46
2.24036e-46
2.23842e-46
2.23643e-46
2.23439e-46
2.2323e-46
2.23017e-46
2.228e-46
2.22578e-46
2.22352e-46
2.22122e-46
2.21889e-46
2.21651e-46
2.2141e-46
2.21166e-46
2.20919e-46
2.20681e-46
2.20554e-46
2.21559e-46
2.33728e-46
3.55292e-46
1.54079e-45
1.29863e-44
1.22465e-43
1.15961e-42
1.08872e-41
1.01185e-40
9.30394e-40
8.45925e-39
7.59956e-38
6.73942e-37
5.89284e-36
5.0735e-35
4.29473e-34
3.56921e-33
2.90826e-32
2.32084e-31
1.81263e-30
1.3853e-29
1.03636e-28
7.59585e-28
5.45962e-27
3.85053e-26
2.67797e-25
1.81514e-24
1.2032e-23
7.79379e-23
4.92875e-22
3.04003e-21
1.82696e-20
1.0686e-19
6.07651e-19
3.35528e-18
1.79685e-17
9.32101e-17
4.67774e-16
2.26826e-15
1.0615e-14
4.78903e-14
2.0811e-13
8.70542e-13
3.50466e-12
1.35827e-11
5.07206e-11
1.82753e-10
6.36604e-10
2.14978e-09
7.08065e-09
2.32231e-08
8.14053e-08
3.5867e-07
2.23059e-06
1.53961e-05
7.97747e-05
0.000323488
0.000986878
0.00213319
0.00348297
0.0046674
0.00548069
0.00602674
0.00623188
0.00626782
0.00619609
0.00606003
0.00588779
0.00569687
0.00549784
0.00529699
0.00509799
0.00490296
0.00471313
0.00452917
0.00435147
0.00418024
0.00401559
0.00385754
0.00370611
0.00356124
0.00342287
0.00329087
0.00316511
0.00304544
0.00293169
0.00282693
0.00272882
0.00263487
0.00254483
0.00245843
0.00237543
0.00229556
0.00221856
0.00214419
0.00207221
0.00200241
0.00193459
0.00186857
0.00180423
0.00174143
0.0016801
0.00162016
0.00156158
0.00150434
0.00144844
0.0013939
0.00134074
0.00128902
0.00123876
0.00119002
0.00114285
0.00109729
0.00105338
0.00101116
0.000970651
0.000931881
0.000894857
0.000859582
0.00082605
0.000794245
0.000764145
0.000735718
0.00070893
0.000683739
0.000660096
0.000637952
0.000617253
0.000597941
0.000579959
0.000563246
0.000547744
0.000533392
0.000520131
0.000507901
0.000496645
0.000486305
0.000476827
0.000468154
0.000460236
0.000453021
0.000446461
0.000440509
0.000435122
0.000430256
0.000425875
0.000421941
0.000418421
0.000415282
0.000412488
0.000409993
0.000407765
0.000405785
0.00040403
0.000402481
0.000401119
0.000399925
0.000398882
0.000397975
0.000397187
0.000396505
0.000395916
0.000395411
0.000394977
0.000394606
0.000394291
0.000394023
0.000393796
0.000393606
0.000393445
0.000393311
0.0003932
0.000393107
0.000393031
0.000392968
0.000392916
0.000392874
0.00039284
0.000392813
0.000392791
0.000392773
0.000392759
0.000392748
0.00039274
0.000392733
0.000392728
0.000392724
0.000392722
0.00039272
0.000392719
0.000392718
0.000392718
0.000392719
0.000392719
0.00039272
0.000392721
0.000392722
0.000392723
0.000392724
0.000392725
0.000392726
0.000392727
0.000392729
0.00039273
0.000392731
0.000392732
0.000392734
0.000392735
0.000392736
0.000392737
0.000392738
0.00039274
0.000392741
0.000392742
0.000392743
0.000392744
0.000392745
0.000392746
0.000392747
0.000392748
0.000392749
0.00039275
0.000392751
0.000392752
0.000392753
0.000392754
0.000392755
0.000392755
0.000392756
0.000392757
0.000392758
0.000392758
0.000392759
0.00039276
0.00039276
0.000392761
0.000392761
0.000392762
0.000392762
0.000392763
0.000392763
0.000392764
0.000392764
0.000392764
0.000392765
0.000392765
0.000392765
0.000392765
0.000392765
0.000392765
0.000392765
0.000392765
0.000392765
0.000392765
0.000392765
0.000392765
0.000392765
0.000392765
0.000392764
0.000392764
0.000392764
0.000392763
0.000392763
0.000392762
0.000392762
0.000392761
0.000392761
0.00039276
0.00039276
0.000392759
0.000392759
0.000392758
0.000392758
0.000392758
)
;

boundaryField
{
    boundary
    {
        type            empty;
    }
    inlet
    {
        type            fixedValue;
        value           uniform 0;
    }
    outlet
    {
        type            zeroGradient;
    }
}


// ************************************************************************* //
