/*--------------------------------*- C++ -*----------------------------------*\
  =========                 |
  \\      /  F ield         | OpenFOAM: The Open Source CFD Toolbox
   \\    /   O peration     | Website:  https://openfoam.org
    \\  /    A nd           | Version:  7
     \\/     M anipulation  |
\*---------------------------------------------------------------------------*/
FoamFile
{
    version     2.0;
    format      ascii;
    class       volScalarField;
    location    "0.0001";
    object      OH;
}
// * * * * * * * * * * * * * * * * * * * * * * * * * * * * * * * * * * * * * //

dimensions      [0 0 0 0 0 0 0];

internalField   nonuniform List<scalar> 
500
(
9.68647e-48
1.94782e-47
2.70095e-47
3.31131e-47
3.82894e-47
4.27611e-47
4.65851e-47
4.97551e-47
5.2272e-47
5.41745e-47
5.5541e-47
5.64739e-47
5.70802e-47
5.74561e-47
5.76788e-47
5.78052e-47
5.7874e-47
5.791e-47
5.7928e-47
5.79366e-47
5.79405e-47
5.7942e-47
5.79424e-47
5.79423e-47
5.79419e-47
5.79415e-47
5.79409e-47
5.79404e-47
5.79398e-47
5.79392e-47
5.79386e-47
5.79379e-47
5.79373e-47
5.79366e-47
5.79359e-47
5.79352e-47
5.79345e-47
5.79338e-47
5.79331e-47
5.79323e-47
5.79316e-47
5.79309e-47
5.79301e-47
5.79293e-47
5.79286e-47
5.79278e-47
5.7927e-47
5.79263e-47
5.79255e-47
5.79247e-47
5.7924e-47
5.79232e-47
5.79225e-47
5.79217e-47
5.7921e-47
5.79203e-47
5.79196e-47
5.79189e-47
5.79182e-47
5.79175e-47
5.79169e-47
5.79162e-47
5.79156e-47
5.79151e-47
5.79145e-47
5.7914e-47
5.79135e-47
5.7913e-47
5.79125e-47
5.79121e-47
5.79117e-47
5.79114e-47
5.79111e-47
5.79108e-47
5.79106e-47
5.79104e-47
5.79102e-47
5.79101e-47
5.79101e-47
5.79101e-47
5.79101e-47
5.79102e-47
5.79103e-47
5.79105e-47
5.79107e-47
5.7911e-47
5.79114e-47
5.79118e-47
5.79122e-47
5.79127e-47
5.79133e-47
5.79139e-47
5.79146e-47
5.79154e-47
5.79162e-47
5.79171e-47
5.7918e-47
5.7919e-47
5.79201e-47
5.79212e-47
5.79224e-47
5.79237e-47
5.7925e-47
5.79263e-47
5.79278e-47
5.79293e-47
5.79308e-47
5.79325e-47
5.79341e-47
5.79359e-47
5.79377e-47
5.79395e-47
5.79414e-47
5.79433e-47
5.79453e-47
5.79474e-47
5.79495e-47
5.79516e-47
5.79537e-47
5.79557e-47
5.79575e-47
5.79586e-47
5.79581e-47
5.79548e-47
5.79472e-47
5.79352e-47
5.7925e-47
5.79161e-47
5.79132e-47
5.79179e-47
5.79287e-47
5.79422e-47
5.79558e-47
5.79676e-47
5.7977e-47
5.79842e-47
5.79896e-47
5.79936e-47
5.79967e-47
5.79992e-47
5.80012e-47
5.8003e-47
5.80046e-47
5.8006e-47
5.80072e-47
5.80082e-47
5.8009e-47
5.80097e-47
5.80101e-47
5.80103e-47
5.80103e-47
5.801e-47
5.80095e-47
5.80087e-47
5.80075e-47
5.80061e-47
5.80043e-47
5.80022e-47
5.79996e-47
5.79967e-47
5.79934e-47
5.79896e-47
5.79854e-47
5.79807e-47
5.79755e-47
5.79697e-47
5.79634e-47
5.79566e-47
5.79491e-47
5.7941e-47
5.79323e-47
5.79229e-47
5.79128e-47
5.7902e-47
5.78904e-47
5.78781e-47
5.7865e-47
5.7851e-47
5.78362e-47
5.78206e-47
5.7804e-47
5.77865e-47
5.7768e-47
5.77486e-47
5.77282e-47
5.77068e-47
5.76843e-47
5.76608e-47
5.76362e-47
5.76105e-47
5.75836e-47
5.75556e-47
5.75265e-47
5.74962e-47
5.74646e-47
5.74319e-47
5.7398e-47
5.73628e-47
5.73265e-47
5.72888e-47
5.725e-47
5.72098e-47
5.71685e-47
5.71258e-47
5.7082e-47
5.70369e-47
5.69905e-47
5.6943e-47
5.68942e-47
5.68443e-47
5.67931e-47
5.67408e-47
5.66874e-47
5.66328e-47
5.65772e-47
5.65205e-47
5.64628e-47
5.6404e-47
5.63443e-47
5.62837e-47
5.62222e-47
5.61599e-47
5.60967e-47
5.60329e-47
5.59694e-47
5.59159e-47
5.59696e-47
5.7101e-47
6.89335e-47
1.86037e-46
1.32964e-45
1.23944e-44
1.18492e-43
1.12654e-42
1.06127e-41
9.89759e-41
9.13058e-40
8.32363e-39
7.4903e-38
6.64601e-37
5.80778e-36
4.99353e-35
4.22078e-34
3.50525e-33
2.85933e-32
2.29114e-31
1.80398e-30
1.39652e-29
1.06355e-28
7.97135e-28
5.87932e-27
4.28217e-26
3.05225e-25
2.13572e-24
1.4665e-23
9.87755e-23
6.52322e-22
4.22225e-21
2.67745e-20
1.66277e-19
1.01093e-18
6.01522e-18
3.50193e-17
1.99439e-16
1.11104e-15
6.05493e-15
3.22904e-14
1.68594e-13
8.62429e-13
4.32573e-12
2.12899e-11
1.02875e-10
4.93015e-10
2.34632e-09
1.1075e-08
5.21593e-08
2.52155e-07
1.34116e-06
8.49032e-06
5.84315e-05
0.000289756
0.000651488
0.000844352
0.001031
0.00150375
0.00241035
0.00366181
0.00498458
0.00644028
0.00749563
0.00835433
0.00902421
0.00953616
0.00992303
0.0102127
0.0104268
0.0105816
0.0106896
0.0107599
0.0107999
0.0108153
0.0108109
0.0107908
0.0107584
0.0107167
0.0106685
0.0106159
0.0105611
0.0105058
0.0104513
0.010399
0.0103495
0.0103053
0.0102654
0.0102292
0.0101964
0.0101668
0.0101399
0.0101151
0.0100918
0.010069
0.0100458
0.0100214
0.00999477
0.00996498
0.00993116
0.00989249
0.00984829
0.00979794
0.00974099
0.0096771
0.0096061
0.00952793
0.00944269
0.00935061
0.00925204
0.00914743
0.00903732
0.00892234
0.00880317
0.00868054
0.0085552
0.0084279
0.00829942
0.00817048
0.0080418
0.00791405
0.00778786
0.00766381
0.00754243
0.00742418
0.00730947
0.00719865
0.007092
0.00698978
0.00689215
0.00679924
0.00671115
0.0066279
0.00654951
0.00647594
0.00640711
0.00634294
0.00628329
0.00622802
0.00617697
0.00612996
0.00608681
0.00604732
0.0060113
0.00597855
0.00594889
0.00592216
0.00589817
0.00587676
0.00585768
0.00584053
0.00582507
0.00581121
0.00579887
0.00578795
0.00577832
0.00576987
0.00576248
0.00575604
0.00575045
0.00574562
0.00574145
0.00573787
0.0057348
0.00573218
0.00572995
0.00572807
0.00572648
0.00572515
0.00572404
0.00572311
0.00572235
0.00572172
0.00572121
0.00572079
0.00572046
0.00572019
0.00571998
0.00571982
0.0057197
0.0057196
0.00571954
0.00571949
0.00571946
0.00571945
0.00571945
0.00571946
0.00571947
0.00571949
0.00571951
0.00571954
0.00571957
0.00571961
0.00571964
0.00571968
0.00571972
0.00571976
0.0057198
0.00571984
0.00571987
0.00571992
0.00571996
0.00572
0.00572004
0.00572008
0.00572012
0.00572016
0.00572019
0.00572023
0.00572027
0.00572031
0.00572035
0.00572039
0.00572043
0.00572047
0.0057205
0.00572054
0.00572058
0.00572061
0.00572065
0.00572069
0.00572072
0.00572076
0.00572079
0.00572083
0.00572086
0.00572089
0.00572093
0.00572096
0.00572099
0.00572102
0.00572105
0.00572108
0.00572111
0.00572114
0.00572117
0.0057212
0.00572122
0.00572125
0.00572128
0.0057213
0.00572133
0.00572135
0.00572137
0.0057214
0.00572142
0.00572144
0.00572146
0.00572148
0.0057215
0.00572152
0.00572153
0.00572155
0.00572157
0.00572158
0.0057216
0.00572161
0.00572162
0.00572164
0.00572165
0.00572166
0.00572167
0.00572168
0.00572168
0.00572169
0.0057217
0.00572171
0.00572171
0.00572172
0.00572172
0.00572172
0.00572173
0.00572173
0.00572173
)
;

boundaryField
{
    boundary
    {
        type            empty;
    }
    inlet
    {
        type            fixedValue;
        value           uniform 0;
    }
    outlet
    {
        type            zeroGradient;
    }
}


// ************************************************************************* //
