/*--------------------------------*- C++ -*----------------------------------*\
  =========                 |
  \\      /  F ield         | OpenFOAM: The Open Source CFD Toolbox
   \\    /   O peration     | Website:  https://openfoam.org
    \\  /    A nd           | Version:  7
     \\/     M anipulation  |
\*---------------------------------------------------------------------------*/
FoamFile
{
    version     2.0;
    format      ascii;
    class       surfaceScalarField;
    location    "0.0001";
    object      phi;
}
// * * * * * * * * * * * * * * * * * * * * * * * * * * * * * * * * * * * * * //

dimensions      [1 0 -1 0 0 0 0];

internalField   nonuniform List<scalar> 
499
(
6.91322e-06
6.91198e-06
6.90977e-06
6.90666e-06
6.90288e-06
6.89878e-06
6.89476e-06
6.89112e-06
6.88806e-06
6.88563e-06
6.8838e-06
6.88246e-06
6.8815e-06
6.88083e-06
6.88034e-06
6.87996e-06
6.87966e-06
6.8794e-06
6.87916e-06
6.87893e-06
6.87871e-06
6.87849e-06
6.87827e-06
6.87804e-06
6.87782e-06
6.8776e-06
6.87737e-06
6.87714e-06
6.87691e-06
6.87667e-06
6.87644e-06
6.8762e-06
6.87596e-06
6.87572e-06
6.87548e-06
6.87523e-06
6.87498e-06
6.87473e-06
6.87447e-06
6.87421e-06
6.87395e-06
6.87369e-06
6.87342e-06
6.87315e-06
6.87288e-06
6.8726e-06
6.87232e-06
6.87204e-06
6.87175e-06
6.87145e-06
6.87116e-06
6.87085e-06
6.87055e-06
6.87024e-06
6.86992e-06
6.8696e-06
6.86928e-06
6.86894e-06
6.86861e-06
6.86826e-06
6.86791e-06
6.86756e-06
6.8672e-06
6.86683e-06
6.86645e-06
6.86607e-06
6.86568e-06
6.86528e-06
6.86488e-06
6.86446e-06
6.86404e-06
6.86361e-06
6.86317e-06
6.86272e-06
6.86226e-06
6.86179e-06
6.86131e-06
6.86082e-06
6.86032e-06
6.85981e-06
6.85928e-06
6.85875e-06
6.8582e-06
6.85764e-06
6.85706e-06
6.85647e-06
6.85587e-06
6.85525e-06
6.85462e-06
6.85398e-06
6.85332e-06
6.85264e-06
6.85195e-06
6.85124e-06
6.85051e-06
6.84976e-06
6.849e-06
6.84822e-06
6.84742e-06
6.84661e-06
6.84577e-06
6.84491e-06
6.84404e-06
6.84314e-06
6.84222e-06
6.84128e-06
6.84032e-06
6.83934e-06
6.83833e-06
6.83731e-06
6.83626e-06
6.83518e-06
6.83408e-06
6.83296e-06
6.83182e-06
6.83065e-06
6.82945e-06
6.82823e-06
6.82699e-06
6.82572e-06
6.82442e-06
6.8231e-06
6.82175e-06
6.82037e-06
6.81897e-06
6.81755e-06
6.8161e-06
6.81462e-06
6.81311e-06
6.81157e-06
6.81e-06
6.8084e-06
6.80678e-06
6.80513e-06
6.80344e-06
6.80174e-06
6.8e-06
6.79824e-06
6.79644e-06
6.79462e-06
6.79278e-06
6.7909e-06
6.78899e-06
6.78706e-06
6.7851e-06
6.78311e-06
6.78109e-06
6.77904e-06
6.77696e-06
6.77486e-06
6.77272e-06
6.77056e-06
6.76837e-06
6.76615e-06
6.76391e-06
6.76163e-06
6.75933e-06
6.757e-06
6.75464e-06
6.75226e-06
6.74984e-06
6.7474e-06
6.74494e-06
6.74244e-06
6.73992e-06
6.73737e-06
6.7348e-06
6.7322e-06
6.72957e-06
6.72691e-06
6.72423e-06
6.72153e-06
6.7188e-06
6.71604e-06
6.71326e-06
6.71045e-06
6.70762e-06
6.70476e-06
6.70188e-06
6.69898e-06
6.69605e-06
6.6931e-06
6.69013e-06
6.68713e-06
6.68411e-06
6.68107e-06
6.67801e-06
6.67493e-06
6.67182e-06
6.6687e-06
6.66555e-06
6.66239e-06
6.6592e-06
6.656e-06
6.65278e-06
6.64954e-06
6.64629e-06
6.64302e-06
6.63973e-06
6.63643e-06
6.63311e-06
6.62978e-06
6.62643e-06
6.62307e-06
6.6197e-06
6.61632e-06
6.61292e-06
6.60952e-06
6.6061e-06
6.60268e-06
6.59925e-06
6.59581e-06
6.59236e-06
6.5889e-06
6.58544e-06
6.58198e-06
6.57851e-06
6.57503e-06
6.57156e-06
6.56808e-06
6.5646e-06
6.56112e-06
6.55764e-06
6.55416e-06
6.55068e-06
6.54721e-06
6.54374e-06
6.54027e-06
6.53681e-06
6.53336e-06
6.52991e-06
6.52647e-06
6.52304e-06
6.51961e-06
6.5162e-06
6.5128e-06
6.50941e-06
6.50603e-06
6.50267e-06
6.49932e-06
6.49599e-06
6.49267e-06
6.48938e-06
6.4861e-06
6.48284e-06
6.4796e-06
6.47639e-06
6.47319e-06
6.47003e-06
6.46689e-06
6.46378e-06
6.46069e-06
6.45764e-06
6.45462e-06
6.45163e-06
6.44867e-06
6.44574e-06
6.44286e-06
6.44001e-06
6.4372e-06
6.43444e-06
6.43172e-06
6.42905e-06
6.42643e-06
6.42386e-06
6.42135e-06
6.4189e-06
6.4165e-06
6.41417e-06
6.4119e-06
6.4097e-06
6.4076e-06
6.40568e-06
6.40425e-06
6.40419e-06
6.40786e-06
6.42088e-06
6.45469e-06
6.52709e-06
6.64431e-06
6.76823e-06
6.85994e-06
6.92007e-06
6.96108e-06
6.99059e-06
7.00982e-06
7.00821e-06
6.92571e-06
7.00205e-06
7.03106e-06
7.04398e-06
7.0511e-06
7.056e-06
7.06e-06
7.0636e-06
7.067e-06
7.07025e-06
7.07335e-06
7.07623e-06
7.07879e-06
7.08091e-06
7.08242e-06
7.08313e-06
7.08284e-06
7.08134e-06
7.07838e-06
7.07376e-06
7.06725e-06
7.05866e-06
7.0478e-06
7.03454e-06
7.01878e-06
7.00162e-06
6.98208e-06
6.96017e-06
6.93592e-06
6.90943e-06
6.88082e-06
6.85025e-06
6.81794e-06
6.78412e-06
6.74903e-06
6.71296e-06
6.67619e-06
6.63903e-06
6.60176e-06
6.56467e-06
6.52803e-06
6.49211e-06
6.45716e-06
6.42337e-06
6.39096e-06
6.36009e-06
6.33089e-06
6.30348e-06
6.27793e-06
6.25432e-06
6.23266e-06
6.21297e-06
6.19523e-06
6.1794e-06
6.16543e-06
6.15325e-06
6.14278e-06
6.13391e-06
6.12655e-06
6.12058e-06
6.11589e-06
6.11236e-06
6.10988e-06
6.10831e-06
6.10756e-06
6.10751e-06
6.10805e-06
6.10909e-06
6.11054e-06
6.11231e-06
6.11433e-06
6.11653e-06
6.11884e-06
6.12123e-06
6.12363e-06
6.12601e-06
6.12835e-06
6.13061e-06
6.13277e-06
6.13481e-06
6.13674e-06
6.13853e-06
6.14018e-06
6.1417e-06
6.14309e-06
6.14434e-06
6.14547e-06
6.14647e-06
6.14734e-06
6.14812e-06
6.14883e-06
6.14943e-06
6.14994e-06
6.15035e-06
6.15067e-06
6.15091e-06
6.15109e-06
6.15119e-06
6.15125e-06
6.15125e-06
6.15121e-06
6.15112e-06
6.151e-06
6.15086e-06
6.15068e-06
6.15048e-06
6.15026e-06
6.15002e-06
6.14976e-06
6.14949e-06
6.14921e-06
6.14892e-06
6.14862e-06
6.14831e-06
6.148e-06
6.14768e-06
6.14736e-06
6.14703e-06
6.1467e-06
6.14637e-06
6.14604e-06
6.14571e-06
6.14537e-06
6.14504e-06
6.1447e-06
6.14437e-06
6.14403e-06
6.1437e-06
6.14336e-06
6.14303e-06
6.14269e-06
6.14236e-06
6.14202e-06
6.14169e-06
6.14135e-06
6.14102e-06
6.14069e-06
6.14035e-06
6.14002e-06
6.13969e-06
6.13936e-06
6.13903e-06
6.1387e-06
6.13837e-06
6.13804e-06
6.13771e-06
6.13738e-06
6.13705e-06
6.13672e-06
6.13639e-06
6.13606e-06
6.13573e-06
6.13541e-06
6.13508e-06
6.13475e-06
6.13443e-06
6.1341e-06
6.13377e-06
6.13345e-06
6.13312e-06
6.1328e-06
6.13247e-06
6.13214e-06
6.13182e-06
6.13149e-06
6.13117e-06
6.13085e-06
6.13052e-06
6.1302e-06
6.12987e-06
6.12955e-06
6.12922e-06
6.1289e-06
6.12857e-06
6.12825e-06
6.12792e-06
6.1276e-06
6.12727e-06
6.12694e-06
6.12662e-06
6.12629e-06
6.12596e-06
6.12564e-06
6.12531e-06
6.12498e-06
6.12465e-06
6.12432e-06
6.12399e-06
6.12366e-06
6.12332e-06
6.12299e-06
6.12266e-06
6.12232e-06
6.12199e-06
6.12165e-06
6.12131e-06
6.12097e-06
6.12063e-06
6.12029e-06
6.11994e-06
6.1196e-06
6.11925e-06
6.1189e-06
6.11855e-06
6.1182e-06
6.11784e-06
6.11749e-06
6.11713e-06
6.11677e-06
6.1164e-06
6.11604e-06
6.11567e-06
)
;

boundaryField
{
    boundary
    {
        type            empty;
        value           nonuniform 0();
    }
    inlet
    {
        type            calculated;
        value           uniform -6.91364e-06;
    }
    outlet
    {
        type            calculated;
        value           uniform 6.1153e-06;
    }
}


// ************************************************************************* //
