/*--------------------------------*- C++ -*----------------------------------*\
  =========                 |
  \\      /  F ield         | OpenFOAM: The Open Source CFD Toolbox
   \\    /   O peration     | Website:  https://openfoam.org
    \\  /    A nd           | Version:  7
     \\/     M anipulation  |
\*---------------------------------------------------------------------------*/
FoamFile
{
    version     2.0;
    format      ascii;
    class       volScalarField;
    location    "0.0001";
    object      Qdot;
}
// * * * * * * * * * * * * * * * * * * * * * * * * * * * * * * * * * * * * * //

dimensions      [1 -1 -3 0 0 0 0];

internalField   nonuniform List<scalar> 
500
(
-2.45329e-27
-1.89797e-27
-1.82817e-27
-1.87904e-27
-1.96704e-27
-2.06698e-27
-2.16587e-27
-2.25491e-27
-2.32884e-27
-2.38591e-27
-2.42714e-27
-2.45517e-27
-2.4732e-27
-2.48422e-27
-2.49064e-27
-2.49423e-27
-2.49617e-27
-2.49717e-27
-2.49768e-27
-2.49794e-27
-2.49808e-27
-2.49816e-27
-2.49822e-27
-2.49826e-27
-2.49831e-27
-2.49835e-27
-2.49839e-27
-2.49843e-27
-2.49848e-27
-2.49853e-27
-2.49858e-27
-2.49863e-27
-2.49868e-27
-2.49874e-27
-2.49879e-27
-2.49885e-27
-2.49891e-27
-2.49898e-27
-2.49904e-27
-2.49911e-27
-2.49918e-27
-2.49925e-27
-2.49933e-27
-2.4994e-27
-2.49948e-27
-2.49956e-27
-2.49964e-27
-2.49973e-27
-2.49982e-27
-2.49991e-27
-2.5e-27
-2.5001e-27
-2.5002e-27
-2.5003e-27
-2.5004e-27
-2.50051e-27
-2.50062e-27
-2.50073e-27
-2.50084e-27
-2.50096e-27
-2.50108e-27
-2.5012e-27
-2.50133e-27
-2.50146e-27
-2.50159e-27
-2.50173e-27
-2.50187e-27
-2.50201e-27
-2.50215e-27
-2.5023e-27
-2.50246e-27
-2.50261e-27
-2.50277e-27
-2.50293e-27
-2.5031e-27
-2.50327e-27
-2.50344e-27
-2.50362e-27
-2.5038e-27
-2.50398e-27
-2.50417e-27
-2.50436e-27
-2.50455e-27
-2.50475e-27
-2.50495e-27
-2.50516e-27
-2.50537e-27
-2.50559e-27
-2.5058e-27
-2.50603e-27
-2.50625e-27
-2.50648e-27
-2.50672e-27
-2.50695e-27
-2.5072e-27
-2.50744e-27
-2.50769e-27
-2.50795e-27
-2.5082e-27
-2.50847e-27
-2.50873e-27
-2.509e-27
-2.50928e-27
-2.50955e-27
-2.50984e-27
-2.51012e-27
-2.51041e-27
-2.5107e-27
-2.511e-27
-2.5113e-27
-2.5116e-27
-2.51191e-27
-2.51222e-27
-2.51254e-27
-2.51285e-27
-2.51317e-27
-2.5135e-27
-2.51382e-27
-2.51415e-27
-2.51448e-27
-2.51481e-27
-2.51514e-27
-2.51545e-27
-2.51574e-27
-2.51601e-27
-2.51622e-27
-2.51641e-27
-2.51665e-27
-2.51697e-27
-2.51736e-27
-2.5178e-27
-2.51825e-27
-2.5187e-27
-2.51913e-27
-2.51954e-27
-2.51993e-27
-2.5203e-27
-2.52066e-27
-2.52101e-27
-2.52135e-27
-2.52169e-27
-2.52202e-27
-2.52235e-27
-2.52267e-27
-2.52299e-27
-2.5233e-27
-2.52361e-27
-2.52391e-27
-2.5242e-27
-2.52448e-27
-2.52476e-27
-2.52503e-27
-2.52528e-27
-2.52553e-27
-2.52576e-27
-2.52599e-27
-2.5262e-27
-2.5264e-27
-2.52658e-27
-2.52675e-27
-2.52691e-27
-2.52704e-27
-2.52716e-27
-2.52727e-27
-2.52735e-27
-2.52741e-27
-2.52746e-27
-2.52748e-27
-2.52748e-27
-2.52746e-27
-2.52741e-27
-2.52734e-27
-2.52724e-27
-2.52712e-27
-2.52696e-27
-2.52678e-27
-2.52657e-27
-2.52633e-27
-2.52606e-27
-2.52575e-27
-2.52541e-27
-2.52504e-27
-2.52463e-27
-2.52419e-27
-2.52371e-27
-2.52319e-27
-2.52263e-27
-2.52204e-27
-2.5214e-27
-2.52073e-27
-2.52001e-27
-2.51925e-27
-2.51845e-27
-2.5176e-27
-2.51672e-27
-2.51578e-27
-2.51481e-27
-2.51378e-27
-2.51272e-27
-2.51161e-27
-2.51045e-27
-2.50925e-27
-2.508e-27
-2.5067e-27
-2.50536e-27
-2.50398e-27
-2.50255e-27
-2.50107e-27
-2.49955e-27
-2.49799e-27
-2.49639e-27
-2.49474e-27
-2.49305e-27
-2.49132e-27
-2.48955e-27
-2.48774e-27
-2.4859e-27
-2.48401e-27
-2.48209e-27
-2.48014e-27
-2.47816e-27
-2.47614e-27
-2.4741e-27
-2.47202e-27
-2.46992e-27
-2.4678e-27
-2.46565e-27
-2.46347e-27
-2.46128e-27
-2.45907e-27
-2.45682e-27
-2.45444e-27
-2.45116e-27
-2.44124e-27
-2.38167e-27
-1.94961e-27
1.28209e-27
2.55833e-26
2.08585e-25
1.58716e-24
1.19657e-23
8.99634e-23
6.74365e-22
5.03375e-21
3.73659e-20
2.75489e-19
2.01516e-18
1.46124e-17
1.04966e-16
7.46468e-16
5.25143e-15
3.68356e-14
2.52849e-13
1.71147e-12
1.14112e-11
7.48845e-11
4.83301e-10
3.06551e-09
1.9097e-08
1.16777e-07
7.0058e-07
4.12182e-06
2.37747e-05
0.000134436
0.000745259
0.00405204
0.0216267
0.11347
0.586523
2.99609
15.1907
81.0546
465.109
3128.59
23854.2
197189
1.81667e+06
1.74402e+07
1.603e+08
1.18324e+09
5.03116e+09
1.06772e+10
1.33724e+10
1.37582e+10
1.37622e+10
1.35477e+10
1.25671e+10
1.08716e+10
9.00967e+09
7.3744e+09
6.07626e+09
5.08255e+09
4.32441e+09
3.73879e+09
3.27779e+09
2.90733e+09
2.60362e+09
2.35003e+09
2.13481e+09
1.9495e+09
1.78793e+09
1.64546e+09
1.51859e+09
1.40462e+09
1.30143e+09
1.20736e+09
1.12108e+09
1.04153e+09
9.67877e+08
8.99443e+08
8.35703e+08
7.76329e+08
7.224e+08
6.72589e+08
6.25479e+08
5.81053e+08
5.39143e+08
4.99643e+08
4.62455e+08
4.27488e+08
3.94661e+08
3.63894e+08
3.35106e+08
3.08219e+08
2.83149e+08
2.59812e+08
2.38126e+08
2.18002e+08
1.99353e+08
1.82097e+08
1.66147e+08
1.51421e+08
1.37837e+08
1.25322e+08
1.13804e+08
1.0321e+08
9.34721e+07
8.45426e+07
7.63526e+07
6.88526e+07
6.1993e+07
5.5727e+07
5.00113e+07
4.48053e+07
4.00711e+07
3.57661e+07
3.18661e+07
2.83348e+07
2.51491e+07
2.22687e+07
1.96743e+07
1.73411e+07
1.52462e+07
1.33687e+07
1.16887e+07
1.01863e+07
8.85016e+06
7.65911e+06
6.60081e+06
5.66255e+06
4.83203e+06
4.09858e+06
3.45224e+06
2.88371e+06
2.38493e+06
1.94829e+06
1.5674e+06
1.23522e+06
946577
694662
479494
291137
125710
-24232.2
-176376
-339151
-456796
-484709
-516440
-550508
-582248
-610344
-633457
-653395
-669098
-681184
-690290
-696688
-701766
-704869
-706722
-706969
-707748
-707551
-706906
-706319
-705247
-704180
-703421
-702538
-701982
-701581
-701358
-701515
-701464
-701368
-701869
-702580
-703020
-703545
-704211
-704946
-705678
-706928
-707855
-708843
-709671
-710696
-711742
-712805
-713882
-714972
-716071
-717179
-718293
-719412
-720534
-721660
-722788
-723917
-725047
-726177
-727307
-728436
-729564
-730690
-731814
-732937
-734059
-735183
-736308
-737433
-738549
-739656
-740754
-741845
-742929
-744005
-745075
-746137
-747192
-748242
-749283
-750314
-751337
-752352
-753360
-754353
-755331
-756284
-757192
-757994
-758854
-759745
-760647
-761547
-762442
-763327
-764201
-765064
-765909
-766747
-767571
-768381
-769170
-769915
-770678
-771451
-772256
-773426
-774235
-774957
-775639
-776295
-776929
-777544
-778142
-778722
-779286
-779835
-780368
-780886
-781461
-781951
-782429
-782899
-782994
-783467
-783924
-784299
)
;

boundaryField
{
    boundary
    {
        type            empty;
    }
    inlet
    {
        type            calculated;
        value           uniform 0;
    }
    outlet
    {
        type            calculated;
        value           uniform 0;
    }
}


// ************************************************************************* //
