/*--------------------------------*- C++ -*----------------------------------*\
  =========                 |
  \\      /  F ield         | OpenFOAM: The Open Source CFD Toolbox
   \\    /   O peration     | Website:  https://openfoam.org
    \\  /    A nd           | Version:  7
     \\/     M anipulation  |
\*---------------------------------------------------------------------------*/
FoamFile
{
    version     2.0;
    format      ascii;
    class       volScalarField;
    location    "0.0001";
    object      rho;
}
// * * * * * * * * * * * * * * * * * * * * * * * * * * * * * * * * * * * * * //

dimensions      [1 -3 0 0 0 0 0];

internalField   nonuniform List<scalar> 
500
(
0.86255
0.862354
0.862049
0.861652
0.861196
0.860727
0.860285
0.8599
0.859589
0.859351
0.859181
0.859064
0.858989
0.858942
0.858914
0.858899
0.85889
0.858886
0.858884
0.858883
0.858883
0.858883
0.858883
0.858883
0.858883
0.858884
0.858884
0.858884
0.858885
0.858885
0.858885
0.858886
0.858886
0.858886
0.858887
0.858887
0.858888
0.858888
0.858888
0.858889
0.858889
0.85889
0.85889
0.858891
0.858891
0.858892
0.858892
0.858893
0.858893
0.858894
0.858894
0.858895
0.858895
0.858896
0.858897
0.858897
0.858898
0.858898
0.858899
0.8589
0.8589
0.858901
0.858901
0.858902
0.858903
0.858903
0.858904
0.858905
0.858905
0.858906
0.858907
0.858907
0.858908
0.858909
0.858909
0.85891
0.858911
0.858911
0.858912
0.858913
0.858913
0.858914
0.858915
0.858916
0.858916
0.858917
0.858918
0.858918
0.858919
0.85892
0.858921
0.858921
0.858922
0.858923
0.858923
0.858924
0.858925
0.858926
0.858926
0.858927
0.858928
0.858928
0.858929
0.85893
0.858931
0.858931
0.858932
0.858933
0.858933
0.858934
0.858935
0.858936
0.858936
0.858937
0.858938
0.858938
0.858939
0.85894
0.858941
0.858941
0.858942
0.858943
0.858944
0.858944
0.858946
0.858947
0.858948
0.858949
0.85895
0.85895
0.858951
0.858951
0.858952
0.858952
0.858953
0.858953
0.858954
0.858954
0.858955
0.858956
0.858957
0.858958
0.858958
0.858959
0.85896
0.858961
0.858962
0.858963
0.858964
0.858965
0.858966
0.858967
0.858968
0.858969
0.85897
0.858971
0.858973
0.858974
0.858975
0.858977
0.858978
0.858979
0.858981
0.858983
0.858984
0.858986
0.858988
0.858989
0.858991
0.858993
0.858995
0.858997
0.859
0.859002
0.859004
0.859007
0.859009
0.859012
0.859015
0.859018
0.859021
0.859024
0.859027
0.85903
0.859034
0.859037
0.859041
0.859045
0.859049
0.859053
0.859057
0.859062
0.859066
0.859071
0.859076
0.859081
0.859086
0.859091
0.859097
0.859102
0.859108
0.859114
0.85912
0.859126
0.859133
0.859139
0.859146
0.859153
0.85916
0.859167
0.859174
0.859182
0.85919
0.859197
0.859205
0.859213
0.859222
0.85923
0.859238
0.859247
0.859256
0.859264
0.859273
0.859282
0.859292
0.859301
0.85931
0.859319
0.859329
0.859338
0.859348
0.859358
0.859367
0.859377
0.859387
0.859397
0.859407
0.859416
0.859426
0.859436
0.859446
0.859456
0.859466
0.859477
0.859487
0.859497
0.859507
0.859517
0.859528
0.859539
0.85955
0.859561
0.859572
0.859583
0.859594
0.859604
0.859615
0.859626
0.859637
0.859648
0.85966
0.859672
0.859684
0.859697
0.859709
0.859722
0.859736
0.85975
0.859764
0.859779
0.859795
0.859808
0.859803
0.859709
0.85926
0.857541
0.851628
0.833121
0.782905
0.679603
0.54216
0.423853
0.344257
0.29246
0.256858
0.231497
0.213539
0.201359
0.190605
0.1841
0.178924
0.174764
0.17136
0.16852
0.166111
0.164037
0.162227
0.160631
0.159207
0.157925
0.156757
0.155683
0.154684
0.153744
0.152849
0.151987
0.151147
0.150319
0.149497
0.148673
0.147843
0.147004
0.146176
0.145351
0.144506
0.143644
0.142766
0.141874
0.140972
0.140062
0.139149
0.138237
0.13733
0.136434
0.135554
0.134693
0.133855
0.133046
0.132269
0.131526
0.13082
0.130154
0.129529
0.128946
0.128407
0.12791
0.127456
0.127045
0.126674
0.126344
0.126052
0.125796
0.125575
0.125385
0.125226
0.125094
0.124988
0.124904
0.12484
0.124795
0.124765
0.12475
0.124746
0.124752
0.124766
0.124787
0.124813
0.124843
0.124877
0.124912
0.124948
0.124985
0.125021
0.125057
0.125092
0.125125
0.125157
0.125187
0.125215
0.125241
0.125266
0.125288
0.125308
0.125326
0.125341
0.125353
0.125364
0.125377
0.125389
0.125399
0.125408
0.125416
0.125423
0.125429
0.125434
0.125439
0.125443
0.125446
0.125448
0.125451
0.125453
0.125454
0.125455
0.125456
0.125457
0.125457
0.125458
0.125458
0.125458
0.125458
0.125458
0.125458
0.125457
0.125457
0.125457
0.125456
0.125456
0.125455
0.125455
0.125454
0.125454
0.125453
0.125453
0.125452
0.125452
0.125451
0.125451
0.12545
0.12545
0.125449
0.125449
0.125448
0.125448
0.125447
0.125447
0.125446
0.125446
0.125445
0.125445
0.125444
0.125444
0.125443
0.125442
0.125442
0.125441
0.125441
0.12544
0.12544
0.125439
0.125439
0.125438
0.125438
0.125437
0.125437
0.125436
0.125436
0.125435
0.125435
0.125434
0.125434
0.125433
0.125433
0.125433
0.125432
0.125432
0.125431
0.125431
0.12543
0.12543
0.125429
0.125429
0.125429
0.125428
0.125428
0.125427
0.125427
0.125426
0.125426
0.125426
0.125425
0.125425
0.125425
0.125424
0.125424
0.125423
0.125423
0.125423
0.125422
0.125422
0.125422
0.125421
0.125421
0.125421
0.12542
0.12542
0.12542
0.12542
0.125419
0.125419
0.125419
0.125419
0.125418
0.125418
0.125418
0.125418
0.125417
0.125417
0.125417
0.125417
0.125416
)
;

boundaryField
{
    boundary
    {
        type            empty;
    }
    inlet
    {
        type            calculated;
        value           uniform 0.862615;
    }
    outlet
    {
        type            calculated;
        value           uniform 0.125416;
    }
}


// ************************************************************************* //
