/*--------------------------------*- C++ -*----------------------------------*\
  =========                 |
  \\      /  F ield         | OpenFOAM: The Open Source CFD Toolbox
   \\    /   O peration     | Website:  https://openfoam.org
    \\  /    A nd           | Version:  7
     \\/     M anipulation  |
\*---------------------------------------------------------------------------*/
FoamFile
{
    version     2.0;
    format      ascii;
    class       volScalarField;
    location    "0.0001";
    object      T;
}
// * * * * * * * * * * * * * * * * * * * * * * * * * * * * * * * * * * * * * //

dimensions      [0 0 0 1 0 0 0];

internalField   nonuniform List<scalar> 
500
(
300.023
300.091
300.197
300.335
300.494
300.658
300.813
300.947
301.056
301.14
301.2
301.24
301.267
301.283
301.293
301.299
301.302
301.303
301.304
301.305
301.305
301.305
301.305
301.305
301.305
301.305
301.305
301.305
301.305
301.305
301.306
301.306
301.306
301.306
301.306
301.306
301.306
301.306
301.306
301.306
301.306
301.306
301.306
301.306
301.307
301.307
301.307
301.307
301.307
301.307
301.307
301.307
301.307
301.307
301.308
301.308
301.308
301.308
301.308
301.308
301.308
301.308
301.309
301.309
301.309
301.309
301.309
301.309
301.309
301.31
301.31
301.31
301.31
301.31
301.31
301.311
301.311
301.311
301.311
301.311
301.312
301.312
301.312
301.312
301.313
301.313
301.313
301.313
301.314
301.314
301.314
301.314
301.315
301.315
301.315
301.315
301.316
301.316
301.316
301.317
301.317
301.317
301.317
301.318
301.318
301.318
301.319
301.319
301.319
301.32
301.32
301.32
301.321
301.321
301.322
301.322
301.322
301.323
301.323
301.323
301.324
301.324
301.324
301.325
301.325
301.325
301.325
301.326
301.326
301.327
301.327
301.328
301.328
301.329
301.329
301.33
301.33
301.33
301.331
301.331
301.332
301.332
301.332
301.333
301.333
301.333
301.334
301.334
301.334
301.335
301.335
301.335
301.335
301.336
301.336
301.336
301.336
301.337
301.337
301.337
301.337
301.337
301.337
301.337
301.337
301.337
301.337
301.337
301.337
301.337
301.337
301.337
301.337
301.337
301.336
301.336
301.336
301.335
301.335
301.335
301.334
301.333
301.333
301.332
301.332
301.331
301.33
301.329
301.328
301.327
301.326
301.325
301.324
301.323
301.322
301.321
301.319
301.318
301.317
301.315
301.314
301.312
301.31
301.309
301.307
301.305
301.303
301.301
301.299
301.297
301.295
301.292
301.29
301.288
301.285
301.283
301.281
301.278
301.275
301.273
301.27
301.267
301.265
301.262
301.259
301.256
301.253
301.25
301.247
301.244
301.241
301.238
301.235
301.232
301.229
301.226
301.223
301.22
301.216
301.213
301.21
301.207
301.204
301.2
301.197
301.194
301.191
301.187
301.184
301.18
301.177
301.173
301.169
301.166
301.162
301.159
301.155
301.152
301.148
301.145
301.141
301.137
301.133
301.129
301.124
301.12
301.116
301.111
301.106
301.102
301.098
301.098
301.112
301.172
301.394
302.144
304.561
312.005
333.413
386.838
489.805
633.943
790.073
940.83
1082.03
1209.91
1318.89
1404.35
1487.47
1543.75
1591.54
1632.2
1667.12
1697.47
1724.13
1747.77
1768.92
1787.98
1805.29
1821.14
1835.76
1849.38
1862.19
1874.35
1886.05
1897.41
1908.58
1919.69
1930.84
1942.12
1953.61
1965.37
1977.11
1988.96
2001.26
2013.97
2027.12
2040.67
2054.61
2068.9
2083.48
2098.3
2113.29
2128.38
2143.5
2158.57
2173.51
2188.24
2202.68
2216.78
2230.45
2243.64
2256.31
2268.39
2279.87
2290.7
2300.88
2310.38
2319.22
2327.38
2334.88
2341.74
2347.98
2353.63
2358.71
2363.26
2367.32
2370.91
2374.08
2376.86
2379.29
2381.4
2383.23
2384.81
2386.16
2387.31
2388.3
2389.13
2389.84
2390.44
2390.94
2391.37
2391.73
2392.03
2392.28
2392.5
2392.68
2392.84
2392.98
2393.09
2393.2
2393.29
2393.39
2393.48
2393.59
2393.72
2393.8
2393.83
2393.85
2393.87
2393.88
2393.9
2393.91
2393.93
2393.94
2393.95
2393.96
2393.97
2393.98
2393.99
2394
2394.01
2394.02
2394.03
2394.04
2394.05
2394.05
2394.06
2394.07
2394.08
2394.09
2394.1
2394.11
2394.12
2394.13
2394.13
2394.14
2394.15
2394.16
2394.17
2394.18
2394.19
2394.19
2394.2
2394.21
2394.22
2394.23
2394.24
2394.24
2394.25
2394.26
2394.27
2394.28
2394.28
2394.29
2394.3
2394.31
2394.32
2394.33
2394.33
2394.34
2394.35
2394.36
2394.37
2394.37
2394.38
2394.39
2394.4
2394.4
2394.41
2394.42
2394.43
2394.44
2394.44
2394.45
2394.46
2394.47
2394.47
2394.48
2394.49
2394.49
2394.5
2394.51
2394.52
2394.52
2394.53
2394.54
2394.54
2394.55
2394.56
2394.56
2394.57
2394.57
2394.58
2394.59
2394.59
2394.6
2394.6
2394.61
2394.62
2394.62
2394.63
2394.63
2394.64
2394.64
2394.65
2394.65
2394.65
2394.66
2394.66
2394.67
2394.67
2394.68
2394.68
2394.68
2394.69
2394.69
2394.69
2394.7
2394.7
2394.7
2394.7
2394.71
2394.71
2394.71
2394.71
2394.72
2394.72
2394.72
2394.72
)
;

boundaryField
{
    boundary
    {
        type            empty;
    }
    inlet
    {
        type            fixedValue;
        value           uniform 300;
    }
    outlet
    {
        type            zeroGradient;
    }
}


// ************************************************************************* //
