/*--------------------------------*- C++ -*----------------------------------*\
  =========                 |
  \\      /  F ield         | OpenFOAM: The Open Source CFD Toolbox
   \\    /   O peration     | Website:  https://openfoam.org
    \\  /    A nd           | Version:  7
     \\/     M anipulation  |
\*---------------------------------------------------------------------------*/
FoamFile
{
    version     2.0;
    format      ascii;
    class       volScalarField;
    location    "0.00017";
    object      T;
}
// * * * * * * * * * * * * * * * * * * * * * * * * * * * * * * * * * * * * * //

dimensions      [0 0 0 1 0 0 0];

internalField   nonuniform List<scalar> 
125
(
300.011
300.038
300.078
300.13
300.192
300.267
300.353
300.452
300.559
300.673
300.789
300.902
301.008
301.103
301.186
301.255
301.31
301.354
301.386
301.41
301.427
301.438
301.446
301.451
301.454
301.456
301.457
301.458
301.458
301.458
301.458
301.459
301.459
301.459
301.459
301.459
301.459
301.459
301.459
301.459
301.459
301.459
301.459
301.459
301.459
301.459
301.459
301.459
301.459
301.459
301.459
301.459
301.459
301.459
301.459
301.459
301.459
301.459
301.459
301.459
301.46
301.46
301.46
301.46
301.46
301.46
301.46
301.46
301.46
301.46
301.46
301.46
301.46
301.46
301.46
301.461
301.461
301.461
301.461
301.461
301.461
301.461
301.461
301.461
301.461
301.462
301.462
301.462
301.462
301.462
301.462
301.462
301.462
301.463
301.463
301.463
301.463
301.463
301.463
301.463
301.464
301.464
301.464
301.464
301.464
301.465
301.465
301.465
301.465
301.465
301.466
301.466
301.466
301.466
301.466
301.467
301.467
301.467
301.467
301.468
301.468
301.468
301.468
301.468
301.469
)
;

boundaryField
{
    boundary
    {
        type            empty;
    }
    inlet
    {
        type            fixedValue;
        value           uniform 300;
    }
    outlet
    {
        type            zeroGradient;
    }
    procBoundary2to3
    {
        type            processor;
        value           uniform 301.469;
    }
}


// ************************************************************************* //
