/*--------------------------------*- C++ -*----------------------------------*\
  =========                 |
  \\      /  F ield         | OpenFOAM: The Open Source CFD Toolbox
   \\    /   O peration     | Website:  https://openfoam.org
    \\  /    A nd           | Version:  7
     \\/     M anipulation  |
\*---------------------------------------------------------------------------*/
FoamFile
{
    version     2.0;
    format      ascii;
    class       volVectorField;
    location    "0.00017";
    object      U;
}
// * * * * * * * * * * * * * * * * * * * * * * * * * * * * * * * * * * * * * //

dimensions      [0 1 -1 0 0 0 0];

internalField   nonuniform List<vector> 
125
(
(2.34895 0 0)
(2.3491 0 0)
(2.34916 0 0)
(2.34918 0 0)
(2.34923 0 0)
(2.3493 0 0)
(2.34937 0 0)
(2.34942 0 0)
(2.34946 0 0)
(2.34945 0 0)
(2.3494 0 0)
(2.34932 0 0)
(2.3492 0 0)
(2.34905 0 0)
(2.3489 0 0)
(2.34874 0 0)
(2.34858 0 0)
(2.34844 0 0)
(2.34832 0 0)
(2.34821 0 0)
(2.34812 0 0)
(2.34804 0 0)
(2.34797 0 0)
(2.34791 0 0)
(2.34785 0 0)
(2.3478 0 0)
(2.34776 0 0)
(2.34771 0 0)
(2.34767 0 0)
(2.34762 0 0)
(2.34758 0 0)
(2.34753 0 0)
(2.34749 0 0)
(2.34745 0 0)
(2.3474 0 0)
(2.34736 0 0)
(2.34732 0 0)
(2.34727 0 0)
(2.34723 0 0)
(2.34718 0 0)
(2.34714 0 0)
(2.34709 0 0)
(2.34705 0 0)
(2.347 0 0)
(2.34695 0 0)
(2.34691 0 0)
(2.34686 0 0)
(2.34682 0 0)
(2.34677 0 0)
(2.34672 0 0)
(2.34667 0 0)
(2.34663 0 0)
(2.34658 0 0)
(2.34653 0 0)
(2.34648 0 0)
(2.34643 0 0)
(2.34638 0 0)
(2.34633 0 0)
(2.34628 0 0)
(2.34623 0 0)
(2.34618 0 0)
(2.34613 0 0)
(2.34608 0 0)
(2.34603 0 0)
(2.34598 0 0)
(2.34593 0 0)
(2.34587 0 0)
(2.34582 0 0)
(2.34577 0 0)
(2.34571 0 0)
(2.34566 0 0)
(2.3456 0 0)
(2.34555 0 0)
(2.34549 0 0)
(2.34544 0 0)
(2.34538 0 0)
(2.34532 0 0)
(2.34527 0 0)
(2.34521 0 0)
(2.34515 0 0)
(2.34509 0 0)
(2.34504 0 0)
(2.34498 0 0)
(2.34492 0 0)
(2.34486 0 0)
(2.3448 0 0)
(2.34473 0 0)
(2.34467 0 0)
(2.34461 0 0)
(2.34455 0 0)
(2.34449 0 0)
(2.34442 0 0)
(2.34436 0 0)
(2.34429 0 0)
(2.34423 0 0)
(2.34416 0 0)
(2.3441 0 0)
(2.34403 0 0)
(2.34396 0 0)
(2.34389 0 0)
(2.34383 0 0)
(2.34376 0 0)
(2.34369 0 0)
(2.34362 0 0)
(2.34355 0 0)
(2.34348 0 0)
(2.3434 0 0)
(2.34333 0 0)
(2.34326 0 0)
(2.34318 0 0)
(2.34311 0 0)
(2.34304 0 0)
(2.34296 0 0)
(2.34288 0 0)
(2.34281 0 0)
(2.34273 0 0)
(2.34265 0 0)
(2.34257 0 0)
(2.34249 0 0)
(2.34241 0 0)
(2.34233 0 0)
(2.34225 0 0)
(2.34217 0 0)
(2.34209 0 0)
(2.342 0 0)
)
;

boundaryField
{
    boundary
    {
        type            empty;
    }
    inlet
    {
        type            fixedValue;
        value           uniform (2.34893 0 0);
    }
    outlet
    {
        type            zeroGradient;
    }
    procBoundary2to3
    {
        type            processor;
        value           uniform (2.34191 0 0);
    }
}


// ************************************************************************* //
