/*--------------------------------*- C++ -*----------------------------------*\
  =========                 |
  \\      /  F ield         | OpenFOAM: The Open Source CFD Toolbox
   \\    /   O peration     | Website:  https://openfoam.org
    \\  /    A nd           | Version:  7
     \\/     M anipulation  |
\*---------------------------------------------------------------------------*/
FoamFile
{
    version     2.0;
    format      ascii;
    class       volScalarField;
    location    "0.00063";
    object      H;
}
// * * * * * * * * * * * * * * * * * * * * * * * * * * * * * * * * * * * * * //

dimensions      [0 0 0 0 0 0 0];

internalField   nonuniform List<scalar> 
500
(
1.48209e-41
2.00296e-41
2.11102e-41
2.13058e-41
2.1317e-41
2.12957e-41
2.12749e-41
2.12615e-41
2.12566e-41
2.12596e-41
2.12696e-41
2.12855e-41
2.13063e-41
2.13312e-41
2.13597e-41
2.13914e-41
2.14264e-41
2.14648e-41
2.15072e-41
2.15543e-41
2.1607e-41
2.16666e-41
2.17344e-41
2.18119e-41
2.19011e-41
2.20036e-41
2.21216e-41
2.22569e-41
2.24118e-41
2.25882e-41
2.2788e-41
2.30131e-41
2.32648e-41
2.35443e-41
2.38525e-41
2.41896e-41
2.45553e-41
2.49489e-41
2.53688e-41
2.58129e-41
2.62784e-41
2.6762e-41
2.72598e-41
2.77671e-41
2.82794e-41
2.87916e-41
2.92987e-41
2.97956e-41
3.02777e-41
3.07406e-41
3.11805e-41
3.15944e-41
3.19797e-41
3.23347e-41
3.26585e-41
3.29508e-41
3.3212e-41
3.34432e-41
3.36457e-41
3.38214e-41
3.39724e-41
3.41009e-41
3.42093e-41
3.42998e-41
3.43748e-41
3.44364e-41
3.44864e-41
3.45268e-41
3.45591e-41
3.45847e-41
3.46049e-41
3.46206e-41
3.46328e-41
3.46422e-41
3.46494e-41
3.46548e-41
3.4659e-41
3.46621e-41
3.46645e-41
3.46663e-41
3.46676e-41
3.46687e-41
3.46695e-41
3.46702e-41
3.46707e-41
3.46712e-41
3.46717e-41
3.46721e-41
3.46725e-41
3.46728e-41
3.46732e-41
3.46736e-41
3.4674e-41
3.46744e-41
3.46749e-41
3.46753e-41
3.46758e-41
3.46763e-41
3.46768e-41
3.46773e-41
3.46779e-41
3.46785e-41
3.46791e-41
3.46797e-41
3.46804e-41
3.4681e-41
3.46817e-41
3.46825e-41
3.46833e-41
3.4684e-41
3.46849e-41
3.46857e-41
3.46866e-41
3.46875e-41
3.46885e-41
3.46895e-41
3.46905e-41
3.46916e-41
3.46927e-41
3.46938e-41
3.4695e-41
3.46965e-41
3.46983e-41
3.47015e-41
3.47077e-41
3.47144e-41
3.47149e-41
3.47151e-41
3.47151e-41
3.4715e-41
3.47149e-41
3.47148e-41
3.47148e-41
3.47151e-41
3.47156e-41
3.47165e-41
3.47177e-41
3.47192e-41
3.4721e-41
3.47229e-41
3.47249e-41
3.47271e-41
3.47293e-41
3.47315e-41
3.47338e-41
3.4736e-41
3.47382e-41
3.47405e-41
3.47427e-41
3.47449e-41
3.47471e-41
3.47493e-41
3.47516e-41
3.47538e-41
3.47561e-41
3.47584e-41
3.47607e-41
3.4763e-41
3.47654e-41
3.47678e-41
3.47702e-41
3.47727e-41
3.47752e-41
3.47777e-41
3.47802e-41
3.47828e-41
3.47854e-41
3.4788e-41
3.47906e-41
3.47933e-41
3.47959e-41
3.47986e-41
3.48012e-41
3.48039e-41
3.48065e-41
3.4809e-41
3.48116e-41
3.4814e-41
3.48164e-41
3.48188e-41
3.4821e-41
3.48232e-41
3.48253e-41
3.48273e-41
3.48292e-41
3.48309e-41
3.48326e-41
3.48341e-41
3.48355e-41
3.48368e-41
3.48378e-41
3.48388e-41
3.48396e-41
3.48402e-41
3.48406e-41
3.48408e-41
3.48408e-41
3.48406e-41
3.48402e-41
3.48396e-41
3.48387e-41
3.48376e-41
3.48362e-41
3.48346e-41
3.48326e-41
3.48304e-41
3.48278e-41
3.4825e-41
3.48218e-41
3.48184e-41
3.4815e-41
3.48124e-41
3.48139e-41
3.4831e-41
3.49056e-41
3.51863e-41
3.61995e-41
3.97946e-41
5.24242e-41
9.64476e-41
2.48815e-40
7.72582e-40
2.56106e-39
8.6282e-39
2.90782e-38
9.75755e-38
3.25604e-37
1.0802e-36
3.56296e-36
1.16863e-35
3.81235e-35
1.23725e-34
3.99558e-34
1.28433e-33
4.11023e-33
1.31004e-32
4.15979e-32
1.31636e-31
4.15299e-31
1.30682e-30
4.10356e-30
1.28664e-29
4.03121e-29
1.26337e-28
3.96564e-28
1.24899e-27
3.95657e-27
1.26469e-26
4.09601e-26
1.35109e-25
4.56567e-25
1.59755e-24
5.77101e-24
2.16226e-23
8.41314e-23
3.3911e-22
1.40935e-21
6.00558e-21
2.60961e-20
1.15103e-19
5.13593e-19
2.31359e-18
1.05146e-17
4.82479e-17
2.24072e-16
1.0577e-15
5.10631e-15
2.54153e-14
1.31567e-13
7.26702e-13
4.68881e-12
4.03228e-11
3.83933e-10
3.56862e-09
3.34826e-08
3.04877e-07
2.5364e-06
1.72041e-05
8.10874e-05
0.000238241
0.000489053
0.000814415
0.00117688
0.00150955
0.0017509
0.00188347
0.00192702
0.00190852
0.00185599
0.00178679
0.00171151
0.00163608
0.0015636
0.00149547
0.00143217
0.00137368
0.00131974
0.00127001
0.00122408
0.00118158
0.00114216
0.00110551
0.00107134
0.00103942
0.00100951
0.000981428
0.000955009
0.000930104
0.000906582
0.000884327
0.000863238
0.000843222
0.000824757
0.000807558
0.000791054
0.000775204
0.000759969
0.000745313
0.000731201
0.000717604
0.000704492
0.000691839
0.00067962
0.000667813
0.000656395
0.000645348
0.000634653
0.000624293
0.000614251
0.000604514
0.000595066
0.000585894
0.000576987
0.000568332
0.000559919
0.000551738
0.000543778
0.00053603
0.000528487
0.000521139
0.000513979
0.000507
0.000500195
0.000493556
0.000487079
0.000480757
0.000474584
0.000468556
0.000462666
0.000456911
0.000451285
0.000445784
0.000440405
0.000435142
0.000429992
0.000424952
0.000420018
0.000415186
0.000410454
0.000405819
0.000401277
0.000396825
0.000392462
0.000388184
0.000383989
0.000379875
0.000375839
0.00037188
0.000367994
0.000364181
0.000360438
0.000356764
0.000353156
0.000349614
0.000346136
0.000342721
0.000339362
0.000336058
0.00033281
0.000329618
0.00032648
0.000323394
0.00032036
0.000317376
0.000314442
0.000311555
0.000308714
0.00030592
0.00030317
0.000300463
0.0002978
0.000295178
0.000292596
0.000290055
0.000287553
0.000285089
0.000282662
0.000280272
0.000277918
0.000275599
0.000273315
0.000271065
0.000268848
0.000266663
0.00026451
0.000262389
0.000260299
0.000258239
0.000256208
0.000254207
0.000252235
0.000250291
0.000248374
0.000246486
0.000244624
0.000242788
0.000240979
0.000239196
0.000237438
0.000235705
0.000233997
0.000232314
0.000230654
0.000229019
0.000227406
0.000225817
0.000224251
0.000222708
0.000221187
0.000219689
0.000218212
0.000216758
0.000215324
0.000213912
0.000212522
0.000211152
0.000209803
0.000208474
0.000207166
0.000205878
0.000204611
0.000203363
0.000202134
0.000200925
0.000199735
0.000198563
0.000197408
0.000196267
0.000195131
0.000193975
0.000192776
0.000191698
0.00019064
0.0001896
0.000188575
0.000187566
0.000186572
0.000185592
0.000184626
0.000183674
0.000182734
0.000181806
0.000180891
0.000179986
0.000179092
0.000178208
0.000177333
0.000176467
0.00017561
0.000174759
0.000173915
0.000173078
0.000172245
0.000171418
0.000170594
0.000169773
0.000168955
0.000168138
0.000167323
0.000166508
0.000165693
0.000164877
0.00016406
0.000163241
0.000162421
0.000161599
0.000160775
0.000159949
0.000159122
0.000158296
0.00015747
0.000156649
0.000155834
0.000155032
0.000154249
0.000153498
0.000152798
0.000152177
0.000151683
0.000151389
)
;

boundaryField
{
    boundary
    {
        type            empty;
    }
    inlet
    {
        type            fixedValue;
        value           uniform 0;
    }
    outlet
    {
        type            zeroGradient;
    }
}


// ************************************************************************* //
