/*--------------------------------*- C++ -*----------------------------------*\
  =========                 |
  \\      /  F ield         | OpenFOAM: The Open Source CFD Toolbox
   \\    /   O peration     | Website:  https://openfoam.org
    \\  /    A nd           | Version:  7
     \\/     M anipulation  |
\*---------------------------------------------------------------------------*/
FoamFile
{
    version     2.0;
    format      ascii;
    class       volScalarField;
    location    "0.00063";
    object      H2O2;
}
// * * * * * * * * * * * * * * * * * * * * * * * * * * * * * * * * * * * * * //

dimensions      [0 0 0 0 0 0 0];

internalField   nonuniform List<scalar> 
500
(
1.98573e-52
6.37449e-52
1.26665e-51
2.08666e-51
3.09827e-51
4.30257e-51
5.70081e-51
7.29429e-51
9.08425e-51
1.10719e-50
1.32582e-50
1.56445e-50
1.8232e-50
2.10222e-50
2.40172e-50
2.72197e-50
3.06333e-50
3.42627e-50
3.81139e-50
4.21947e-50
4.65144e-50
5.10845e-50
5.59187e-50
6.10327e-50
6.64446e-50
7.21742e-50
7.82431e-50
8.46735e-50
9.14879e-50
9.87076e-50
1.06352e-49
1.14435e-49
1.22968e-49
1.31952e-49
1.41381e-49
1.51239e-49
1.61499e-49
1.72119e-49
1.83049e-49
1.94225e-49
2.0557e-49
2.17002e-49
2.28428e-49
2.39754e-49
2.5088e-49
2.61714e-49
2.72162e-49
2.82144e-49
2.91588e-49
3.00433e-49
3.08636e-49
3.16166e-49
3.23009e-49
3.29163e-49
3.34641e-49
3.39469e-49
3.4368e-49
3.47315e-49
3.50423e-49
3.53052e-49
3.55254e-49
3.57082e-49
3.58582e-49
3.59803e-49
3.60787e-49
3.61572e-49
3.62193e-49
3.6268e-49
3.63058e-49
3.63349e-49
3.63571e-49
3.63739e-49
3.63865e-49
3.63959e-49
3.64028e-49
3.64079e-49
3.64117e-49
3.64144e-49
3.64164e-49
3.64179e-49
3.64189e-49
3.64198e-49
3.64204e-49
3.64209e-49
3.64213e-49
3.64217e-49
3.64221e-49
3.64224e-49
3.64227e-49
3.64231e-49
3.64235e-49
3.64238e-49
3.64242e-49
3.64246e-49
3.64251e-49
3.64255e-49
3.6426e-49
3.64266e-49
3.64271e-49
3.64277e-49
3.64283e-49
3.64289e-49
3.64296e-49
3.64303e-49
3.64311e-49
3.64319e-49
3.64327e-49
3.64335e-49
3.64344e-49
3.64354e-49
3.64363e-49
3.64374e-49
3.64384e-49
3.64395e-49
3.64407e-49
3.64419e-49
3.64432e-49
3.64444e-49
3.64458e-49
3.64471e-49
3.64483e-49
3.64488e-49
3.64465e-49
3.6433e-49
3.63746e-49
3.62576e-49
3.62593e-49
3.62609e-49
3.62626e-49
3.62644e-49
3.62664e-49
3.62687e-49
3.62714e-49
3.62747e-49
3.62787e-49
3.62836e-49
3.62895e-49
3.62966e-49
3.6305e-49
3.63147e-49
3.63256e-49
3.63377e-49
3.63508e-49
3.63644e-49
3.63783e-49
3.6392e-49
3.6405e-49
3.64171e-49
3.64278e-49
3.64368e-49
3.6444e-49
3.64494e-49
3.6453e-49
3.6455e-49
3.64558e-49
3.64555e-49
3.64547e-49
3.64537e-49
3.64528e-49
3.64524e-49
3.64527e-49
3.64541e-49
3.64565e-49
3.64601e-49
3.64648e-49
3.64708e-49
3.64777e-49
3.64856e-49
3.64942e-49
3.65033e-49
3.65129e-49
3.65227e-49
3.65324e-49
3.65421e-49
3.65515e-49
3.65606e-49
3.65692e-49
3.65773e-49
3.65848e-49
3.65918e-49
3.65982e-49
3.6604e-49
3.66092e-49
3.66139e-49
3.66181e-49
3.66218e-49
3.66251e-49
3.6628e-49
3.66304e-49
3.66326e-49
3.66343e-49
3.66358e-49
3.66369e-49
3.66377e-49
3.66382e-49
3.66383e-49
3.66382e-49
3.66377e-49
3.66369e-49
3.66358e-49
3.66343e-49
3.66326e-49
3.66311e-49
3.66331e-49
3.66564e-49
3.68033e-49
3.76513e-49
4.24292e-49
6.90384e-49
2.15868e-48
1.01897e-47
5.37332e-47
2.87768e-46
1.53468e-45
8.12022e-45
4.25988e-44
2.21544e-43
1.14223e-42
5.83846e-42
2.95877e-41
1.48669e-40
7.40726e-40
3.65981e-39
1.79336e-38
8.71627e-38
4.20245e-37
2.01022e-36
9.54152e-36
4.49468e-35
2.10168e-34
9.75684e-34
4.49801e-33
2.0597e-32
9.37067e-32
4.23685e-31
1.90435e-30
8.51179e-30
3.78448e-29
1.67438e-28
7.37422e-28
3.23406e-27
1.41289e-26
6.15106e-26
2.66947e-25
1.15527e-24
4.98723e-24
2.14828e-23
9.23633e-23
3.96461e-22
1.69942e-21
7.27608e-21
3.12994e-20
1.34116e-19
5.73256e-19
2.44821e-18
1.04511e-17
4.46011e-17
1.90294e-16
8.11725e-16
3.4617e-15
1.47588e-14
6.29013e-14
2.67963e-13
1.14087e-12
4.85375e-12
2.06307e-11
8.75899e-11
3.7137e-10
1.57212e-09
6.64359e-09
2.80193e-08
1.17871e-07
4.93647e-07
2.04359e-06
8.15495e-06
2.89639e-05
7.50067e-05
0.000114641
0.000120295
7.964e-05
3.70387e-05
1.48617e-05
6.76208e-06
4.59939e-06
4.52438e-06
5.06325e-06
5.77246e-06
6.25676e-06
6.57226e-06
6.7341e-06
6.77565e-06
6.73029e-06
6.62549e-06
6.48192e-06
6.31429e-06
6.13311e-06
5.94554e-06
5.75647e-06
5.56918e-06
5.38584e-06
5.20785e-06
5.03605e-06
4.87091e-06
4.71265e-06
4.56132e-06
4.41682e-06
4.279e-06
4.14762e-06
4.02246e-06
3.90326e-06
3.78979e-06
3.68186e-06
3.58238e-06
3.4888e-06
3.399e-06
3.31279e-06
3.22999e-06
3.15043e-06
3.07395e-06
3.00041e-06
2.92966e-06
2.86157e-06
2.79602e-06
2.73288e-06
2.67203e-06
2.61338e-06
2.5568e-06
2.50222e-06
2.44953e-06
2.39865e-06
2.34949e-06
2.30199e-06
2.25605e-06
2.21162e-06
2.16863e-06
2.12701e-06
2.08671e-06
2.04766e-06
2.00982e-06
1.97313e-06
1.93755e-06
1.90303e-06
1.86953e-06
1.837e-06
1.80541e-06
1.77472e-06
1.7449e-06
1.7159e-06
1.68771e-06
1.66028e-06
1.6336e-06
1.60763e-06
1.58234e-06
1.55772e-06
1.53373e-06
1.51036e-06
1.48758e-06
1.46537e-06
1.44372e-06
1.42259e-06
1.40199e-06
1.38188e-06
1.36225e-06
1.34309e-06
1.32438e-06
1.30611e-06
1.28825e-06
1.27081e-06
1.25376e-06
1.23709e-06
1.2208e-06
1.20487e-06
1.18929e-06
1.17405e-06
1.15914e-06
1.14456e-06
1.13028e-06
1.11628e-06
1.10257e-06
1.08915e-06
1.076e-06
1.06311e-06
1.05049e-06
1.03811e-06
1.02598e-06
1.01409e-06
1.00243e-06
9.90991e-07
9.79771e-07
9.68764e-07
9.57963e-07
9.47364e-07
9.36959e-07
9.26745e-07
9.16716e-07
9.06868e-07
8.97196e-07
8.87695e-07
8.78362e-07
8.69191e-07
8.60179e-07
8.51321e-07
8.42615e-07
8.34056e-07
8.25641e-07
8.17367e-07
8.09229e-07
8.01226e-07
7.93353e-07
7.85608e-07
7.77988e-07
7.7049e-07
7.63111e-07
7.55849e-07
7.487e-07
7.41663e-07
7.34735e-07
7.27914e-07
7.21197e-07
7.14581e-07
7.08066e-07
7.01648e-07
6.95325e-07
6.89095e-07
6.82957e-07
6.76907e-07
6.70945e-07
6.65067e-07
6.59273e-07
6.5356e-07
6.47926e-07
6.4237e-07
6.36889e-07
6.31482e-07
6.26147e-07
6.20883e-07
6.15686e-07
6.10557e-07
6.05492e-07
6.0049e-07
5.9555e-07
5.9067e-07
5.85847e-07
5.81081e-07
5.76368e-07
5.71706e-07
5.67091e-07
5.62517e-07
5.57951e-07
5.5311e-07
5.47499e-07
5.43168e-07
5.38773e-07
5.34375e-07
5.29992e-07
5.25628e-07
5.21282e-07
5.16953e-07
5.12636e-07
5.08329e-07
5.0403e-07
4.99735e-07
4.9544e-07
4.91144e-07
4.86842e-07
4.82532e-07
4.7821e-07
4.73875e-07
4.69523e-07
4.65151e-07
4.60757e-07
4.56339e-07
4.51895e-07
4.47422e-07
4.42918e-07
4.38383e-07
4.33816e-07
4.29214e-07
4.24579e-07
4.19909e-07
4.15206e-07
4.10469e-07
4.05701e-07
4.00902e-07
3.96076e-07
3.91226e-07
3.86355e-07
3.81469e-07
3.76572e-07
3.71671e-07
3.66774e-07
3.61891e-07
3.57037e-07
3.5223e-07
3.47499e-07
3.42893e-07
3.3849e-07
3.34436e-07
3.30998e-07
3.28712e-07
)
;

boundaryField
{
    boundary
    {
        type            empty;
    }
    inlet
    {
        type            fixedValue;
        value           uniform 0;
    }
    outlet
    {
        type            zeroGradient;
    }
}


// ************************************************************************* //
