/*--------------------------------*- C++ -*----------------------------------*\
  =========                 |
  \\      /  F ield         | OpenFOAM: The Open Source CFD Toolbox
   \\    /   O peration     | Website:  https://openfoam.org
    \\  /    A nd           | Version:  7
     \\/     M anipulation  |
\*---------------------------------------------------------------------------*/
FoamFile
{
    version     2.0;
    format      ascii;
    class       volScalarField;
    location    "0.00063";
    object      HO2;
}
// * * * * * * * * * * * * * * * * * * * * * * * * * * * * * * * * * * * * * //

dimensions      [0 0 0 0 0 0 0];

internalField   nonuniform List<scalar> 
500
(
5.5783e-38
1.26803e-37
1.9799e-37
2.69206e-37
3.40474e-37
4.11849e-37
4.83382e-37
5.5511e-37
6.27055e-37
6.99228e-37
7.7163e-37
8.44255e-37
9.17101e-37
9.90171e-37
1.06348e-36
1.13704e-36
1.2109e-36
1.28512e-36
1.35977e-36
1.43496e-36
1.51081e-36
1.58746e-36
1.66511e-36
1.74394e-36
1.82418e-36
1.90608e-36
1.9899e-36
2.0759e-36
2.16435e-36
2.2555e-36
2.34955e-36
2.44669e-36
2.54703e-36
2.65059e-36
2.75732e-36
2.86705e-36
2.9795e-36
3.09429e-36
3.2109e-36
3.32871e-36
3.44702e-36
3.56503e-36
3.6819e-36
3.79675e-36
3.90872e-36
4.01695e-36
4.12068e-36
4.21919e-36
4.3119e-36
4.39834e-36
4.47817e-36
4.5512e-36
4.61736e-36
4.67672e-36
4.72947e-36
4.77587e-36
4.81631e-36
4.8512e-36
4.88102e-36
4.90626e-36
4.92742e-36
4.94499e-36
4.95944e-36
4.97121e-36
4.98072e-36
4.98833e-36
4.99436e-36
4.9991e-36
5.00279e-36
5.00564e-36
5.00782e-36
5.00948e-36
5.01073e-36
5.01167e-36
5.01236e-36
5.01287e-36
5.01325e-36
5.01353e-36
5.01373e-36
5.01388e-36
5.01399e-36
5.01408e-36
5.01414e-36
5.0142e-36
5.01424e-36
5.01428e-36
5.01432e-36
5.01435e-36
5.01439e-36
5.01442e-36
5.01446e-36
5.0145e-36
5.01453e-36
5.01458e-36
5.01462e-36
5.01467e-36
5.01471e-36
5.01477e-36
5.01482e-36
5.01488e-36
5.01494e-36
5.015e-36
5.01507e-36
5.01514e-36
5.01521e-36
5.01529e-36
5.01537e-36
5.01545e-36
5.01554e-36
5.01563e-36
5.01573e-36
5.01583e-36
5.01593e-36
5.01604e-36
5.01615e-36
5.01627e-36
5.01639e-36
5.01652e-36
5.01665e-36
5.01678e-36
5.0169e-36
5.01698e-36
5.01686e-36
5.01596e-36
5.01196e-36
5.00392e-36
5.00408e-36
5.00424e-36
5.0044e-36
5.00456e-36
5.00474e-36
5.00494e-36
5.00518e-36
5.00547e-36
5.00581e-36
5.00622e-36
5.00672e-36
5.0073e-36
5.00798e-36
5.00875e-36
5.00961e-36
5.01055e-36
5.01154e-36
5.01257e-36
5.0136e-36
5.0146e-36
5.01554e-36
5.01639e-36
5.01713e-36
5.01775e-36
5.01823e-36
5.01857e-36
5.0188e-36
5.01892e-36
5.01895e-36
5.01893e-36
5.01889e-36
5.01884e-36
5.01883e-36
5.01887e-36
5.01899e-36
5.01919e-36
5.01948e-36
5.01986e-36
5.02034e-36
5.02091e-36
5.02156e-36
5.02227e-36
5.02303e-36
5.02383e-36
5.02465e-36
5.02549e-36
5.02631e-36
5.02713e-36
5.02791e-36
5.02867e-36
5.02938e-36
5.03006e-36
5.03068e-36
5.03126e-36
5.0318e-36
5.03229e-36
5.03273e-36
5.03313e-36
5.03349e-36
5.03381e-36
5.0341e-36
5.03435e-36
5.03457e-36
5.03476e-36
5.03492e-36
5.03505e-36
5.03515e-36
5.03522e-36
5.03527e-36
5.03528e-36
5.03527e-36
5.03522e-36
5.03515e-36
5.03504e-36
5.03489e-36
5.03471e-36
5.0345e-36
5.03425e-36
5.03395e-36
5.03362e-36
5.03324e-36
5.03282e-36
5.03236e-36
5.03185e-36
5.03129e-36
5.03068e-36
5.03003e-36
5.02939e-36
5.02889e-36
5.02906e-36
5.03182e-36
5.04397e-36
5.08975e-36
5.25459e-36
5.83783e-36
7.8812e-36
1.49874e-35
3.95403e-35
1.23865e-34
4.11861e-34
1.39049e-33
4.70118e-33
1.58608e-32
5.33799e-32
1.79362e-31
6.02552e-31
2.02759e-30
6.84992e-30
2.32959e-29
7.99992e-29
2.78287e-28
9.83677e-28
3.54255e-27
1.30221e-26
4.88964e-26
1.87465e-25
7.32779e-25
2.91388e-24
1.17566e-23
4.79997e-23
1.97817e-22
8.2114e-22
3.42703e-21
1.43597e-20
6.03417e-20
2.55493e-19
1.08008e-18
4.56195e-18
1.9273e-17
8.14469e-17
3.44243e-16
1.45495e-15
6.14821e-15
2.59716e-14
1.09654e-13
4.62643e-13
1.95019e-12
8.21147e-12
3.45284e-11
1.44955e-10
6.07414e-10
2.53992e-09
1.05956e-08
4.40774e-08
1.82659e-07
7.51812e-07
3.05462e-06
1.21007e-05
4.52908e-05
0.00014904
0.000365174
0.000516406
0.000484454
0.000379036
0.000272592
0.000191596
0.000134159
9.37053e-05
6.5941e-05
4.78359e-05
3.39063e-05
2.63095e-05
2.13837e-05
1.80922e-05
1.58074e-05
1.41525e-05
1.2902e-05
1.19198e-05
1.11222e-05
1.04565e-05
9.88854e-06
9.39555e-06
8.96169e-06
8.57563e-06
8.22906e-06
7.91563e-06
7.63044e-06
7.36958e-06
7.12991e-06
6.90884e-06
6.7042e-06
6.51419e-06
6.33729e-06
6.17221e-06
6.01786e-06
5.8734e-06
5.74214e-06
5.62008e-06
5.50417e-06
5.39396e-06
5.28904e-06
5.18904e-06
5.0936e-06
5.00243e-06
4.91526e-06
4.83181e-06
4.75187e-06
4.67521e-06
4.60165e-06
4.53099e-06
4.46309e-06
4.39777e-06
4.33491e-06
4.27436e-06
4.216e-06
4.15973e-06
4.10543e-06
4.053e-06
4.00236e-06
3.95341e-06
3.90607e-06
3.86027e-06
3.81595e-06
3.77302e-06
3.73143e-06
3.69112e-06
3.65203e-06
3.61411e-06
3.57732e-06
3.5416e-06
3.50691e-06
3.47321e-06
3.44046e-06
3.40862e-06
3.37766e-06
3.34755e-06
3.31824e-06
3.28972e-06
3.26196e-06
3.23492e-06
3.20858e-06
3.18291e-06
3.1579e-06
3.13352e-06
3.10975e-06
3.08656e-06
3.06395e-06
3.04189e-06
3.02036e-06
2.99935e-06
2.97883e-06
2.95881e-06
2.93925e-06
2.92015e-06
2.90149e-06
2.88326e-06
2.86545e-06
2.84805e-06
2.83105e-06
2.81446e-06
2.79822e-06
2.78229e-06
2.76671e-06
2.75146e-06
2.73654e-06
2.72193e-06
2.70762e-06
2.69361e-06
2.67989e-06
2.66644e-06
2.65326e-06
2.64034e-06
2.62767e-06
2.61524e-06
2.60306e-06
2.5911e-06
2.57936e-06
2.56784e-06
2.55653e-06
2.54543e-06
2.53451e-06
2.52379e-06
2.51326e-06
2.5029e-06
2.49272e-06
2.48271e-06
2.47287e-06
2.46318e-06
2.45365e-06
2.44427e-06
2.43504e-06
2.42595e-06
2.417e-06
2.40819e-06
2.39951e-06
2.39095e-06
2.38252e-06
2.37421e-06
2.36602e-06
2.35794e-06
2.34997e-06
2.34211e-06
2.33435e-06
2.32669e-06
2.31913e-06
2.31166e-06
2.30427e-06
2.29697e-06
2.28975e-06
2.2826e-06
2.27553e-06
2.26852e-06
2.26157e-06
2.25467e-06
2.24783e-06
2.24103e-06
2.23427e-06
2.22754e-06
2.22084e-06
2.21416e-06
2.20749e-06
2.20083e-06
2.19416e-06
2.18748e-06
2.18078e-06
2.17406e-06
2.1673e-06
2.16049e-06
2.15363e-06
2.14672e-06
2.13974e-06
2.1327e-06
2.12555e-06
2.11699e-06
2.10745e-06
2.09992e-06
2.0921e-06
2.08405e-06
2.07578e-06
2.0673e-06
2.0586e-06
2.04965e-06
2.04047e-06
2.03103e-06
2.02132e-06
2.01133e-06
2.00106e-06
1.9905e-06
1.97964e-06
1.96847e-06
1.957e-06
1.94523e-06
1.93314e-06
1.92075e-06
1.90806e-06
1.89508e-06
1.88182e-06
1.86829e-06
1.8545e-06
1.84047e-06
1.82623e-06
1.81179e-06
1.79718e-06
1.78242e-06
1.76756e-06
1.75261e-06
1.73761e-06
1.7226e-06
1.70762e-06
1.69271e-06
1.6779e-06
1.66324e-06
1.64878e-06
1.63456e-06
1.62061e-06
1.607e-06
1.59377e-06
1.58098e-06
1.5687e-06
1.55701e-06
1.54604e-06
1.53604e-06
1.5275e-06
1.52164e-06
)
;

boundaryField
{
    boundary
    {
        type            empty;
    }
    inlet
    {
        type            fixedValue;
        value           uniform 0;
    }
    outlet
    {
        type            zeroGradient;
    }
}


// ************************************************************************* //
