/*--------------------------------*- C++ -*----------------------------------*\
  =========                 |
  \\      /  F ield         | OpenFOAM: The Open Source CFD Toolbox
   \\    /   O peration     | Website:  https://openfoam.org
    \\  /    A nd           | Version:  7
     \\/     M anipulation  |
\*---------------------------------------------------------------------------*/
FoamFile
{
    version     2.0;
    format      ascii;
    class       volScalarField;
    location    "0.00063";
    object      O;
}
// * * * * * * * * * * * * * * * * * * * * * * * * * * * * * * * * * * * * * //

dimensions      [0 0 0 0 0 0 0];

internalField   nonuniform List<scalar> 
500
(
1.57123e-47
3.74329e-47
5.92408e-47
8.10491e-47
1.02859e-46
1.2469e-46
1.46561e-46
1.68485e-46
1.90472e-46
2.12528e-46
2.34654e-46
2.56853e-46
2.79124e-46
3.01474e-46
3.2391e-46
3.46446e-46
3.69101e-46
3.91903e-46
4.14887e-46
4.38097e-46
4.61588e-46
4.85422e-46
5.09671e-46
5.34418e-46
5.59753e-46
5.85772e-46
6.12577e-46
6.40271e-46
6.68956e-46
6.98729e-46
7.29675e-46
7.61865e-46
7.95351e-46
8.30155e-46
8.66274e-46
9.03666e-46
9.42255e-46
9.81924e-46
1.02252e-45
1.06384e-45
1.10566e-45
1.14772e-45
1.18974e-45
1.23141e-45
1.27242e-45
1.31248e-45
1.35128e-45
1.38854e-45
1.42403e-45
1.45753e-45
1.48888e-45
1.51794e-45
1.54464e-45
1.56894e-45
1.59086e-45
1.61045e-45
1.6278e-45
1.64302e-45
1.65624e-45
1.66763e-45
1.67734e-45
1.68556e-45
1.69244e-45
1.69816e-45
1.70286e-45
1.70669e-45
1.70979e-45
1.71228e-45
1.71425e-45
1.71581e-45
1.71703e-45
1.71797e-45
1.71869e-45
1.71925e-45
1.71967e-45
1.71998e-45
1.72022e-45
1.72039e-45
1.72052e-45
1.72062e-45
1.72069e-45
1.72075e-45
1.72079e-45
1.72082e-45
1.72085e-45
1.72087e-45
1.72089e-45
1.7209e-45
1.72092e-45
1.72094e-45
1.72095e-45
1.72097e-45
1.72099e-45
1.72101e-45
1.72103e-45
1.72105e-45
1.72107e-45
1.72109e-45
1.72111e-45
1.72114e-45
1.72117e-45
1.72119e-45
1.72122e-45
1.72125e-45
1.72129e-45
1.72132e-45
1.72136e-45
1.72139e-45
1.72143e-45
1.72147e-45
1.72151e-45
1.72156e-45
1.72161e-45
1.72165e-45
1.7217e-45
1.72175e-45
1.72181e-45
1.72186e-45
1.72192e-45
1.72197e-45
1.72201e-45
1.72199e-45
1.72183e-45
1.72125e-45
1.71942e-45
1.71674e-45
1.71682e-45
1.71692e-45
1.71703e-45
1.71716e-45
1.71731e-45
1.7175e-45
1.71773e-45
1.71801e-45
1.71833e-45
1.7187e-45
1.71912e-45
1.71957e-45
1.72005e-45
1.72055e-45
1.72106e-45
1.72155e-45
1.72203e-45
1.72247e-45
1.72288e-45
1.72324e-45
1.72357e-45
1.72384e-45
1.72408e-45
1.72429e-45
1.72446e-45
1.72461e-45
1.72474e-45
1.72485e-45
1.72496e-45
1.72505e-45
1.72515e-45
1.72524e-45
1.72533e-45
1.72542e-45
1.72552e-45
1.72563e-45
1.72574e-45
1.72586e-45
1.72599e-45
1.72613e-45
1.72628e-45
1.72644e-45
1.72661e-45
1.72678e-45
1.72697e-45
1.72715e-45
1.72735e-45
1.72754e-45
1.72774e-45
1.72793e-45
1.72812e-45
1.72831e-45
1.72849e-45
1.72867e-45
1.72884e-45
1.729e-45
1.72915e-45
1.72929e-45
1.72942e-45
1.72954e-45
1.72965e-45
1.72975e-45
1.72984e-45
1.72992e-45
1.72998e-45
1.73003e-45
1.73008e-45
1.73011e-45
1.73016e-45
1.73031e-45
1.73087e-45
1.73322e-45
1.74284e-45
1.78184e-45
1.93857e-45
2.56359e-45
5.03762e-45
1.47593e-44
5.26829e-44
1.99548e-43
7.64171e-43
2.91908e-42
1.10836e-41
4.1792e-41
1.56453e-40
5.81474e-40
2.1455e-39
7.85931e-39
2.8583e-38
1.03207e-37
3.70005e-37
1.31709e-36
4.65541e-36
1.63402e-35
5.69562e-35
1.97171e-34
6.77949e-34
2.31551e-33
7.85669e-33
2.64867e-32
8.87304e-32
2.9542e-31
9.77698e-31
3.21699e-30
1.0526e-29
3.42564e-29
1.10915e-28
3.57368e-28
1.14613e-27
3.65979e-27
1.16388e-26
3.68728e-26
1.16405e-25
3.66285e-25
1.14913e-24
3.59528e-24
1.12207e-23
3.49409e-23
1.08587e-22
3.36857e-22
1.04334e-21
3.22707e-21
9.96929e-21
3.07659e-20
9.48615e-20
2.9351e-19
9.06159e-19
2.79135e-18
8.59074e-18
2.64269e-17
8.12701e-17
2.49869e-16
7.68064e-16
2.36036e-15
7.25169e-15
2.22716e-14
6.83714e-14
2.09779e-13
6.43215e-13
1.97058e-12
6.0314e-12
1.84405e-11
5.63144e-11
1.71773e-10
5.23417e-10
1.59439e-09
4.86843e-09
1.50656e-08
4.91928e-08
1.90001e-07
1.01739e-06
7.01515e-06
4.14405e-05
0.000183366
0.00064183
0.00160302
0.00292633
0.00424423
0.00527446
0.00594748
0.006312
0.00643814
0.00643207
0.00634712
0.00621777
0.00606572
0.00590413
0.00574078
0.00558007
0.00542443
0.00527504
0.00513241
0.00499661
0.0048675
0.00474481
0.00462819
0.0045173
0.00441179
0.0043113
0.00421552
0.00412414
0.00403686
0.00395345
0.00387365
0.00379726
0.00372412
0.0036562
0.00359205
0.00353007
0.00347013
0.00341212
0.00335596
0.00330154
0.00324879
0.00319762
0.00314796
0.00309976
0.00305293
0.00300743
0.00296319
0.00292016
0.00287829
0.00283754
0.00279786
0.0027592
0.00272152
0.00268479
0.00264898
0.00261404
0.00257994
0.00254665
0.00251415
0.00248241
0.00245139
0.00242108
0.00239144
0.00236247
0.00233412
0.0023064
0.00227926
0.0022527
0.00222669
0.00220123
0.00217629
0.00215185
0.00212791
0.00210444
0.00208143
0.00205888
0.00203676
0.00201507
0.00199379
0.00197291
0.00195243
0.00193232
0.00191259
0.00189321
0.00187419
0.00185551
0.00183716
0.00181914
0.00180144
0.00178405
0.00176696
0.00175016
0.00173366
0.00171744
0.0017015
0.00168584
0.00167045
0.00165531
0.00164037
0.00162568
0.00161122
0.00159699
0.00158298
0.00156919
0.00155561
0.00154224
0.00152907
0.0015161
0.00150333
0.00149074
0.00147833
0.0014661
0.00145405
0.00144216
0.00143045
0.0014189
0.0014075
0.00139626
0.00138518
0.00137424
0.00136345
0.0013528
0.00134229
0.00133192
0.00132169
0.00131158
0.00130161
0.00129176
0.00128204
0.00127244
0.00126296
0.0012536
0.00124435
0.00123522
0.0012262
0.00121729
0.00120849
0.00119979
0.0011912
0.00118271
0.00117432
0.00116603
0.00115784
0.00114974
0.00114173
0.00113381
0.00112598
0.00111824
0.00111058
0.001103
0.0010955
0.00108807
0.00108072
0.00107345
0.00106624
0.0010591
0.00105202
0.001045
0.00103804
0.00103114
0.00102428
0.00101748
0.00101072
0.001004
0.000997322
0.000990675
0.000984057
0.000977462
0.000970884
0.000964277
0.000957173
0.000949192
0.000942696
0.000936106
0.00092947
0.000922803
0.000916108
0.000909381
0.00090262
0.000895819
0.000888973
0.00088208
0.000875134
0.000868132
0.000861069
0.000853944
0.000846754
0.000839496
0.00083217
0.000824773
0.000817307
0.000809771
0.000802167
0.000794496
0.000786761
0.000778965
0.000771113
0.00076321
0.000755261
0.000747273
0.000739253
0.00073121
0.000723152
0.000715089
0.000707033
0.000698993
0.000690982
0.000683012
0.000675098
0.000667253
0.000659494
0.000651838
0.000644307
0.000636925
0.000629726
0.000622757
0.000616092
0.000609845
0.000604219
0.000599572
0.00059658
)
;

boundaryField
{
    boundary
    {
        type            empty;
    }
    inlet
    {
        type            fixedValue;
        value           uniform 0;
    }
    outlet
    {
        type            zeroGradient;
    }
}


// ************************************************************************* //
