/*--------------------------------*- C++ -*----------------------------------*\
  =========                 |
  \\      /  F ield         | OpenFOAM: The Open Source CFD Toolbox
   \\    /   O peration     | Website:  https://openfoam.org
    \\  /    A nd           | Version:  7
     \\/     M anipulation  |
\*---------------------------------------------------------------------------*/
FoamFile
{
    version     2.0;
    format      ascii;
    class       volScalarField;
    location    "0.00063";
    object      O2;
}
// * * * * * * * * * * * * * * * * * * * * * * * * * * * * * * * * * * * * * //

dimensions      [0 0 0 0 0 0 0];

internalField   nonuniform List<scalar> 
500
(
0.226269
0.226269
0.226269
0.226269
0.226269
0.226269
0.226269
0.226269
0.226269
0.226269
0.226269
0.226269
0.226269
0.226269
0.226269
0.226269
0.226269
0.226269
0.226269
0.226269
0.226269
0.226269
0.226269
0.226269
0.226269
0.226269
0.226269
0.226269
0.226269
0.226269
0.226269
0.226269
0.226269
0.226269
0.226269
0.226269
0.226269
0.226269
0.226269
0.226269
0.226269
0.226269
0.226269
0.226269
0.226269
0.226269
0.226269
0.226269
0.226269
0.226269
0.226269
0.226269
0.226269
0.226269
0.226269
0.226269
0.226269
0.226269
0.226269
0.226269
0.226269
0.226269
0.226269
0.226269
0.226269
0.226269
0.226269
0.226269
0.226269
0.226269
0.226269
0.226269
0.226269
0.226269
0.226269
0.226269
0.226269
0.226269
0.226269
0.226269
0.226269
0.226269
0.226269
0.226269
0.226269
0.226269
0.226269
0.226269
0.226269
0.226269
0.226269
0.226269
0.226269
0.226269
0.226269
0.226269
0.226269
0.226269
0.226269
0.226269
0.226269
0.226269
0.226269
0.226269
0.226269
0.226269
0.226269
0.226269
0.226269
0.226269
0.226269
0.226269
0.226269
0.226269
0.226269
0.226269
0.226269
0.226269
0.226269
0.226269
0.226269
0.226269
0.226269
0.226269
0.226269
0.226269
0.226269
0.226269
0.226269
0.226269
0.226269
0.226269
0.226269
0.226269
0.226269
0.226269
0.226269
0.226269
0.226269
0.226269
0.226269
0.226269
0.226269
0.226269
0.226269
0.226269
0.226269
0.226269
0.226269
0.226269
0.226269
0.226269
0.226269
0.226269
0.226269
0.226269
0.226269
0.226269
0.226269
0.226269
0.226269
0.226269
0.226269
0.226269
0.226269
0.226269
0.226269
0.226269
0.226269
0.226269
0.226269
0.226269
0.226269
0.226269
0.226269
0.226269
0.226269
0.226269
0.226269
0.226269
0.226269
0.226269
0.226269
0.226269
0.226269
0.226269
0.226269
0.226269
0.226269
0.226269
0.226269
0.226269
0.226269
0.226269
0.226269
0.226269
0.226269
0.226269
0.226269
0.226269
0.226269
0.226269
0.226269
0.226269
0.226269
0.226269
0.226269
0.226269
0.226269
0.226269
0.226269
0.226269
0.226269
0.226269
0.226269
0.226269
0.226269
0.226269
0.226269
0.226269
0.226269
0.226269
0.226269
0.226269
0.226269
0.226269
0.226269
0.226269
0.226269
0.226269
0.226269
0.226269
0.226269
0.226269
0.226269
0.226269
0.226269
0.226269
0.226269
0.226269
0.226269
0.226269
0.226269
0.226269
0.226269
0.226269
0.226269
0.226269
0.226269
0.226269
0.226269
0.226269
0.226269
0.226269
0.226269
0.226269
0.226269
0.226269
0.226269
0.226269
0.226269
0.226269
0.226269
0.226269
0.226269
0.226269
0.226269
0.226269
0.22627
0.226271
0.226273
0.226276
0.226278
0.226265
0.226174
0.225768
0.224352
0.220449
0.212141
0.199745
0.184057
0.163957
0.139403
0.113581
0.0909164
0.0739933
0.0590434
0.050469
0.0446761
0.040719
0.0379449
0.035928
0.0343986
0.033188
0.0321908
0.0313412
0.030597
0.0299312
0.0293261
0.0287694
0.0282528
0.0277701
0.0273167
0.0268891
0.0264845
0.0261007
0.0257356
0.0253877
0.0250557
0.0247383
0.0244347
0.0241442
0.0238748
0.023619
0.0233713
0.0231314
0.0228988
0.022673
0.0224538
0.0222408
0.0220336
0.0218321
0.0216358
0.0214447
0.0212583
0.0210766
0.0208993
0.0207262
0.0205572
0.020392
0.0202305
0.0200726
0.0199181
0.0197669
0.0196189
0.0194739
0.0193319
0.0191926
0.0190561
0.0189223
0.0187909
0.0186621
0.0185356
0.0184114
0.0182894
0.0181696
0.0180519
0.0179362
0.0178225
0.0177107
0.0176007
0.0174926
0.0173862
0.0172816
0.0171786
0.0170772
0.0169775
0.0168793
0.0167826
0.0166873
0.0165936
0.0165012
0.0164102
0.0163206
0.0162323
0.0161452
0.0160595
0.015975
0.0158917
0.0158096
0.0157286
0.0156488
0.0155702
0.0154927
0.0154163
0.0153411
0.0152669
0.0151934
0.0151208
0.0150492
0.0149785
0.0149086
0.0148396
0.0147714
0.0147041
0.0146375
0.0145717
0.0145066
0.0144422
0.0143785
0.0143155
0.0142532
0.0141915
0.0141304
0.0140699
0.01401
0.0139506
0.0138918
0.0138335
0.0137758
0.0137185
0.0136617
0.0136054
0.0135496
0.0134942
0.0134393
0.0133848
0.0133307
0.013277
0.0132237
0.0131708
0.0131182
0.0130661
0.0130143
0.0129628
0.0129116
0.0128608
0.0128103
0.0127601
0.0127101
0.0126604
0.012611
0.0125618
0.0125128
0.012464
0.0124153
0.0123668
0.0123185
0.0122702
0.012222
0.0121739
0.0121258
0.0120777
0.0120295
0.0119813
0.0119329
0.0118844
0.0118357
0.0117868
0.0117376
0.0116881
0.0116382
0.0115879
0.0115372
0.011486
0.0114343
0.0113821
0.0113292
0.0112754
0.0112113
0.0111395
0.0110831
0.0110247
0.0109648
0.0109035
0.0108407
0.0107766
0.0107109
0.0106437
0.010575
0.0105046
0.0104325
0.0103586
0.0102831
0.0102057
0.0101265
0.0100455
0.00996264
0.00987799
0.00979155
0.00970335
0.00961343
0.00952185
0.00942869
0.00933402
0.00923793
0.00914055
0.00904198
0.00894236
0.00884184
0.00874057
0.00863871
0.00853646
0.00843398
0.00833147
0.00822914
0.00812718
0.00802582
0.00792525
0.0078257
0.00772739
0.00763056
0.00753548
0.00744245
0.00735189
0.00726441
0.00718108
0.00710396
0.00703743
0.00699166
)
;

boundaryField
{
    boundary
    {
        type            empty;
    }
    inlet
    {
        type            fixedValue;
        value           uniform 0.226269;
    }
    outlet
    {
        type            zeroGradient;
    }
}


// ************************************************************************* //
