/*--------------------------------*- C++ -*----------------------------------*\
  =========                 |
  \\      /  F ield         | OpenFOAM: The Open Source CFD Toolbox
   \\    /   O peration     | Website:  https://openfoam.org
    \\  /    A nd           | Version:  7
     \\/     M anipulation  |
\*---------------------------------------------------------------------------*/
FoamFile
{
    version     2.0;
    format      ascii;
    class       volScalarField;
    location    "0.00063";
    object      OH;
}
// * * * * * * * * * * * * * * * * * * * * * * * * * * * * * * * * * * * * * //

dimensions      [0 0 0 0 0 0 0];

internalField   nonuniform List<scalar> 
500
(
9.34874e-48
1.81799e-47
2.41842e-47
2.82233e-47
3.09349e-47
3.27592e-47
3.39944e-47
3.48401e-47
3.54295e-47
3.5851e-47
3.61632e-47
3.64045e-47
3.66e-47
3.67667e-47
3.69155e-47
3.70542e-47
3.71882e-47
3.73219e-47
3.74588e-47
3.76023e-47
3.77555e-47
3.79218e-47
3.81047e-47
3.8308e-47
3.85357e-47
3.87922e-47
3.90818e-47
3.94092e-47
3.97791e-47
4.01962e-47
4.06648e-47
4.1189e-47
4.17724e-47
4.24178e-47
4.31273e-47
4.39018e-47
4.47411e-47
4.56436e-47
4.66064e-47
4.76249e-47
4.86932e-47
4.98038e-47
5.09478e-47
5.21155e-47
5.3296e-47
5.44778e-47
5.56494e-47
5.67991e-47
5.79159e-47
5.89898e-47
6.00117e-47
6.0974e-47
6.18709e-47
6.26982e-47
6.34534e-47
6.41356e-47
6.47458e-47
6.52859e-47
6.57593e-47
6.61701e-47
6.65231e-47
6.68236e-47
6.70769e-47
6.72885e-47
6.74636e-47
6.76073e-47
6.7724e-47
6.78181e-47
6.78933e-47
6.79528e-47
6.79996e-47
6.80361e-47
6.80644e-47
6.80861e-47
6.81027e-47
6.81152e-47
6.81247e-47
6.81319e-47
6.81373e-47
6.81413e-47
6.81444e-47
6.81468e-47
6.81486e-47
6.81501e-47
6.81513e-47
6.81524e-47
6.81533e-47
6.81542e-47
6.8155e-47
6.81558e-47
6.81567e-47
6.81575e-47
6.81584e-47
6.81593e-47
6.81602e-47
6.81612e-47
6.81623e-47
6.81633e-47
6.81644e-47
6.81656e-47
6.81669e-47
6.81681e-47
6.81695e-47
6.81709e-47
6.81723e-47
6.81738e-47
6.81754e-47
6.81771e-47
6.81788e-47
6.81806e-47
6.81824e-47
6.81844e-47
6.81864e-47
6.81884e-47
6.81906e-47
6.81928e-47
6.81951e-47
6.81975e-47
6.82e-47
6.82026e-47
6.82053e-47
6.82082e-47
6.82118e-47
6.82169e-47
6.82265e-47
6.82387e-47
6.82399e-47
6.82404e-47
6.82406e-47
6.82405e-47
6.82403e-47
6.82403e-47
6.82407e-47
6.82417e-47
6.82435e-47
6.82461e-47
6.82495e-47
6.82537e-47
6.82584e-47
6.82636e-47
6.82691e-47
6.82747e-47
6.82805e-47
6.82862e-47
6.82919e-47
6.82975e-47
6.83029e-47
6.83083e-47
6.83136e-47
6.83189e-47
6.83241e-47
6.83293e-47
6.83344e-47
6.83396e-47
6.83448e-47
6.835e-47
6.83553e-47
6.83606e-47
6.8366e-47
6.83714e-47
6.83769e-47
6.83825e-47
6.83882e-47
6.83939e-47
6.83998e-47
6.84057e-47
6.84117e-47
6.84178e-47
6.84239e-47
6.84301e-47
6.84362e-47
6.84424e-47
6.84486e-47
6.84548e-47
6.84609e-47
6.84669e-47
6.84728e-47
6.84785e-47
6.84842e-47
6.84896e-47
6.84949e-47
6.85e-47
6.85048e-47
6.85095e-47
6.85138e-47
6.85179e-47
6.85217e-47
6.85251e-47
6.85283e-47
6.85311e-47
6.85336e-47
6.85356e-47
6.85373e-47
6.85386e-47
6.85395e-47
6.85401e-47
6.8541e-47
6.85446e-47
6.85603e-47
6.86266e-47
6.88975e-47
6.99838e-47
7.42933e-47
9.12435e-47
1.57405e-46
4.1375e-46
1.39971e-45
5.16427e-45
1.94334e-44
7.3125e-44
2.73684e-43
1.01741e-42
3.75531e-42
1.37615e-41
5.00675e-41
1.80852e-40
6.48607e-40
2.30967e-39
8.16672e-39
2.86748e-38
9.99847e-38
3.46243e-37
1.19091e-36
4.06882e-36
1.38101e-35
4.65714e-35
1.56061e-34
5.19746e-34
1.72062e-33
5.66317e-33
1.85357e-32
6.03436e-32
1.95451e-31
6.3001e-31
2.02156e-30
6.45944e-30
2.05599e-29
6.52124e-29
2.0621e-28
6.50393e-28
2.04734e-27
6.43691e-27
2.02328e-26
6.36622e-26
2.00861e-25
6.36943e-25
2.03626e-24
6.58921e-24
2.16903e-23
7.30523e-23
2.53251e-22
9.1286e-22
3.40776e-21
1.31951e-20
5.29428e-20
2.1918e-19
9.30951e-19
4.03329e-18
1.77313e-17
7.87641e-17
3.52382e-16
1.58402e-15
7.1423e-15
3.22655e-14
1.45922e-13
6.6034e-13
2.98914e-12
1.35329e-11
6.12744e-11
2.78828e-10
1.28491e-09
5.97347e-09
2.79593e-08
1.33373e-07
6.76511e-07
3.95643e-06
2.6831e-05
0.000161223
0.000508476
0.000779067
0.000931799
0.00125506
0.00197688
0.00311698
0.00448036
0.00583091
0.00718164
0.00817509
0.00895801
0.00956916
0.0100456
0.0104192
0.0107146
0.0109502
0.0111398
0.0112932
0.0114178
0.0115192
0.0116014
0.0116679
0.0117211
0.0117631
0.0117956
0.0118198
0.011837
0.0118481
0.0118539
0.011855
0.011852
0.0118455
0.0118357
0.0118232
0.0118088
0.0117928
0.0117751
0.0117558
0.0117351
0.0117131
0.0116899
0.0116657
0.0116405
0.0116145
0.0115877
0.0115602
0.0115321
0.0115034
0.0114742
0.0114446
0.0114145
0.0113841
0.0113534
0.0113225
0.0112912
0.0112598
0.0112282
0.0111964
0.0111645
0.0111325
0.0111005
0.0110683
0.0110361
0.0110039
0.0109716
0.0109394
0.0109071
0.0108749
0.0108427
0.0108106
0.0107785
0.0107464
0.0107145
0.0106826
0.0106508
0.0106191
0.0105875
0.0105561
0.0105247
0.0104935
0.0104623
0.0104313
0.0104005
0.0103698
0.0103392
0.0103087
0.0102785
0.0102483
0.0102184
0.0101885
0.0101589
0.0101294
0.0101001
0.0100709
0.010042
0.0100132
0.00998462
0.00995627
0.00992805
0.00989987
0.00987185
0.009844
0.00981631
0.00978878
0.0097614
0.00973419
0.00970712
0.00968021
0.00965344
0.00962683
0.00960035
0.00957403
0.00954784
0.00952179
0.00949588
0.00947011
0.00944447
0.00941896
0.00939358
0.00936833
0.00934321
0.00931821
0.00929334
0.0092686
0.00924398
0.00921948
0.00919511
0.00917086
0.00914673
0.00912273
0.00909884
0.00907508
0.00905145
0.00902793
0.00900454
0.00898126
0.00895811
0.00893508
0.00891217
0.00888937
0.0088667
0.00884414
0.00882169
0.00879936
0.00877714
0.00875502
0.00873301
0.00871111
0.0086893
0.00866759
0.00864596
0.00862442
0.00860296
0.00858158
0.00856025
0.00853899
0.00851778
0.00849661
0.00847548
0.00845436
0.00843326
0.00841216
0.00839105
0.00836991
0.00834873
0.00832749
0.00830618
0.00828478
0.00826326
0.00824163
0.00821981
0.00819613
0.00816929
0.00814712
0.00812436
0.00810121
0.00807771
0.00805386
0.00802965
0.00800506
0.00798007
0.00795464
0.00792877
0.00790242
0.00787559
0.00784825
0.00782038
0.00779198
0.00776304
0.00773354
0.00770349
0.00767287
0.00764171
0.00761
0.00757776
0.007545
0.00751175
0.00747802
0.00744386
0.00740929
0.00737436
0.00733911
0.00730359
0.00726786
0.00723198
0.00719602
0.00716003
0.00712411
0.00708832
0.00705276
0.00701751
0.00698267
0.00694835
0.00691468
0.00688179
0.00684988
0.0068192
0.0067901
0.00676313
0.00673917
0.00671971
0.00670735
)
;

boundaryField
{
    boundary
    {
        type            empty;
    }
    inlet
    {
        type            fixedValue;
        value           uniform 0;
    }
    outlet
    {
        type            zeroGradient;
    }
}


// ************************************************************************* //
