/*--------------------------------*- C++ -*----------------------------------*\
  =========                 |
  \\      /  F ield         | OpenFOAM: The Open Source CFD Toolbox
   \\    /   O peration     | Website:  https://openfoam.org
    \\  /    A nd           | Version:  7
     \\/     M anipulation  |
\*---------------------------------------------------------------------------*/
FoamFile
{
    version     2.0;
    format      ascii;
    class       volScalarField;
    location    "0.00063";
    object      Qdot;
}
// * * * * * * * * * * * * * * * * * * * * * * * * * * * * * * * * * * * * * //

dimensions      [1 -1 -3 0 0 0 0];

internalField   nonuniform List<scalar> 
500
(
-2.44819e-27
-1.85395e-27
-1.72259e-27
-1.69142e-27
-1.68237e-27
-1.67866e-27
-1.67667e-27
-1.67563e-27
-1.67531e-27
-1.67561e-27
-1.67643e-27
-1.67769e-27
-1.67932e-27
-1.68124e-27
-1.68343e-27
-1.68585e-27
-1.68851e-27
-1.69142e-27
-1.69463e-27
-1.69819e-27
-1.70217e-27
-1.70668e-27
-1.7118e-27
-1.71767e-27
-1.72442e-27
-1.73219e-27
-1.74113e-27
-1.75139e-27
-1.76314e-27
-1.77652e-27
-1.79168e-27
-1.80876e-27
-1.82785e-27
-1.84906e-27
-1.87242e-27
-1.89797e-27
-1.92568e-27
-1.95548e-27
-1.98725e-27
-2.02083e-27
-2.056e-27
-2.0925e-27
-2.13003e-27
-2.16824e-27
-2.20677e-27
-2.24525e-27
-2.28329e-27
-2.32051e-27
-2.35657e-27
-2.39114e-27
-2.42393e-27
-2.45473e-27
-2.48334e-27
-2.50966e-27
-2.53361e-27
-2.55519e-27
-2.57444e-27
-2.59143e-27
-2.60629e-27
-2.61915e-27
-2.63018e-27
-2.63954e-27
-2.64742e-27
-2.65399e-27
-2.65941e-27
-2.66386e-27
-2.66746e-27
-2.67036e-27
-2.67268e-27
-2.67451e-27
-2.67594e-27
-2.67706e-27
-2.67793e-27
-2.6786e-27
-2.6791e-27
-2.67949e-27
-2.67978e-27
-2.68e-27
-2.68017e-27
-2.68029e-27
-2.68039e-27
-2.68046e-27
-2.68052e-27
-2.68057e-27
-2.68061e-27
-2.68065e-27
-2.68068e-27
-2.68071e-27
-2.68074e-27
-2.68077e-27
-2.6808e-27
-2.68083e-27
-2.68086e-27
-2.68089e-27
-2.68092e-27
-2.68096e-27
-2.68099e-27
-2.68103e-27
-2.68107e-27
-2.68111e-27
-2.68115e-27
-2.68119e-27
-2.68124e-27
-2.68129e-27
-2.68134e-27
-2.68139e-27
-2.68144e-27
-2.6815e-27
-2.68155e-27
-2.68161e-27
-2.68168e-27
-2.68174e-27
-2.68181e-27
-2.68188e-27
-2.68195e-27
-2.68202e-27
-2.6821e-27
-2.68218e-27
-2.68226e-27
-2.68235e-27
-2.68244e-27
-2.68253e-27
-2.68266e-27
-2.68284e-27
-2.68324e-27
-2.68387e-27
-2.68392e-27
-2.68393e-27
-2.68393e-27
-2.68393e-27
-2.68391e-27
-2.6839e-27
-2.68391e-27
-2.68393e-27
-2.68397e-27
-2.68404e-27
-2.68413e-27
-2.68424e-27
-2.68438e-27
-2.68452e-27
-2.68468e-27
-2.68484e-27
-2.68501e-27
-2.68518e-27
-2.68534e-27
-2.68551e-27
-2.68568e-27
-2.68584e-27
-2.68601e-27
-2.68617e-27
-2.68634e-27
-2.6865e-27
-2.68667e-27
-2.68684e-27
-2.68701e-27
-2.68718e-27
-2.68735e-27
-2.68753e-27
-2.6877e-27
-2.68788e-27
-2.68806e-27
-2.68825e-27
-2.68843e-27
-2.68862e-27
-2.68881e-27
-2.689e-27
-2.6892e-27
-2.68939e-27
-2.68959e-27
-2.68979e-27
-2.68999e-27
-2.69019e-27
-2.69038e-27
-2.69058e-27
-2.69077e-27
-2.69096e-27
-2.69115e-27
-2.69134e-27
-2.69152e-27
-2.69169e-27
-2.69186e-27
-2.69202e-27
-2.69218e-27
-2.69233e-27
-2.69247e-27
-2.6926e-27
-2.69272e-27
-2.69284e-27
-2.69294e-27
-2.69303e-27
-2.69312e-27
-2.69319e-27
-2.69325e-27
-2.69329e-27
-2.69332e-27
-2.69334e-27
-2.69334e-27
-2.69333e-27
-2.6933e-27
-2.69325e-27
-2.69319e-27
-2.6931e-27
-2.693e-27
-2.69288e-27
-2.69273e-27
-2.69257e-27
-2.69238e-27
-2.69216e-27
-2.69191e-27
-2.69158e-27
-2.69105e-27
-2.68986e-27
-2.68627e-27
-2.67406e-27
-2.63071e-27
-2.47564e-27
-1.92235e-27
4.04226e-29
6.95722e-27
3.11647e-26
1.15304e-25
4.05755e-25
1.40163e-24
4.79355e-24
1.62708e-23
5.48574e-23
1.83775e-22
6.11859e-22
2.02495e-21
6.66287e-21
2.18013e-20
7.0954e-20
2.29748e-19
7.40322e-19
2.37468e-18
7.58461e-18
2.41291e-17
7.64843e-17
2.41649e-16
7.61294e-16
2.3926e-15
7.50533e-15
2.35145e-14
7.36424e-14
2.30792e-13
7.24843e-13
2.28589e-12
7.25786e-12
2.32823e-11
7.57979e-11
2.51798e-10
8.62605e-10
3.04348e-09
1.11167e-08
4.21758e-08
1.66106e-07
6.76746e-07
2.83728e-06
1.21697e-05
5.31115e-05
0.000234777
0.00104753
0.0047065
0.0212646
0.0965738
0.441106
2.0297
9.43755
45.5458
239.948
1490.17
10614.4
83082.2
740167
6.99185e+06
6.5756e+07
5.44967e+08
2.99726e+09
8.47249e+09
1.27331e+10
1.38233e+10
1.39143e+10
1.38931e+10
1.33202e+10
1.19495e+10
1.00632e+10
8.13476e+09
6.62357e+09
5.51069e+09
4.66052e+09
4.0094e+09
3.5022e+09
3.09918e+09
2.77262e+09
2.50314e+09
2.27724e+09
2.08522e+09
1.92007e+09
1.77657e+09
1.65078e+09
1.53969e+09
1.4409e+09
1.35254e+09
1.27309e+09
1.20132e+09
1.1362e+09
1.07689e+09
1.02268e+09
9.72972e+08
9.27264e+08
8.85141e+08
8.46302e+08
8.11356e+08
7.79368e+08
7.49288e+08
7.21061e+08
6.94502e+08
6.6948e+08
6.45858e+08
6.23534e+08
6.0241e+08
5.82394e+08
5.63409e+08
5.45379e+08
5.28241e+08
5.11932e+08
4.96398e+08
4.81588e+08
4.67455e+08
4.53958e+08
4.41056e+08
4.28713e+08
4.16897e+08
4.05577e+08
3.94723e+08
3.8431e+08
3.74312e+08
3.64708e+08
3.55475e+08
3.46595e+08
3.38048e+08
3.29818e+08
3.21888e+08
3.14243e+08
3.0687e+08
2.99754e+08
2.92884e+08
2.86248e+08
2.79835e+08
2.73635e+08
2.67639e+08
2.61836e+08
2.56219e+08
2.50779e+08
2.45508e+08
2.404e+08
2.35448e+08
2.30645e+08
2.25985e+08
2.21462e+08
2.17071e+08
2.12806e+08
2.08663e+08
2.04637e+08
2.00723e+08
1.96917e+08
1.93215e+08
1.89613e+08
1.86108e+08
1.82696e+08
1.79373e+08
1.76137e+08
1.72985e+08
1.69914e+08
1.66923e+08
1.64009e+08
1.61166e+08
1.58389e+08
1.55677e+08
1.53032e+08
1.5045e+08
1.47929e+08
1.45467e+08
1.43063e+08
1.40713e+08
1.38418e+08
1.36175e+08
1.33982e+08
1.31838e+08
1.29741e+08
1.2769e+08
1.25683e+08
1.2372e+08
1.21799e+08
1.19918e+08
1.18077e+08
1.16274e+08
1.14509e+08
1.1278e+08
1.11086e+08
1.09427e+08
1.078e+08
1.06207e+08
1.04645e+08
1.03113e+08
1.01612e+08
1.0014e+08
9.86959e+07
9.72799e+07
9.58909e+07
9.45282e+07
9.31914e+07
9.18793e+07
9.0592e+07
8.93286e+07
8.80884e+07
8.68711e+07
8.56759e+07
8.45025e+07
8.33504e+07
8.2219e+07
8.11078e+07
8.00165e+07
7.89445e+07
7.78916e+07
7.68571e+07
7.58407e+07
7.48421e+07
7.38608e+07
7.28964e+07
7.1949e+07
7.10175e+07
7.0102e+07
6.92021e+07
6.83174e+07
6.74477e+07
6.65926e+07
6.57519e+07
6.49252e+07
6.41124e+07
6.3313e+07
6.2527e+07
6.17542e+07
6.09947e+07
6.02491e+07
5.95185e+07
5.88125e+07
5.81668e+07
5.7626e+07
5.63612e+07
5.57047e+07
5.50889e+07
5.4445e+07
5.37971e+07
5.31508e+07
5.25096e+07
5.18743e+07
5.12465e+07
5.06255e+07
5.00111e+07
4.9403e+07
4.88009e+07
4.82043e+07
4.76128e+07
4.7026e+07
4.64435e+07
4.58649e+07
4.52897e+07
4.47175e+07
4.41479e+07
4.35804e+07
4.30146e+07
4.245e+07
4.18863e+07
4.13229e+07
4.07596e+07
4.01958e+07
3.96311e+07
3.90653e+07
3.84979e+07
3.79286e+07
3.73572e+07
3.67832e+07
3.62066e+07
3.56272e+07
3.50447e+07
3.4459e+07
3.38701e+07
3.3278e+07
3.26827e+07
3.20841e+07
3.14822e+07
3.08765e+07
3.02662e+07
2.96496e+07
2.9024e+07
2.83881e+07
2.77383e+07
2.70943e+07
2.65781e+07
)
;

boundaryField
{
    boundary
    {
        type            empty;
    }
    inlet
    {
        type            calculated;
        value           uniform 0;
    }
    outlet
    {
        type            calculated;
        value           uniform 0;
    }
}


// ************************************************************************* //
