/*--------------------------------*- C++ -*----------------------------------*\
  =========                 |
  \\      /  F ield         | OpenFOAM: The Open Source CFD Toolbox
   \\    /   O peration     | Website:  https://openfoam.org
    \\  /    A nd           | Version:  7
     \\/     M anipulation  |
\*---------------------------------------------------------------------------*/
FoamFile
{
    version     2.0;
    format      ascii;
    class       volScalarField;
    location    "1e-05";
    object      H;
}
// * * * * * * * * * * * * * * * * * * * * * * * * * * * * * * * * * * * * * //

dimensions      [0 0 0 0 0 0 0];

internalField   nonuniform List<scalar> 
124
(
7.49673e-05
7.4966e-05
7.49648e-05
7.49637e-05
7.49625e-05
7.49612e-05
7.496e-05
7.49587e-05
7.49574e-05
7.49561e-05
7.49548e-05
7.49535e-05
7.49523e-05
7.49512e-05
7.495e-05
7.4949e-05
7.4948e-05
7.4947e-05
7.49461e-05
7.49453e-05
7.49445e-05
7.49438e-05
7.49432e-05
7.49426e-05
7.49421e-05
7.49416e-05
7.49412e-05
7.49409e-05
7.49406e-05
7.49404e-05
7.49402e-05
7.49401e-05
7.49401e-05
7.49401e-05
7.49402e-05
7.49404e-05
7.49406e-05
7.49409e-05
7.49412e-05
7.49415e-05
7.4942e-05
7.49424e-05
7.49429e-05
7.49435e-05
7.49441e-05
7.49447e-05
7.49454e-05
7.49462e-05
7.49469e-05
7.49478e-05
7.49486e-05
7.49496e-05
7.49505e-05
7.49515e-05
7.49525e-05
7.49536e-05
7.49546e-05
7.49558e-05
7.49569e-05
7.49581e-05
7.49593e-05
7.49605e-05
7.49618e-05
7.49631e-05
7.49644e-05
7.49657e-05
7.49671e-05
7.49684e-05
7.49698e-05
7.49712e-05
7.49727e-05
7.49741e-05
7.49755e-05
7.4977e-05
7.49785e-05
7.498e-05
7.49815e-05
7.4983e-05
7.49845e-05
7.4986e-05
7.49875e-05
7.4989e-05
7.49905e-05
7.49921e-05
7.49936e-05
7.49951e-05
7.49966e-05
7.49981e-05
7.49997e-05
7.50012e-05
7.50027e-05
7.50042e-05
7.50057e-05
7.50071e-05
7.50086e-05
7.50101e-05
7.50115e-05
7.50129e-05
7.50144e-05
7.50158e-05
7.50172e-05
7.50186e-05
7.502e-05
7.50214e-05
7.50227e-05
7.50241e-05
7.50254e-05
7.50267e-05
7.5028e-05
7.50293e-05
7.50306e-05
7.50318e-05
7.5033e-05
7.50342e-05
7.50354e-05
7.50366e-05
7.50377e-05
7.50389e-05
7.50399e-05
7.5041e-05
7.5042e-05
7.50429e-05
7.50437e-05
7.50442e-05
)
;

boundaryField
{
    boundary
    {
        type            empty;
    }
    inlet
    {
        type            fixedValue;
        value           nonuniform 0();
    }
    outlet
    {
        type            zeroGradient;
    }
    procBoundary0to1
    {
        type            processor;
        value           uniform 7.49691e-05;
    }
}


// ************************************************************************* //
