/*--------------------------------*- C++ -*----------------------------------*\
  =========                 |
  \\      /  F ield         | OpenFOAM: The Open Source CFD Toolbox
   \\    /   O peration     | Website:  https://openfoam.org
    \\  /    A nd           | Version:  7
     \\/     M anipulation  |
\*---------------------------------------------------------------------------*/
FoamFile
{
    version     2.0;
    format      ascii;
    class       volScalarField;
    location    "1e-05";
    object      H2O2;
}
// * * * * * * * * * * * * * * * * * * * * * * * * * * * * * * * * * * * * * //

dimensions      [0 0 0 0 0 0 0];

internalField   nonuniform List<scalar> 
124
(
1.89088e-07
1.89084e-07
1.89077e-07
1.89069e-07
1.89062e-07
1.89055e-07
1.89049e-07
1.89043e-07
1.89038e-07
1.89033e-07
1.89029e-07
1.89025e-07
1.89022e-07
1.89019e-07
1.89017e-07
1.89015e-07
1.89014e-07
1.89013e-07
1.89013e-07
1.89014e-07
1.89014e-07
1.89016e-07
1.89017e-07
1.8902e-07
1.89022e-07
1.89025e-07
1.89029e-07
1.89032e-07
1.89036e-07
1.89041e-07
1.89045e-07
1.8905e-07
1.89056e-07
1.89062e-07
1.89068e-07
1.89074e-07
1.8908e-07
1.89087e-07
1.89094e-07
1.89101e-07
1.89109e-07
1.89116e-07
1.89124e-07
1.89132e-07
1.89141e-07
1.89149e-07
1.89158e-07
1.89166e-07
1.89175e-07
1.89184e-07
1.89193e-07
1.89202e-07
1.89211e-07
1.8922e-07
1.8923e-07
1.89239e-07
1.89248e-07
1.89257e-07
1.89267e-07
1.89276e-07
1.89285e-07
1.89295e-07
1.89304e-07
1.89313e-07
1.89322e-07
1.89332e-07
1.89341e-07
1.8935e-07
1.89358e-07
1.89367e-07
1.89376e-07
1.89385e-07
1.89393e-07
1.89401e-07
1.8941e-07
1.89418e-07
1.89426e-07
1.89434e-07
1.89442e-07
1.89449e-07
1.89457e-07
1.89464e-07
1.89471e-07
1.89478e-07
1.89485e-07
1.89492e-07
1.89498e-07
1.89505e-07
1.89511e-07
1.89517e-07
1.89523e-07
1.89529e-07
1.89534e-07
1.8954e-07
1.89545e-07
1.8955e-07
1.89555e-07
1.8956e-07
1.89565e-07
1.89569e-07
1.89573e-07
1.89578e-07
1.89582e-07
1.89585e-07
1.89589e-07
1.89593e-07
1.89596e-07
1.89599e-07
1.89602e-07
1.89605e-07
1.89608e-07
1.8961e-07
1.89613e-07
1.89615e-07
1.89618e-07
1.8962e-07
1.89622e-07
1.89624e-07
1.89625e-07
1.89627e-07
1.89628e-07
1.89629e-07
1.8963e-07
1.89629e-07
)
;

boundaryField
{
    boundary
    {
        type            empty;
    }
    inlet
    {
        type            fixedValue;
        value           nonuniform 0();
    }
    outlet
    {
        type            zeroGradient;
    }
    procBoundary0to1
    {
        type            processor;
        value           uniform 1.89096e-07;
    }
}


// ************************************************************************* //
