/*--------------------------------*- C++ -*----------------------------------*\
  =========                 |
  \\      /  F ield         | OpenFOAM: The Open Source CFD Toolbox
   \\    /   O peration     | Website:  https://openfoam.org
    \\  /    A nd           | Version:  7
     \\/     M anipulation  |
\*---------------------------------------------------------------------------*/
FoamFile
{
    version     2.0;
    format      ascii;
    class       volScalarField;
    location    "1e-05";
    object      HO2;
}
// * * * * * * * * * * * * * * * * * * * * * * * * * * * * * * * * * * * * * //

dimensions      [0 0 0 0 0 0 0];

internalField   nonuniform List<scalar> 
124
(
1.71572e-06
1.71526e-06
1.71516e-06
1.71521e-06
1.71532e-06
1.71545e-06
1.71557e-06
1.7157e-06
1.71583e-06
1.71596e-06
1.71609e-06
1.7162e-06
1.71631e-06
1.71641e-06
1.71651e-06
1.71661e-06
1.7167e-06
1.71679e-06
1.71687e-06
1.71695e-06
1.71701e-06
1.71708e-06
1.71714e-06
1.71719e-06
1.71724e-06
1.71728e-06
1.71732e-06
1.71736e-06
1.71739e-06
1.71741e-06
1.71742e-06
1.71743e-06
1.71744e-06
1.71744e-06
1.71744e-06
1.71742e-06
1.7174e-06
1.71738e-06
1.71736e-06
1.71733e-06
1.71729e-06
1.71726e-06
1.71721e-06
1.71717e-06
1.71712e-06
1.71707e-06
1.71701e-06
1.71694e-06
1.71688e-06
1.7168e-06
1.71673e-06
1.71665e-06
1.71657e-06
1.71648e-06
1.71639e-06
1.7163e-06
1.71621e-06
1.71611e-06
1.71601e-06
1.7159e-06
1.7158e-06
1.7157e-06
1.71558e-06
1.71547e-06
1.71535e-06
1.71523e-06
1.71511e-06
1.71499e-06
1.71487e-06
1.71474e-06
1.71461e-06
1.71448e-06
1.71435e-06
1.71422e-06
1.71408e-06
1.71395e-06
1.71381e-06
1.71367e-06
1.71353e-06
1.71339e-06
1.71325e-06
1.71311e-06
1.71297e-06
1.71283e-06
1.71269e-06
1.71254e-06
1.7124e-06
1.71226e-06
1.71212e-06
1.71198e-06
1.71184e-06
1.7117e-06
1.71156e-06
1.71142e-06
1.71129e-06
1.71115e-06
1.71101e-06
1.71088e-06
1.71074e-06
1.71061e-06
1.71047e-06
1.71034e-06
1.7102e-06
1.71007e-06
1.70994e-06
1.70981e-06
1.70969e-06
1.70956e-06
1.70944e-06
1.70931e-06
1.70919e-06
1.70907e-06
1.70895e-06
1.70884e-06
1.70872e-06
1.70861e-06
1.70849e-06
1.70838e-06
1.70828e-06
1.70819e-06
1.70808e-06
1.70798e-06
1.70789e-06
1.70782e-06
)
;

boundaryField
{
    boundary
    {
        type            empty;
    }
    inlet
    {
        type            fixedValue;
        value           nonuniform 0();
    }
    outlet
    {
        type            zeroGradient;
    }
    procBoundary0to1
    {
        type            processor;
        value           uniform 1.71527e-06;
    }
}


// ************************************************************************* //
