/*--------------------------------*- C++ -*----------------------------------*\
  =========                 |
  \\      /  F ield         | OpenFOAM: The Open Source CFD Toolbox
   \\    /   O peration     | Website:  https://openfoam.org
    \\  /    A nd           | Version:  7
     \\/     M anipulation  |
\*---------------------------------------------------------------------------*/
FoamFile
{
    version     2.0;
    format      ascii;
    class       volScalarField;
    location    "1e-05";
    object      O;
}
// * * * * * * * * * * * * * * * * * * * * * * * * * * * * * * * * * * * * * //

dimensions      [0 0 0 0 0 0 0];

internalField   nonuniform List<scalar> 
124
(
0.00039176
0.000391752
0.000391743
0.000391734
0.000391726
0.000391717
0.00039171
0.000391702
0.000391695
0.000391688
0.000391681
0.000391675
0.000391668
0.000391662
0.000391657
0.000391651
0.000391646
0.000391641
0.000391636
0.000391631
0.000391627
0.000391623
0.00039162
0.000391616
0.000391613
0.00039161
0.000391607
0.000391605
0.000391602
0.0003916
0.000391599
0.000391597
0.000391596
0.000391595
0.000391594
0.000391594
0.000391593
0.000391593
0.000391593
0.000391594
0.000391594
0.000391595
0.000391596
0.000391597
0.000391599
0.0003916
0.000391602
0.000391604
0.000391606
0.000391609
0.000391611
0.000391614
0.000391617
0.00039162
0.000391623
0.000391627
0.00039163
0.000391634
0.000391637
0.000391641
0.000391645
0.00039165
0.000391654
0.000391658
0.000391663
0.000391667
0.000391672
0.000391677
0.000391682
0.000391687
0.000391692
0.000391697
0.000391702
0.000391707
0.000391712
0.000391718
0.000391723
0.000391729
0.000391734
0.00039174
0.000391745
0.000391751
0.000391756
0.000391762
0.000391768
0.000391773
0.000391779
0.000391785
0.00039179
0.000391796
0.000391801
0.000391807
0.000391813
0.000391818
0.000391824
0.000391829
0.000391835
0.00039184
0.000391845
0.000391851
0.000391856
0.000391862
0.000391867
0.000391872
0.000391877
0.000391882
0.000391887
0.000391892
0.000391897
0.000391902
0.000391907
0.000391912
0.000391917
0.000391921
0.000391926
0.00039193
0.000391935
0.000391939
0.000391943
0.000391947
0.000391951
0.000391955
0.000391959
0.000391961
)
;

boundaryField
{
    boundary
    {
        type            empty;
    }
    inlet
    {
        type            fixedValue;
        value           nonuniform 0();
    }
    outlet
    {
        type            zeroGradient;
    }
    procBoundary0to1
    {
        type            processor;
        value           uniform 0.000391755;
    }
}


// ************************************************************************* //
