/*--------------------------------*- C++ -*----------------------------------*\
  =========                 |
  \\      /  F ield         | OpenFOAM: The Open Source CFD Toolbox
   \\    /   O peration     | Website:  https://openfoam.org
    \\  /    A nd           | Version:  7
     \\/     M anipulation  |
\*---------------------------------------------------------------------------*/
FoamFile
{
    version     2.0;
    format      ascii;
    class       volScalarField;
    location    "1e-05";
    object      p;
}
// * * * * * * * * * * * * * * * * * * * * * * * * * * * * * * * * * * * * * //

dimensions      [1 -1 -2 0 0 0 0];

internalField   nonuniform List<scalar> 
124
(
101629
101633
101636
101639
101643
101646
101650
101654
101658
101662
101666
101670
101674
101678
101683
101687
101692
101696
101701
101705
101710
101715
101719
101724
101729
101734
101739
101743
101748
101753
101758
101763
101767
101772
101777
101781
101786
101790
101795
101799
101804
101808
101812
101816
101820
101824
101828
101831
101835
101838
101842
101845
101848
101851
101854
101856
101859
101861
101864
101866
101868
101869
101871
101872
101874
101875
101876
101877
101877
101878
101878
101878
101878
101878
101878
101877
101877
101876
101875
101874
101872
101871
101869
101867
101865
101863
101861
101858
101856
101853
101850
101847
101844
101841
101838
101834
101830
101827
101823
101819
101815
101811
101806
101802
101797
101793
101788
101783
101778
101774
101769
101764
101758
101753
101748
101743
101737
101732
101727
101721
101716
101710
101705
101699
)
;

boundaryField
{
    boundary
    {
        type            empty;
    }
    inlet
    {
        type            zeroGradient;
    }
    outlet
    {
        type            waveTransmissive;
        gamma           1.4;
        value           uniform 101697;
    }
    procBoundary0to1
    {
        type            processor;
        value           uniform 101626;
    }
}


// ************************************************************************* //
