/*--------------------------------*- C++ -*----------------------------------*\
  =========                 |
  \\      /  F ield         | OpenFOAM: The Open Source CFD Toolbox
   \\    /   O peration     | Website:  https://openfoam.org
    \\  /    A nd           | Version:  7
     \\/     M anipulation  |
\*---------------------------------------------------------------------------*/
FoamFile
{
    version     2.0;
    format      ascii;
    class       surfaceScalarField;
    location    "1e-05";
    object      phi;
}
// * * * * * * * * * * * * * * * * * * * * * * * * * * * * * * * * * * * * * //

dimensions      [1 0 -1 0 0 0 0];

internalField   nonuniform List<scalar> 
123
(
2.00472e-06
2.01528e-06
2.02624e-06
2.03758e-06
2.0493e-06
2.06137e-06
2.07379e-06
2.08656e-06
2.09964e-06
2.11304e-06
2.12675e-06
2.14073e-06
2.15499e-06
2.16951e-06
2.18426e-06
2.19924e-06
2.21443e-06
2.22981e-06
2.24537e-06
2.26108e-06
2.27693e-06
2.2929e-06
2.30898e-06
2.32517e-06
2.34144e-06
2.35776e-06
2.37411e-06
2.39047e-06
2.40681e-06
2.42312e-06
2.43937e-06
2.45556e-06
2.47165e-06
2.48764e-06
2.50349e-06
2.51919e-06
2.53473e-06
2.55007e-06
2.56521e-06
2.58012e-06
2.59479e-06
2.6092e-06
2.62332e-06
2.63715e-06
2.65066e-06
2.66385e-06
2.67668e-06
2.68915e-06
2.70123e-06
2.71291e-06
2.72416e-06
2.73499e-06
2.74538e-06
2.75533e-06
2.7648e-06
2.77381e-06
2.78233e-06
2.79035e-06
2.79786e-06
2.80486e-06
2.81133e-06
2.81727e-06
2.82266e-06
2.82751e-06
2.8318e-06
2.83553e-06
2.83869e-06
2.84129e-06
2.84331e-06
2.84475e-06
2.84561e-06
2.84589e-06
2.84559e-06
2.8447e-06
2.84324e-06
2.84119e-06
2.83855e-06
2.83534e-06
2.83156e-06
2.8272e-06
2.82227e-06
2.81678e-06
2.81073e-06
2.80412e-06
2.79697e-06
2.78928e-06
2.78105e-06
2.77229e-06
2.76302e-06
2.75324e-06
2.74296e-06
2.73219e-06
2.72093e-06
2.70921e-06
2.69703e-06
2.68439e-06
2.67132e-06
2.65783e-06
2.64392e-06
2.62962e-06
2.61492e-06
2.59985e-06
2.58442e-06
2.56863e-06
2.55252e-06
2.53608e-06
2.51933e-06
2.5023e-06
2.48498e-06
2.4674e-06
2.44956e-06
2.4315e-06
2.41321e-06
2.39471e-06
2.37602e-06
2.35715e-06
2.33812e-06
2.31894e-06
2.29963e-06
2.28019e-06
2.26065e-06
2.24102e-06
2.22133e-06
)
;

boundaryField
{
    boundary
    {
        type            empty;
        value           nonuniform 0();
    }
    inlet
    {
        type            calculated;
        value           nonuniform 0();
    }
    outlet
    {
        type            calculated;
        value           uniform 2.20159e-06;
    }
    procBoundary0to1
    {
        type            processor;
        value           uniform -1.99456e-06;
    }
}


// ************************************************************************* //
