/*--------------------------------*- C++ -*----------------------------------*\
  =========                 |
  \\      /  F ield         | OpenFOAM: The Open Source CFD Toolbox
   \\    /   O peration     | Website:  https://openfoam.org
    \\  /    A nd           | Version:  7
     \\/     M anipulation  |
\*---------------------------------------------------------------------------*/
FoamFile
{
    version     2.0;
    format      ascii;
    class       volScalarField;
    location    "1e-05";
    object      Qdot;
}
// * * * * * * * * * * * * * * * * * * * * * * * * * * * * * * * * * * * * * //

dimensions      [1 -1 -3 0 0 0 0];

internalField   nonuniform List<scalar> 
124
(
-118302
-126231
-138058
-153598
-170720
-188627
-206390
-224355
-242194
-259940
-277755
-295509
-312306
-329150
-345750
-361985
-377931
-393208
-408825
-423019
-438415
-452154
-466545
-479641
-492951
-506025
-518558
-530513
-541990
-553050
-563836
-574195
-584049
-593457
-602499
-610283
-618316
-625928
-633128
-639920
-646306
-652244
-657691
-663079
-667715
-671927
-675716
-678993
-681974
-684538
-686683
-688288
-689522
-690462
-691062
-691309
-691200
-690738
-689930
-688784
-687507
-685700
-683579
-681153
-678434
-675442
-672216
-668672
-664846
-660759
-656425
-651855
-647056
-642040
-636792
-631254
-625539
-619680
-613664
-607296
-600985
-594558
-588080
-581378
-574527
-567567
-560497
-553320
-546042
-538672
-531214
-523669
-516055
-508634
-500965
-493371
-485587
-477580
-469759
-461974
-454210
-446471
-438435
-430777
-423146
-415506
-407894
-400327
-392795
-385269
-377692
-370254
-362903
-355620
-348417
-341291
-334203
-327158
-320201
-314000
-307118
-300320
-293729
-288342
)
;

boundaryField
{
    boundary
    {
        type            empty;
    }
    inlet
    {
        type            calculated;
        value           nonuniform 0();
    }
    outlet
    {
        type            calculated;
        value           uniform 0;
    }
    procBoundary0to1
    {
        type            processor;
        value           uniform 0;
    }
}


// ************************************************************************* //
