/*--------------------------------*- C++ -*----------------------------------*\
  =========                 |
  \\      /  F ield         | OpenFOAM: The Open Source CFD Toolbox
   \\    /   O peration     | Website:  https://openfoam.org
    \\  /    A nd           | Version:  7
     \\/     M anipulation  |
\*---------------------------------------------------------------------------*/
FoamFile
{
    version     2.0;
    format      ascii;
    class       volScalarField;
    location    "1e-05";
    object      T;
}
// * * * * * * * * * * * * * * * * * * * * * * * * * * * * * * * * * * * * * //

dimensions      [0 0 0 1 0 0 0];

internalField   nonuniform List<scalar> 
124
(
2389.13
2389.16
2389.2
2389.23
2389.27
2389.3
2389.34
2389.37
2389.41
2389.44
2389.47
2389.51
2389.54
2389.57
2389.61
2389.64
2389.67
2389.7
2389.73
2389.76
2389.79
2389.82
2389.84
2389.87
2389.9
2389.92
2389.95
2389.97
2389.99
2390.02
2390.04
2390.06
2390.08
2390.1
2390.11
2390.13
2390.15
2390.16
2390.18
2390.19
2390.2
2390.21
2390.22
2390.23
2390.24
2390.25
2390.26
2390.26
2390.27
2390.27
2390.27
2390.28
2390.28
2390.28
2390.28
2390.28
2390.27
2390.27
2390.27
2390.26
2390.25
2390.25
2390.24
2390.23
2390.22
2390.21
2390.2
2390.19
2390.18
2390.17
2390.15
2390.14
2390.12
2390.11
2390.09
2390.07
2390.06
2390.04
2390.02
2390
2389.98
2389.96
2389.94
2389.92
2389.9
2389.88
2389.85
2389.83
2389.81
2389.79
2389.76
2389.74
2389.71
2389.69
2389.67
2389.64
2389.62
2389.59
2389.57
2389.54
2389.51
2389.49
2389.46
2389.44
2389.41
2389.39
2389.36
2389.33
2389.31
2389.28
2389.26
2389.23
2389.21
2389.18
2389.16
2389.13
2389.11
2389.08
2389.06
2389.03
2389.01
2388.98
2388.96
2388.95
)
;

boundaryField
{
    boundary
    {
        type            empty;
    }
    inlet
    {
        type            fixedValue;
        value           nonuniform 0();
    }
    outlet
    {
        type            zeroGradient;
    }
    procBoundary0to1
    {
        type            processor;
        value           uniform 2389.09;
    }
}


// ************************************************************************* //
