/*--------------------------------*- C++ -*----------------------------------*\
  =========                 |
  \\      /  F ield         | OpenFOAM: The Open Source CFD Toolbox
   \\    /   O peration     | Website:  https://openfoam.org
    \\  /    A nd           | Version:  7
     \\/     M anipulation  |
\*---------------------------------------------------------------------------*/
FoamFile
{
    version     2.0;
    format      ascii;
    class       volVectorField;
    location    "1e-05";
    object      U;
}
// * * * * * * * * * * * * * * * * * * * * * * * * * * * * * * * * * * * * * //

dimensions      [0 1 -1 0 0 0 0];

internalField   nonuniform List<vector> 
124
(
(4.72065 0 0)
(4.74481 0 0)
(4.76999 0 0)
(4.7963 0 0)
(4.82357 0 0)
(4.85158 0 0)
(4.88035 0 0)
(4.90992 0 0)
(4.94029 0 0)
(4.97142 0 0)
(5.00325 0 0)
(5.03577 0 0)
(5.06893 0 0)
(5.10271 0 0)
(5.13707 0 0)
(5.17197 0 0)
(5.20737 0 0)
(5.24324 0 0)
(5.27957 0 0)
(5.31637 0 0)
(5.35268 0 0)
(5.38918 0 0)
(5.42884 0 0)
(5.46784 0 0)
(5.50463 0 0)
(5.54095 0 0)
(5.57984 0 0)
(5.61901 0 0)
(5.65714 0 0)
(5.6953 0 0)
(5.73343 0 0)
(5.77143 0 0)
(5.80922 0 0)
(5.84677 0 0)
(5.88403 0 0)
(5.92096 0 0)
(5.95751 0 0)
(5.99364 0 0)
(6.0293 0 0)
(6.06445 0 0)
(6.09904 0 0)
(6.13304 0 0)
(6.1664 0 0)
(6.19908 0 0)
(6.23104 0 0)
(6.26249 0 0)
(6.29197 0 0)
(6.32042 0 0)
(6.35228 0 0)
(6.38067 0 0)
(6.40571 0 0)
(6.4297 0 0)
(6.45564 0 0)
(6.47988 0 0)
(6.50231 0 0)
(6.52388 0 0)
(6.54432 0 0)
(6.56361 0 0)
(6.58172 0 0)
(6.59864 0 0)
(6.61433 0 0)
(6.62879 0 0)
(6.64198 0 0)
(6.6539 0 0)
(6.66453 0 0)
(6.67385 0 0)
(6.68186 0 0)
(6.68854 0 0)
(6.69388 0 0)
(6.69787 0 0)
(6.70051 0 0)
(6.7018 0 0)
(6.70172 0 0)
(6.70028 0 0)
(6.69748 0 0)
(6.69332 0 0)
(6.68779 0 0)
(6.68092 0 0)
(6.67269 0 0)
(6.66312 0 0)
(6.65222 0 0)
(6.63999 0 0)
(6.62645 0 0)
(6.61161 0 0)
(6.59547 0 0)
(6.57807 0 0)
(6.55941 0 0)
(6.53951 0 0)
(6.51839 0 0)
(6.49607 0 0)
(6.47257 0 0)
(6.4479 0 0)
(6.4221 0 0)
(6.39519 0 0)
(6.36719 0 0)
(6.33813 0 0)
(6.30803 0 0)
(6.27692 0 0)
(6.24482 0 0)
(6.21178 0 0)
(6.17781 0 0)
(6.14294 0 0)
(6.10722 0 0)
(6.07065 0 0)
(6.03329 0 0)
(5.99516 0 0)
(5.95628 0 0)
(5.91671 0 0)
(5.87646 0 0)
(5.83557 0 0)
(5.79407 0 0)
(5.752 0 0)
(5.7094 0 0)
(5.66629 0 0)
(5.6227 0 0)
(5.57869 0 0)
(5.53426 0 0)
(5.48946 0 0)
(5.44435 0 0)
(5.39902 0 0)
(5.35369 0 0)
(5.30623 0 0)
(5.25633 0 0)
(5.20149 0 0)
)
;

boundaryField
{
    boundary
    {
        type            empty;
    }
    inlet
    {
        type            fixedValue;
        value           nonuniform 0();
    }
    outlet
    {
        type            zeroGradient;
    }
    procBoundary0to1
    {
        type            processor;
        value           uniform (4.6976 0 0);
    }
}


// ************************************************************************* //
