/*--------------------------------*- C++ -*----------------------------------*\
  =========                 |
  \\      /  F ield         | OpenFOAM: The Open Source CFD Toolbox
   \\    /   O peration     | Website:  https://openfoam.org
    \\  /    A nd           | Version:  7
     \\/     M anipulation  |
\*---------------------------------------------------------------------------*/
FoamFile
{
    version     2.0;
    format      ascii;
    class       volScalarField;
    location    "0.00075";
    object      H2O;
}
// * * * * * * * * * * * * * * * * * * * * * * * * * * * * * * * * * * * * * //

dimensions      [0 0 0 0 0 0 0];

internalField   nonuniform List<scalar> 
126
(
2.36665e-45
2.36674e-45
2.36683e-45
2.36693e-45
2.36703e-45
2.36713e-45
2.36723e-45
2.36734e-45
2.36744e-45
2.36755e-45
2.36766e-45
2.36778e-45
2.3679e-45
2.36804e-45
2.3682e-45
2.36838e-45
2.36858e-45
2.36882e-45
2.36909e-45
2.3694e-45
2.36975e-45
2.37013e-45
2.37055e-45
2.37101e-45
2.37149e-45
2.37199e-45
2.3725e-45
2.37302e-45
2.37353e-45
2.37403e-45
2.3745e-45
2.37495e-45
2.37536e-45
2.37573e-45
2.37606e-45
2.37635e-45
2.37661e-45
2.37683e-45
2.37701e-45
2.37717e-45
2.37731e-45
2.37743e-45
2.37755e-45
2.37766e-45
2.37778e-45
2.3779e-45
2.37803e-45
2.37818e-45
2.37835e-45
2.37853e-45
2.37873e-45
2.37895e-45
2.37919e-45
2.37944e-45
2.37971e-45
2.37998e-45
2.38026e-45
2.38055e-45
2.38084e-45
2.38112e-45
2.38141e-45
2.38168e-45
2.38195e-45
2.3822e-45
2.38244e-45
2.38267e-45
2.38289e-45
2.38309e-45
2.38327e-45
2.38345e-45
2.38362e-45
2.38382e-45
2.38421e-45
2.3853e-45
2.38906e-45
2.40269e-45
2.45254e-45
2.6343e-45
3.29388e-45
5.67498e-45
1.42272e-44
4.47982e-44
1.53603e-43
5.39367e-43
1.90276e-42
6.71005e-42
2.36374e-41
8.3232e-41
2.93301e-40
1.03589e-39
3.67293e-39
1.30976e-38
4.70578e-38
1.70632e-37
6.25296e-37
2.3181e-36
8.69745e-36
3.30225e-35
1.26793e-34
4.91778e-34
1.92408e-33
7.58217e-33
3.00476e-32
1.19577e-31
4.77262e-31
1.9084e-30
7.6385e-30
3.05829e-29
1.22422e-28
4.8977e-28
1.95782e-27
7.81879e-27
3.11932e-26
1.24317e-25
4.94949e-25
1.96869e-24
7.82377e-24
3.1068e-23
1.23284e-22
4.88922e-22
1.93794e-21
7.67782e-21
3.04054e-20
1.20362e-19
4.76273e-19
1.88383e-18
)
;

boundaryField
{
    boundary
    {
        type            empty;
    }
    inlet
    {
        type            fixedValue;
        value           nonuniform 0();
    }
    outlet
    {
        type            zeroGradient;
    }
    procBoundary3to1
    {
        type            processor;
        value           uniform 7.49326e-18;
    }
    procBoundary3to2
    {
        type            processor;
        value           uniform 2.36999e-45;
    }
}


// ************************************************************************* //
