/*--------------------------------*- C++ -*----------------------------------*\
  =========                 |
  \\      /  F ield         | OpenFOAM: The Open Source CFD Toolbox
   \\    /   O peration     | Website:  https://openfoam.org
    \\  /    A nd           | Version:  7
     \\/     M anipulation  |
\*---------------------------------------------------------------------------*/
FoamFile
{
    version     2.0;
    format      ascii;
    class       volScalarField;
    location    "0.00075";
    object      HO2;
}
// * * * * * * * * * * * * * * * * * * * * * * * * * * * * * * * * * * * * * //

dimensions      [0 0 0 0 0 0 0];

internalField   nonuniform List<scalar> 
126
(
5.98198e-36
5.98216e-36
5.98235e-36
5.98254e-36
5.98274e-36
5.98295e-36
5.98315e-36
5.98336e-36
5.98356e-36
5.98376e-36
5.98397e-36
5.98418e-36
5.9844e-36
5.98464e-36
5.9849e-36
5.9852e-36
5.98554e-36
5.98594e-36
5.98639e-36
5.98691e-36
5.9875e-36
5.98816e-36
5.98888e-36
5.98967e-36
5.99051e-36
5.99139e-36
5.9923e-36
5.99321e-36
5.9941e-36
5.99497e-36
5.99578e-36
5.99654e-36
5.99721e-36
5.99781e-36
5.99832e-36
5.99874e-36
5.99909e-36
5.99938e-36
5.99962e-36
5.99983e-36
6.00002e-36
6.00021e-36
6.00042e-36
6.00067e-36
6.00097e-36
6.00132e-36
6.00174e-36
6.00222e-36
6.00276e-36
6.00337e-36
6.00404e-36
6.00475e-36
6.00551e-36
6.0063e-36
6.0071e-36
6.00792e-36
6.00873e-36
6.00954e-36
6.01033e-36
6.0111e-36
6.01183e-36
6.01253e-36
6.01319e-36
6.01381e-36
6.01439e-36
6.01493e-36
6.01542e-36
6.01587e-36
6.01628e-36
6.01665e-36
6.01698e-36
6.01727e-36
6.01753e-36
6.01774e-36
6.01792e-36
6.01807e-36
6.01818e-36
6.01826e-36
6.0183e-36
6.0183e-36
6.01827e-36
6.01819e-36
6.01808e-36
6.01793e-36
6.01775e-36
6.01752e-36
6.01729e-36
6.01714e-36
6.01735e-36
6.01893e-36
6.02519e-36
6.04723e-36
6.12194e-36
6.37112e-36
7.19528e-36
9.90523e-36
1.87729e-35
4.76652e-35
1.41435e-34
4.44714e-34
1.42269e-33
4.56895e-33
1.46745e-32
4.71113e-32
1.51281e-31
4.8649e-31
1.56932e-30
5.08855e-30
1.66267e-29
5.49041e-29
1.83811e-28
6.25927e-28
2.17455e-27
7.72576e-27
2.81081e-26
1.04737e-25
3.99279e-25
1.55399e-24
6.1579e-24
2.47703e-23
1.00851e-22
4.14505e-22
1.71593e-21
7.14124e-21
2.9833e-20
1.24954e-19
)
;

boundaryField
{
    boundary
    {
        type            empty;
    }
    inlet
    {
        type            fixedValue;
        value           nonuniform 0();
    }
    outlet
    {
        type            zeroGradient;
    }
    procBoundary3to1
    {
        type            processor;
        value           uniform 5.27491e-19;
    }
    procBoundary3to2
    {
        type            processor;
        value           uniform 5.98995e-36;
    }
}


// ************************************************************************* //
