/*--------------------------------*- C++ -*----------------------------------*\
  =========                 |
  \\      /  F ield         | OpenFOAM: The Open Source CFD Toolbox
   \\    /   O peration     | Website:  https://openfoam.org
    \\  /    A nd           | Version:  7
     \\/     M anipulation  |
\*---------------------------------------------------------------------------*/
FoamFile
{
    version     2.0;
    format      ascii;
    class       volScalarField;
    location    "0.00037";
    object      T;
}
// * * * * * * * * * * * * * * * * * * * * * * * * * * * * * * * * * * * * * //

dimensions      [0 0 0 1 0 0 0];

internalField   nonuniform List<scalar> 
125
(
301.447
301.444
301.441
301.438
301.434
301.431
301.428
301.424
301.421
301.418
301.414
301.411
301.408
301.404
301.401
301.398
301.395
301.395
301.401
301.424
301.495
301.706
302.314
304.055
309.026
322.995
359.592
439.052
567.101
720.461
874.255
1019.99
1154.63
1272.92
1369.87
1451.58
1521.31
1576.97
1621.57
1659.85
1693.1
1722.38
1748.48
1771.97
1793.29
1812.77
1830.68
1847.23
1862.58
1876.89
1890.26
1902.81
1914.61
1925.74
1936.25
1946.22
1955.67
1964.66
1973.21
1981.36
1989.13
1996.34
2003.12
2009.67
2016
2022.11
2028.03
2033.76
2039.31
2044.69
2049.91
2054.97
2059.9
2064.68
2069.34
2073.87
2078.28
2082.57
2086.76
2090.84
2094.82
2098.71
2102.51
2106.21
2109.84
2113.38
2116.84
2120.23
2123.55
2126.79
2129.97
2133.09
2136.14
2139.13
2142.07
2144.94
2147.76
2150.53
2153.25
2155.92
2158.54
2161.11
2163.63
2166.11
2168.54
2170.93
2173.28
2175.59
2177.85
2180.07
2182.26
2184.4
2186.5
2188.56
2190.59
2192.57
2194.52
2196.42
2198.29
2200.12
2201.91
2203.67
2205.39
2207.1
2208.78
)
;

boundaryField
{
    boundary
    {
        type            empty;
    }
    inlet
    {
        type            fixedValue;
        value           nonuniform 0();
    }
    outlet
    {
        type            zeroGradient;
    }
    procBoundary1to0
    {
        type            processor;
        value           uniform 2210.41;
    }
    procBoundary1to3
    {
        type            processor;
        value           uniform 301.45;
    }
}


// ************************************************************************* //
