/*--------------------------------*- C++ -*----------------------------------*\
  =========                 |
  \\      /  F ield         | OpenFOAM: The Open Source CFD Toolbox
   \\    /   O peration     | Website:  https://openfoam.org
    \\  /    A nd           | Version:  7
     \\/     M anipulation  |
\*---------------------------------------------------------------------------*/
FoamFile
{
    version     2.0;
    format      ascii;
    class       volVectorField;
    location    "0.00037";
    object      U;
}
// * * * * * * * * * * * * * * * * * * * * * * * * * * * * * * * * * * * * * //

dimensions      [0 1 -1 0 0 0 0];

internalField   nonuniform List<vector> 
125
(
(2.32963 0 0)
(2.32955 0 0)
(2.32947 0 0)
(2.3294 0 0)
(2.32932 0 0)
(2.32925 0 0)
(2.32917 0 0)
(2.3291 0 0)
(2.32902 0 0)
(2.32895 0 0)
(2.32887 0 0)
(2.3288 0 0)
(2.32872 0 0)
(2.32864 0 0)
(2.32857 0 0)
(2.32849 0 0)
(2.32842 0 0)
(2.32834 0 0)
(2.3283 0 0)
(2.32837 0 0)
(2.32877 0 0)
(2.33029 0 0)
(2.33522 0 0)
(2.34958 0 0)
(2.38743 0 0)
(2.47934 0 0)
(2.69171 0 0)
(3.14589 0 0)
(4.00662 0 0)
(5.17283 0 0)
(6.41087 0 0)
(7.56063 0 0)
(8.57464 0 0)
(9.44188 0 0)
(10.16 0 0)
(10.7517 0 0)
(11.2435 0 0)
(11.6426 0 0)
(11.9605 0 0)
(12.2224 0 0)
(12.4478 0 0)
(12.6458 0 0)
(12.8215 0 0)
(12.9786 0 0)
(13.1203 0 0)
(13.2492 0 0)
(13.3671 0 0)
(13.4756 0 0)
(13.5759 0 0)
(13.669 0 0)
(13.7558 0 0)
(13.8369 0 0)
(13.913 0 0)
(13.9845 0 0)
(14.052 0 0)
(14.1157 0 0)
(14.176 0 0)
(14.2332 0 0)
(14.2875 0 0)
(14.3392 0 0)
(14.3883 0 0)
(14.4338 0 0)
(14.4764 0 0)
(14.5176 0 0)
(14.5574 0 0)
(14.5958 0 0)
(14.6328 0 0)
(14.6686 0 0)
(14.7033 0 0)
(14.7368 0 0)
(14.7693 0 0)
(14.8008 0 0)
(14.8314 0 0)
(14.8611 0 0)
(14.8899 0 0)
(14.9179 0 0)
(14.9452 0 0)
(14.9717 0 0)
(14.9975 0 0)
(15.0226 0 0)
(15.0471 0 0)
(15.071 0 0)
(15.0943 0 0)
(15.1171 0 0)
(15.1392 0 0)
(15.1609 0 0)
(15.1821 0 0)
(15.2028 0 0)
(15.2231 0 0)
(15.2429 0 0)
(15.2622 0 0)
(15.2812 0 0)
(15.2998 0 0)
(15.3179 0 0)
(15.3358 0 0)
(15.3532 0 0)
(15.3703 0 0)
(15.3871 0 0)
(15.4036 0 0)
(15.4197 0 0)
(15.4355 0 0)
(15.4511 0 0)
(15.4664 0 0)
(15.4814 0 0)
(15.4961 0 0)
(15.5105 0 0)
(15.5247 0 0)
(15.5387 0 0)
(15.5524 0 0)
(15.5659 0 0)
(15.5792 0 0)
(15.5923 0 0)
(15.6051 0 0)
(15.6177 0 0)
(15.6302 0 0)
(15.6424 0 0)
(15.6544 0 0)
(15.6663 0 0)
(15.678 0 0)
(15.6896 0 0)
(15.701 0 0)
(15.7123 0 0)
(15.7236 0 0)
(15.735 0 0)
(15.7463 0 0)
)
;

boundaryField
{
    boundary
    {
        type            empty;
    }
    inlet
    {
        type            fixedValue;
        value           nonuniform 0();
    }
    outlet
    {
        type            zeroGradient;
    }
    procBoundary1to0
    {
        type            processor;
        value           uniform (15.7573 0 0);
    }
    procBoundary1to3
    {
        type            processor;
        value           uniform (2.3297 0 0);
    }
}


// ************************************************************************* //
