/*--------------------------------*- C++ -*----------------------------------*\
  =========                 |
  \\      /  F ield         | OpenFOAM: The Open Source CFD Toolbox
   \\    /   O peration     | Website:  https://openfoam.org
    \\  /    A nd           | Version:  7
     \\/     M anipulation  |
\*---------------------------------------------------------------------------*/
FoamFile
{
    version     2.0;
    format      ascii;
    class       volScalarField;
    location    "0.0005";
    object      HO2;
}
// * * * * * * * * * * * * * * * * * * * * * * * * * * * * * * * * * * * * * //

dimensions      [0 0 0 0 0 0 0];

internalField   nonuniform List<scalar> 
126
(
3.92569e-36
3.92597e-36
3.92633e-36
3.92679e-36
3.92737e-36
3.92811e-36
3.929e-36
3.93006e-36
3.93127e-36
3.93257e-36
3.93392e-36
3.93523e-36
3.93644e-36
3.93748e-36
3.93829e-36
3.93885e-36
3.93916e-36
3.93924e-36
3.9391e-36
3.93882e-36
3.93843e-36
3.93799e-36
3.93757e-36
3.93719e-36
3.93691e-36
3.93675e-36
3.93673e-36
3.93686e-36
3.93713e-36
3.93755e-36
3.93809e-36
3.93875e-36
3.93949e-36
3.9403e-36
3.94115e-36
3.94203e-36
3.94291e-36
3.94378e-36
3.94463e-36
3.94543e-36
3.94619e-36
3.94689e-36
3.94754e-36
3.94813e-36
3.94867e-36
3.94915e-36
3.94958e-36
3.94996e-36
3.95031e-36
3.95061e-36
3.95088e-36
3.95111e-36
3.95132e-36
3.9515e-36
3.95166e-36
3.95179e-36
3.9519e-36
3.952e-36
3.95207e-36
3.95211e-36
3.95214e-36
3.95215e-36
3.95213e-36
3.95209e-36
3.95203e-36
3.95194e-36
3.95182e-36
3.95168e-36
3.95151e-36
3.9513e-36
3.95107e-36
3.95081e-36
3.95051e-36
3.95017e-36
3.9498e-36
3.94939e-36
3.94894e-36
3.94846e-36
3.94793e-36
3.94735e-36
3.94674e-36
3.94607e-36
3.94536e-36
3.9446e-36
3.9438e-36
3.94294e-36
3.94203e-36
3.94106e-36
3.94005e-36
3.93898e-36
3.93788e-36
3.93682e-36
3.93609e-36
3.93691e-36
3.94403e-36
3.97628e-36
4.10728e-36
4.62239e-36
6.61883e-36
1.42808e-35
4.34416e-35
1.53574e-34
5.66569e-34
2.10536e-33
7.80696e-33
2.88391e-32
1.06189e-31
3.90301e-31
1.43482e-30
5.28812e-30
1.95919e-29
7.31772e-29
2.76331e-28
1.05762e-27
4.11029e-27
1.62356e-26
6.51725e-26
2.65576e-25
1.09657e-24
4.57735e-24
1.92695e-23
8.16232e-23
3.47195e-22
1.48062e-21
6.32239e-21
2.7008e-20
)
;

boundaryField
{
    boundary
    {
        type            empty;
    }
    inlet
    {
        type            fixedValue;
        value           nonuniform 0();
    }
    outlet
    {
        type            zeroGradient;
    }
    procBoundary3to1
    {
        type            processor;
        value           uniform 1.16247e-19;
    }
    procBoundary3to2
    {
        type            processor;
        value           uniform 3.9338e-36;
    }
}


// ************************************************************************* //
