/*--------------------------------*- C++ -*----------------------------------*\
  =========                 |
  \\      /  F ield         | OpenFOAM: The Open Source CFD Toolbox
   \\    /   O peration     | Website:  https://openfoam.org
    \\  /    A nd           | Version:  7
     \\/     M anipulation  |
\*---------------------------------------------------------------------------*/
FoamFile
{
    version     2.0;
    format      ascii;
    class       volScalarField;
    location    "0.0005";
    object      p;
}
// * * * * * * * * * * * * * * * * * * * * * * * * * * * * * * * * * * * * * //

dimensions      [1 -1 -2 0 0 0 0];

internalField   nonuniform List<scalar> 
126
(
103216
103216
103216
103216
103216
103216
103216
103216
103216
103216
103216
103216
103216
103216
103216
103216
103216
103216
103216
103216
103216
103216
103216
103216
103216
103216
103216
103216
103216
103216
103216
103216
103216
103216
103216
103216
103216
103216
103216
103216
103216
103216
103216
103216
103216
103216
103216
103216
103216
103216
103216
103216
103216
103216
103216
103216
103216
103216
103216
103216
103216
103216
103216
103216
103216
103216
103216
103216
103216
103216
103216
103215
103215
103215
103215
103215
103215
103215
103215
103215
103215
103215
103215
103215
103215
103215
103215
103215
103215
103215
103215
103215
103215
103215
103215
103215
103215
103215
103215
103215
103215
103215
103215
103215
103215
103215
103215
103215
103215
103215
103215
103215
103215
103215
103215
103215
103215
103215
103215
103215
103215
103215
103215
103215
103215
103215
)
;

boundaryField
{
    boundary
    {
        type            empty;
    }
    inlet
    {
        type            zeroGradient;
    }
    outlet
    {
        type            waveTransmissive;
        gamma           1.4;
        value           nonuniform 0();
    }
    procBoundary3to1
    {
        type            processor;
        value           uniform 103214;
    }
    procBoundary3to2
    {
        type            processor;
        value           uniform 103216;
    }
}


// ************************************************************************* //
