/*--------------------------------*- C++ -*----------------------------------*\
  =========                 |
  \\      /  F ield         | OpenFOAM: The Open Source CFD Toolbox
   \\    /   O peration     | Website:  https://openfoam.org
    \\  /    A nd           | Version:  7
     \\/     M anipulation  |
\*---------------------------------------------------------------------------*/
FoamFile
{
    version     2.0;
    format      ascii;
    class       volVectorField;
    location    "0.0005";
    object      U;
}
// * * * * * * * * * * * * * * * * * * * * * * * * * * * * * * * * * * * * * //

dimensions      [0 1 -1 0 0 0 0];

internalField   nonuniform List<vector> 
126
(
(2.34132 0 0)
(2.34127 0 0)
(2.34122 0 0)
(2.34116 0 0)
(2.3411 0 0)
(2.34104 0 0)
(2.34099 0 0)
(2.34093 0 0)
(2.34087 0 0)
(2.34082 0 0)
(2.34076 0 0)
(2.34071 0 0)
(2.34065 0 0)
(2.3406 0 0)
(2.34054 0 0)
(2.34048 0 0)
(2.34043 0 0)
(2.34037 0 0)
(2.34032 0 0)
(2.34026 0 0)
(2.34021 0 0)
(2.34015 0 0)
(2.3401 0 0)
(2.34004 0 0)
(2.33999 0 0)
(2.33993 0 0)
(2.33988 0 0)
(2.33983 0 0)
(2.33977 0 0)
(2.33972 0 0)
(2.33966 0 0)
(2.33961 0 0)
(2.33955 0 0)
(2.3395 0 0)
(2.33945 0 0)
(2.33939 0 0)
(2.33934 0 0)
(2.33929 0 0)
(2.33923 0 0)
(2.33918 0 0)
(2.33913 0 0)
(2.33907 0 0)
(2.33902 0 0)
(2.33897 0 0)
(2.33891 0 0)
(2.33886 0 0)
(2.33881 0 0)
(2.33875 0 0)
(2.3387 0 0)
(2.33865 0 0)
(2.3386 0 0)
(2.33854 0 0)
(2.33849 0 0)
(2.33844 0 0)
(2.33839 0 0)
(2.33834 0 0)
(2.33828 0 0)
(2.33823 0 0)
(2.33818 0 0)
(2.33813 0 0)
(2.33808 0 0)
(2.33802 0 0)
(2.33797 0 0)
(2.33792 0 0)
(2.33787 0 0)
(2.33782 0 0)
(2.33777 0 0)
(2.33772 0 0)
(2.33767 0 0)
(2.33762 0 0)
(2.33757 0 0)
(2.33751 0 0)
(2.33746 0 0)
(2.33741 0 0)
(2.33736 0 0)
(2.33731 0 0)
(2.33726 0 0)
(2.33721 0 0)
(2.33716 0 0)
(2.33711 0 0)
(2.33706 0 0)
(2.33701 0 0)
(2.33696 0 0)
(2.33691 0 0)
(2.33686 0 0)
(2.33681 0 0)
(2.33677 0 0)
(2.33672 0 0)
(2.33667 0 0)
(2.33662 0 0)
(2.33657 0 0)
(2.33652 0 0)
(2.33647 0 0)
(2.33642 0 0)
(2.33637 0 0)
(2.33633 0 0)
(2.33628 0 0)
(2.33623 0 0)
(2.33618 0 0)
(2.33613 0 0)
(2.33608 0 0)
(2.33604 0 0)
(2.33599 0 0)
(2.33594 0 0)
(2.33589 0 0)
(2.33585 0 0)
(2.3358 0 0)
(2.33575 0 0)
(2.3357 0 0)
(2.33566 0 0)
(2.33561 0 0)
(2.33556 0 0)
(2.33552 0 0)
(2.33547 0 0)
(2.33542 0 0)
(2.33538 0 0)
(2.33533 0 0)
(2.33528 0 0)
(2.33524 0 0)
(2.33519 0 0)
(2.33515 0 0)
(2.3351 0 0)
(2.33505 0 0)
(2.33501 0 0)
(2.33496 0 0)
(2.33491 0 0)
)
;

boundaryField
{
    boundary
    {
        type            empty;
    }
    inlet
    {
        type            fixedValue;
        value           nonuniform 0();
    }
    outlet
    {
        type            zeroGradient;
    }
    procBoundary3to1
    {
        type            processor;
        value           uniform (2.33486 0 0);
    }
    procBoundary3to2
    {
        type            processor;
        value           uniform (2.34138 0 0);
    }
}


// ************************************************************************* //
