/*--------------------------------*- C++ -*----------------------------------*\
  =========                 |
  \\      /  F ield         | OpenFOAM: The Open Source CFD Toolbox
   \\    /   O peration     | Website:  https://openfoam.org
    \\  /    A nd           | Version:  7
     \\/     M anipulation  |
\*---------------------------------------------------------------------------*/
FoamFile
{
    version     2.0;
    format      ascii;
    class       volScalarField;
    location    "0.00074";
    object      H2;
}
// * * * * * * * * * * * * * * * * * * * * * * * * * * * * * * * * * * * * * //

dimensions      [0 0 0 0 0 0 0];

internalField   nonuniform List<scalar> 
500
(
0.0285116
0.0285116
0.0285116
0.0285116
0.0285116
0.0285116
0.0285116
0.0285116
0.0285116
0.0285116
0.0285116
0.0285116
0.0285116
0.0285116
0.0285116
0.0285116
0.0285116
0.0285116
0.0285116
0.0285116
0.0285116
0.0285116
0.0285116
0.0285116
0.0285116
0.0285116
0.0285116
0.0285116
0.0285116
0.0285116
0.0285116
0.0285116
0.0285116
0.0285116
0.0285116
0.0285116
0.0285116
0.0285116
0.0285116
0.0285116
0.0285116
0.0285116
0.0285116
0.0285116
0.0285116
0.0285116
0.0285116
0.0285116
0.0285116
0.0285116
0.0285116
0.0285116
0.0285116
0.0285116
0.0285116
0.0285116
0.0285116
0.0285116
0.0285116
0.0285116
0.0285116
0.0285116
0.0285116
0.0285116
0.0285116
0.0285116
0.0285116
0.0285116
0.0285116
0.0285116
0.0285116
0.0285116
0.0285116
0.0285116
0.0285116
0.0285116
0.0285116
0.0285116
0.0285116
0.0285116
0.0285116
0.0285116
0.0285116
0.0285116
0.0285116
0.0285116
0.0285116
0.0285116
0.0285116
0.0285116
0.0285116
0.0285116
0.0285116
0.0285116
0.0285116
0.0285116
0.0285116
0.0285116
0.0285116
0.0285116
0.0285116
0.0285116
0.0285116
0.0285116
0.0285116
0.0285116
0.0285116
0.0285116
0.0285116
0.0285116
0.0285116
0.0285116
0.0285116
0.0285116
0.0285116
0.0285116
0.0285116
0.0285116
0.0285116
0.0285116
0.0285116
0.0285116
0.0285116
0.0285116
0.0285116
0.0285116
0.0285116
0.0285116
0.0285116
0.0285116
0.0285116
0.0285116
0.0285116
0.0285116
0.0285116
0.0285116
0.0285116
0.0285116
0.0285116
0.0285116
0.0285116
0.0285116
0.0285116
0.0285116
0.0285116
0.0285116
0.0285116
0.0285116
0.0285116
0.0285116
0.0285116
0.0285116
0.0285116
0.0285116
0.0285116
0.0285116
0.0285116
0.0285116
0.0285116
0.0285116
0.0285116
0.0285116
0.0285116
0.0285116
0.0285116
0.0285116
0.0285116
0.0285116
0.0285116
0.0285116
0.0285116
0.0285116
0.0285116
0.0285116
0.0285116
0.0285116
0.0285116
0.0285116
0.0285116
0.0285116
0.0285116
0.0285116
0.0285116
0.0285116
0.0285116
0.0285116
0.0285116
0.0285116
0.0285116
0.0285116
0.0285116
0.0285116
0.0285116
0.0285116
0.0285116
0.0285116
0.0285116
0.0285116
0.0285116
0.0285116
0.0285116
0.0285116
0.0285116
0.0285116
0.0285116
0.0285116
0.0285116
0.0285116
0.0285116
0.0285116
0.0285116
0.0285116
0.0285116
0.0285116
0.0285116
0.0285116
0.0285116
0.0285116
0.0285116
0.0285116
0.0285116
0.0285116
0.0285116
0.0285116
0.0285116
0.0285116
0.0285116
0.0285116
0.0285116
0.0285116
0.0285116
0.0285116
0.0285116
0.0285116
0.0285116
0.0285116
0.0285116
0.0285116
0.0285116
0.0285116
0.0285116
0.0285116
0.0285116
0.0285116
0.0285116
0.0285116
0.0285116
0.0285116
0.0285116
0.0285116
0.0285116
0.0285116
0.0285116
0.0285116
0.0285116
0.0285116
0.0285116
0.0285116
0.0285116
0.0285116
0.0285116
0.0285115
0.0285115
0.0285114
0.0285113
0.0285109
0.0285103
0.0285088
0.0285059
0.0284997
0.0284868
0.02846
0.0284043
0.0282891
0.0280538
0.027588
0.0267277
0.0253072
0.0232811
0.0208033
0.0179997
0.0149662
0.0119586
0.00934983
0.00737633
0.00592299
0.00505348
0.00451181
0.00417836
0.00397218
0.00384199
0.00375652
0.00369706
0.00365261
0.00361675
0.00358577
0.00355757
0.00353095
0.00350525
0.00348013
0.00345541
0.00343101
0.0034069
0.00338309
0.00335956
0.00333636
0.00331347
0.00329092
0.00326872
0.00324688
0.00322539
0.00320426
0.00318413
0.0031648
0.00314573
0.00312693
0.00310838
0.00309009
0.00307206
0.00305428
0.00303675
0.00301947
0.00300243
0.00298564
0.00296908
0.00295276
0.00293667
0.0029208
0.00290516
0.00288974
0.00287453
0.00285954
0.00284475
0.00283016
0.00281577
0.00280157
0.00278756
0.00277374
0.00276009
0.00274662
0.00273333
0.00272019
0.00270722
0.00269441
0.00268176
0.00266925
0.00265689
0.00264468
0.00263261
0.00262067
0.00260887
0.0025972
0.00258566
0.00257425
0.00256296
0.00255179
0.00254074
0.00252981
0.00251899
0.00250829
0.0024977
0.00248722
0.00247684
0.00246658
0.00245642
0.00244636
0.00243641
0.00242656
0.00241681
0.00240716
0.00239761
0.00238815
0.0023788
0.00236955
0.00236039
0.00235133
0.00234234
0.00233339
0.00232452
0.00231574
0.00230704
0.00229842
0.00228988
0.00228142
0.00227304
0.00226473
0.00225649
0.00224833
0.00224024
0.00223223
0.00222428
0.0022164
0.00220859
0.00220085
0.00219317
0.00218556
0.00217801
0.00217053
0.00216311
0.00215575
0.00214845
0.00214121
0.00213403
0.00212691
0.00211984
0.00211284
0.00210589
0.00209899
0.00209215
0.00208536
0.00207863
0.00207195
0.00206532
0.00205875
0.00205222
0.00204575
0.00203933
0.00203296
0.00202664
0.00202037
0.00201416
0.00200799
0.00200187
0.0019958
0.00198978
0.00198381
0.0019779
0.00197203
0.00196621
0.00196044
0.00195472
0.00194905
0.00194343
0.00193787
0.00193235
0.00192689
0.00192147
0.00191611
0.00191081
0.00190555
0.00190035
0.0018952
0.00189011
0.00188508
0.00188009
0.00187517
0.0018703
0.0018655
0.00186075
0.00185606
0.00185143
0.00184686
0.00184236
0.00183792
0.00183355
0.00182925
0.00182501
0.00182085
0.00181676
0.00181274
0.0018088
0.00180494
0.00180115
0.00179745
0.00179384
0.00179031
0.00178687
0.00178353
0.00178028
0.00177712
0.00177408
0.00177113
0.00176829
0.00176557
0.00176296
0.00176047
0.00175811
0.00175589
0.00175381
0.00175194
0.00174995
0.00174832
0.00174682
0.00174545
0.00174422
0.00174315
0.00174224
0.00174149
0.00174091
0.0017405
0.00174027
0.00174022
0.00174036
0.00174068
0.00174119
0.00174186
0.00174267
0.00174354
0.00174436
0.00174492
)
;

boundaryField
{
    boundary
    {
        type            empty;
    }
    inlet
    {
        type            fixedValue;
        value           uniform 0.0285116;
    }
    outlet
    {
        type            zeroGradient;
    }
}


// ************************************************************************* //
