/*--------------------------------*- C++ -*----------------------------------*\
  =========                 |
  \\      /  F ield         | OpenFOAM: The Open Source CFD Toolbox
   \\    /   O peration     | Website:  https://openfoam.org
    \\  /    A nd           | Version:  7
     \\/     M anipulation  |
\*---------------------------------------------------------------------------*/
FoamFile
{
    version     2.0;
    format      ascii;
    class       volScalarField;
    location    "0.00074";
    object      HO2;
}
// * * * * * * * * * * * * * * * * * * * * * * * * * * * * * * * * * * * * * //

dimensions      [0 0 0 0 0 0 0];

internalField   nonuniform List<scalar> 
500
(
5.58744e-38
1.27089e-37
1.98464e-37
2.69767e-37
3.40929e-37
4.11929e-37
4.82768e-37
5.53465e-37
6.2406e-37
6.94608e-37
7.65171e-37
8.35818e-37
9.06614e-37
9.77619e-37
1.04888e-36
1.12045e-36
1.19234e-36
1.26458e-36
1.33719e-36
1.41017e-36
1.48354e-36
1.55731e-36
1.63153e-36
1.70622e-36
1.78146e-36
1.85732e-36
1.93391e-36
2.01136e-36
2.08982e-36
2.16947e-36
2.25051e-36
2.33315e-36
2.41765e-36
2.50424e-36
2.59317e-36
2.68468e-36
2.77901e-36
2.87635e-36
2.97686e-36
3.08064e-36
3.18774e-36
3.29811e-36
3.41164e-36
3.5281e-36
3.64718e-36
3.76847e-36
3.89145e-36
4.01553e-36
4.14003e-36
4.26422e-36
4.38732e-36
4.50854e-36
4.62707e-36
4.74214e-36
4.85303e-36
4.95907e-36
5.05968e-36
5.1544e-36
5.24284e-36
5.32475e-36
5.39999e-36
5.46854e-36
5.53047e-36
5.58595e-36
5.63525e-36
5.67868e-36
5.71663e-36
5.74952e-36
5.77778e-36
5.80187e-36
5.82223e-36
5.83931e-36
5.85351e-36
5.86523e-36
5.87483e-36
5.88262e-36
5.8889e-36
5.89393e-36
5.89792e-36
5.90107e-36
5.90353e-36
5.90544e-36
5.90692e-36
5.90805e-36
5.90892e-36
5.90958e-36
5.91008e-36
5.91045e-36
5.91074e-36
5.91095e-36
5.91112e-36
5.91125e-36
5.91135e-36
5.91144e-36
5.91151e-36
5.91157e-36
5.91163e-36
5.91168e-36
5.91173e-36
5.91179e-36
5.91184e-36
5.91189e-36
5.91195e-36
5.91201e-36
5.91207e-36
5.91214e-36
5.91221e-36
5.91228e-36
5.91235e-36
5.91243e-36
5.91251e-36
5.9126e-36
5.91269e-36
5.91279e-36
5.91288e-36
5.91299e-36
5.9131e-36
5.91321e-36
5.91332e-36
5.91344e-36
5.91355e-36
5.91362e-36
5.91348e-36
5.91257e-36
5.90856e-36
5.90059e-36
5.90077e-36
5.90096e-36
5.90115e-36
5.90135e-36
5.90155e-36
5.90175e-36
5.90196e-36
5.90215e-36
5.90235e-36
5.90256e-36
5.90277e-36
5.90299e-36
5.90324e-36
5.90352e-36
5.90384e-36
5.90422e-36
5.90465e-36
5.90514e-36
5.90571e-36
5.90634e-36
5.90705e-36
5.90783e-36
5.90866e-36
5.90953e-36
5.91044e-36
5.91136e-36
5.91226e-36
5.91315e-36
5.91398e-36
5.91476e-36
5.91546e-36
5.91607e-36
5.9166e-36
5.91704e-36
5.9174e-36
5.91769e-36
5.91793e-36
5.91813e-36
5.9183e-36
5.91848e-36
5.91867e-36
5.91889e-36
5.91916e-36
5.91948e-36
5.91987e-36
5.92033e-36
5.92085e-36
5.92144e-36
5.92209e-36
5.92279e-36
5.92354e-36
5.92432e-36
5.92512e-36
5.92594e-36
5.92675e-36
5.92756e-36
5.92836e-36
5.92913e-36
5.92987e-36
5.93058e-36
5.93125e-36
5.93187e-36
5.93246e-36
5.933e-36
5.93351e-36
5.93396e-36
5.93438e-36
5.93476e-36
5.93509e-36
5.93539e-36
5.93565e-36
5.93588e-36
5.93607e-36
5.93622e-36
5.93634e-36
5.93642e-36
5.93647e-36
5.93649e-36
5.93646e-36
5.9364e-36
5.93631e-36
5.93617e-36
5.93599e-36
5.93578e-36
5.93553e-36
5.93526e-36
5.93505e-36
5.93516e-36
5.93646e-36
5.94187e-36
5.96128e-36
6.02758e-36
6.25001e-36
6.9894e-36
9.43182e-36
1.74588e-35
4.372e-35
1.29285e-34
4.07052e-34
1.30589e-33
4.20702e-33
1.35536e-32
4.36386e-32
1.40504e-31
4.5293e-31
1.46423e-30
4.75683e-30
1.55679e-29
5.14751e-29
1.72504e-28
5.87829e-28
2.04302e-27
7.25951e-27
2.64104e-26
9.83926e-26
3.74996e-25
1.45909e-24
5.78046e-24
2.3248e-23
9.46442e-23
3.88996e-22
1.61049e-21
6.70382e-21
2.80144e-20
1.17386e-19
4.95799e-19
2.08901e-18
8.78705e-18
3.69427e-17
1.55238e-16
6.51873e-16
2.73489e-15
1.14622e-14
4.79861e-14
2.00669e-13
8.38273e-13
3.49852e-12
1.45899e-11
6.08103e-11
2.53366e-10
1.05546e-09
4.3963e-09
1.83092e-08
7.61934e-08
3.1636e-07
1.30479e-06
5.29496e-06
2.07553e-05
7.51244e-05
0.000226374
0.000453984
0.000518507
0.000444679
0.00033225
0.000235501
0.000165168
0.000115611
8.1079e-05
5.79405e-05
4.01606e-05
3.03042e-05
2.39794e-05
1.98311e-05
1.70189e-05
1.50331e-05
1.3569e-05
1.24441e-05
1.15476e-05
1.08108e-05
1.01899e-05
9.65621e-06
9.19017e-06
8.77811e-06
8.41012e-06
8.07881e-06
7.77847e-06
7.50467e-06
7.25383e-06
7.02306e-06
6.80994e-06
6.61246e-06
6.42895e-06
6.25795e-06
6.09827e-06
5.94887e-06
5.80896e-06
5.68175e-06
5.5634e-06
5.45097e-06
5.34401e-06
5.24213e-06
5.14497e-06
5.0522e-06
4.96353e-06
4.8787e-06
4.79744e-06
4.71955e-06
4.64481e-06
4.57304e-06
4.50405e-06
4.4377e-06
4.37383e-06
4.31231e-06
4.25301e-06
4.19581e-06
4.14061e-06
4.0873e-06
4.03578e-06
3.98599e-06
3.93782e-06
3.89121e-06
3.84608e-06
3.80238e-06
3.76003e-06
3.71898e-06
3.67917e-06
3.64056e-06
3.60309e-06
3.56672e-06
3.5314e-06
3.4971e-06
3.46377e-06
3.43137e-06
3.39988e-06
3.36925e-06
3.33946e-06
3.31047e-06
3.28226e-06
3.25479e-06
3.22804e-06
3.20198e-06
3.17659e-06
3.15185e-06
3.12772e-06
3.10419e-06
3.08125e-06
3.05886e-06
3.03701e-06
3.01568e-06
2.99485e-06
2.97452e-06
2.95465e-06
2.93524e-06
2.91627e-06
2.89773e-06
2.8796e-06
2.86188e-06
2.84455e-06
2.82761e-06
2.81105e-06
2.79484e-06
2.77892e-06
2.76332e-06
2.74805e-06
2.7331e-06
2.71844e-06
2.70409e-06
2.69002e-06
2.67623e-06
2.66271e-06
2.64946e-06
2.63647e-06
2.62373e-06
2.61124e-06
2.59898e-06
2.58696e-06
2.57516e-06
2.56359e-06
2.55224e-06
2.54109e-06
2.53015e-06
2.51942e-06
2.50888e-06
2.49853e-06
2.48837e-06
2.4784e-06
2.4686e-06
2.45898e-06
2.44954e-06
2.44026e-06
2.43114e-06
2.42219e-06
2.4134e-06
2.40476e-06
2.39626e-06
2.38792e-06
2.37972e-06
2.37166e-06
2.36374e-06
2.35595e-06
2.3483e-06
2.34077e-06
2.33336e-06
2.32608e-06
2.31891e-06
2.31187e-06
2.30493e-06
2.2981e-06
2.29138e-06
2.28476e-06
2.27824e-06
2.27182e-06
2.2655e-06
2.25926e-06
2.25311e-06
2.24705e-06
2.24107e-06
2.23518e-06
2.22936e-06
2.22361e-06
2.21794e-06
2.21233e-06
2.20679e-06
2.20132e-06
2.19591e-06
2.19055e-06
2.18525e-06
2.18001e-06
2.17482e-06
2.16968e-06
2.16458e-06
2.15953e-06
2.15451e-06
2.14954e-06
2.1446e-06
2.13969e-06
2.13481e-06
2.12996e-06
2.12513e-06
2.12032e-06
2.11552e-06
2.11074e-06
2.10596e-06
2.10119e-06
2.09641e-06
2.09163e-06
2.08683e-06
2.08202e-06
2.07718e-06
2.0723e-06
2.0674e-06
2.06244e-06
2.05744e-06
2.05237e-06
2.04723e-06
2.04202e-06
2.03672e-06
2.03133e-06
2.02583e-06
2.02022e-06
2.0145e-06
2.00866e-06
2.00275e-06
1.99677e-06
1.98727e-06
1.98056e-06
1.97368e-06
1.96658e-06
1.95925e-06
1.95167e-06
1.94383e-06
1.93572e-06
1.92734e-06
1.91868e-06
1.90973e-06
1.9005e-06
1.891e-06
1.88123e-06
1.87126e-06
1.86115e-06
1.85106e-06
1.84133e-06
1.83262e-06
1.82644e-06
)
;

boundaryField
{
    boundary
    {
        type            empty;
    }
    inlet
    {
        type            fixedValue;
        value           uniform 0;
    }
    outlet
    {
        type            zeroGradient;
    }
}


// ************************************************************************* //
