/*--------------------------------*- C++ -*----------------------------------*\
  =========                 |
  \\      /  F ield         | OpenFOAM: The Open Source CFD Toolbox
   \\    /   O peration     | Website:  https://openfoam.org
    \\  /    A nd           | Version:  7
     \\/     M anipulation  |
\*---------------------------------------------------------------------------*/
FoamFile
{
    version     2.0;
    format      ascii;
    class       volScalarField;
    location    "0.00074";
    object      N2;
}
// * * * * * * * * * * * * * * * * * * * * * * * * * * * * * * * * * * * * * //

dimensions      [0 0 0 0 0 0 0];

internalField   nonuniform List<scalar> 
500
(
0.745219
0.745219
0.745219
0.745219
0.745219
0.745219
0.745219
0.745219
0.745219
0.745219
0.745219
0.745219
0.745219
0.745219
0.745219
0.745219
0.745219
0.745219
0.745219
0.745219
0.745219
0.745219
0.745219
0.745219
0.745219
0.745219
0.745219
0.745219
0.745219
0.745219
0.745219
0.745219
0.745219
0.745219
0.745219
0.745219
0.745219
0.745219
0.745219
0.745219
0.745219
0.745219
0.745219
0.745219
0.745219
0.745219
0.745219
0.745219
0.745219
0.745219
0.74522
0.74522
0.74522
0.74522
0.74522
0.74522
0.74522
0.74522
0.74522
0.74522
0.74522
0.74522
0.74522
0.74522
0.74522
0.74522
0.74522
0.74522
0.74522
0.74522
0.74522
0.74522
0.74522
0.74522
0.74522
0.74522
0.74522
0.74522
0.74522
0.74522
0.74522
0.74522
0.74522
0.74522
0.74522
0.74522
0.74522
0.74522
0.74522
0.74522
0.74522
0.74522
0.74522
0.74522
0.74522
0.74522
0.74522
0.74522
0.74522
0.74522
0.74522
0.74522
0.74522
0.74522
0.74522
0.74522
0.74522
0.74522
0.74522
0.74522
0.74522
0.74522
0.74522
0.74522
0.74522
0.74522
0.74522
0.74522
0.74522
0.74522
0.74522
0.74522
0.74522
0.74522
0.74522
0.74522
0.74522
0.74522
0.74522
0.74522
0.74522
0.74522
0.74522
0.74522
0.74522
0.74522
0.74522
0.74522
0.74522
0.74522
0.74522
0.74522
0.74522
0.74522
0.74522
0.74522
0.74522
0.74522
0.74522
0.74522
0.74522
0.74522
0.74522
0.74522
0.74522
0.74522
0.74522
0.74522
0.74522
0.74522
0.74522
0.74522
0.74522
0.74522
0.74522
0.74522
0.74522
0.74522
0.74522
0.74522
0.74522
0.74522
0.74522
0.74522
0.74522
0.74522
0.74522
0.74522
0.74522
0.74522
0.74522
0.74522
0.74522
0.74522
0.74522
0.74522
0.74522
0.74522
0.74522
0.74522
0.74522
0.74522
0.74522
0.74522
0.74522
0.74522
0.74522
0.74522
0.74522
0.74522
0.74522
0.74522
0.74522
0.74522
0.74522
0.74522
0.74522
0.74522
0.74522
0.74522
0.74522
0.74522
0.74522
0.74522
0.74522
0.74522
0.74522
0.74522
0.74522
0.74522
0.74522
0.74522
0.74522
0.74522
0.74522
0.74522
0.74522
0.74522
0.74522
0.74522
0.74522
0.74522
0.74522
0.74522
0.74522
0.74522
0.74522
0.74522
0.74522
0.74522
0.74522
0.74522
0.74522
0.74522
0.74522
0.74522
0.74522
0.74522
0.74522
0.74522
0.74522
0.74522
0.74522
0.74522
0.74522
0.74522
0.74522
0.74522
0.74522
0.74522
0.74522
0.74522
0.74522
0.74522
0.74522
0.74522
0.745221
0.745222
0.745224
0.745228
0.745237
0.745256
0.745292
0.745359
0.745467
0.745592
0.74561
0.745399
0.745023
0.74451
0.743958
0.743632
0.743684
0.743964
0.744141
0.744739
0.744959
0.745113
0.745211
0.745273
0.74531
0.745331
0.745343
0.745349
0.745352
0.745352
0.745351
0.745349
0.745347
0.745344
0.745341
0.745338
0.745334
0.745331
0.745328
0.745325
0.745321
0.745318
0.745315
0.745312
0.745309
0.745306
0.745303
0.7453
0.745297
0.745295
0.745292
0.74529
0.745287
0.745285
0.745282
0.74528
0.745278
0.745276
0.745274
0.745273
0.745271
0.74527
0.745268
0.745267
0.745266
0.745265
0.745264
0.745263
0.745263
0.745262
0.745261
0.745261
0.74526
0.74526
0.74526
0.745259
0.745259
0.745258
0.745258
0.745258
0.745257
0.745257
0.745256
0.745256
0.745256
0.745255
0.745255
0.745254
0.745254
0.745253
0.745253
0.745252
0.745252
0.745251
0.745251
0.74525
0.74525
0.745249
0.745249
0.745248
0.745248
0.745247
0.745247
0.745246
0.745246
0.745246
0.745245
0.745245
0.745244
0.745244
0.745244
0.745243
0.745243
0.745243
0.745243
0.745242
0.745242
0.745242
0.745242
0.745242
0.745241
0.745241
0.745241
0.745241
0.745241
0.745241
0.74524
0.74524
0.74524
0.74524
0.74524
0.74524
0.74524
0.745239
0.745239
0.745239
0.745239
0.745239
0.745239
0.745238
0.745238
0.745238
0.745238
0.745238
0.745237
0.745237
0.745237
0.745236
0.745236
0.745236
0.745235
0.745235
0.745235
0.745234
0.745234
0.745234
0.745233
0.745233
0.745232
0.745232
0.745231
0.745231
0.74523
0.74523
0.745229
0.745229
0.745228
0.745228
0.745227
0.745227
0.745226
0.745226
0.745225
0.745225
0.745224
0.745224
0.745223
0.745222
0.745222
0.745221
0.74522
0.74522
0.745219
0.745218
0.745218
0.745217
0.745216
0.745215
0.745214
0.745213
0.745212
0.745211
0.74521
0.745208
0.745207
0.745206
0.745204
0.745203
0.745201
0.745199
0.745198
0.745196
0.745194
0.745192
0.74519
0.745188
0.745186
0.745184
0.745181
0.745179
0.745177
0.745175
0.745173
0.745171
0.745169
0.745167
0.745165
0.745163
0.745162
0.74516
0.745159
0.745158
0.745158
0.745158
0.745158
0.745158
0.745159
0.74516
0.745162
0.745164
0.745167
0.745171
0.745175
0.745178
)
;

boundaryField
{
    boundary
    {
        type            empty;
    }
    inlet
    {
        type            fixedValue;
        value           uniform 0.74522;
    }
    outlet
    {
        type            zeroGradient;
    }
}


// ************************************************************************* //
