/*--------------------------------*- C++ -*----------------------------------*\
  =========                 |
  \\      /  F ield         | OpenFOAM: The Open Source CFD Toolbox
   \\    /   O peration     | Website:  https://openfoam.org
    \\  /    A nd           | Version:  7
     \\/     M anipulation  |
\*---------------------------------------------------------------------------*/
FoamFile
{
    version     2.0;
    format      ascii;
    class       volScalarField;
    location    "0.00074";
    object      O;
}
// * * * * * * * * * * * * * * * * * * * * * * * * * * * * * * * * * * * * * //

dimensions      [0 0 0 0 0 0 0];

internalField   nonuniform List<scalar> 
500
(
1.57522e-47
3.75518e-47
5.94304e-47
8.12658e-47
1.03026e-46
1.24704e-46
1.463e-46
1.67823e-46
1.89289e-46
2.10719e-46
2.32136e-46
2.53565e-46
2.7503e-46
2.96555e-46
3.18159e-46
3.39858e-46
3.61665e-46
3.8359e-46
4.05644e-46
4.27833e-46
4.50168e-46
4.72661e-46
4.95329e-46
5.18194e-46
5.41286e-46
5.64641e-46
5.88304e-46
6.12331e-46
6.36783e-46
6.61734e-46
6.87262e-46
7.13454e-46
7.40403e-46
7.68203e-46
7.9695e-46
8.26738e-46
8.57653e-46
8.89775e-46
9.23167e-46
9.57877e-46
9.9393e-46
1.03133e-45
1.07004e-45
1.11e-45
1.15113e-45
1.19329e-45
1.23633e-45
1.28006e-45
1.32425e-45
1.36867e-45
1.41304e-45
1.4571e-45
1.50057e-45
1.54315e-45
1.58458e-45
1.62461e-45
1.66299e-45
1.69953e-45
1.73404e-45
1.76639e-45
1.79648e-45
1.82425e-45
1.84968e-45
1.87277e-45
1.89359e-45
1.9122e-45
1.92871e-45
1.94323e-45
1.95592e-45
1.9669e-45
1.97635e-45
1.9844e-45
1.99121e-45
1.99693e-45
2.00169e-45
2.00564e-45
2.00887e-45
2.01151e-45
2.01364e-45
2.01535e-45
2.01671e-45
2.01779e-45
2.01864e-45
2.0193e-45
2.01982e-45
2.02022e-45
2.02052e-45
2.02076e-45
2.02094e-45
2.02108e-45
2.02118e-45
2.02126e-45
2.02133e-45
2.02138e-45
2.02142e-45
2.02146e-45
2.02149e-45
2.02151e-45
2.02154e-45
2.02157e-45
2.02159e-45
2.02162e-45
2.02164e-45
2.02167e-45
2.0217e-45
2.02172e-45
2.02175e-45
2.02179e-45
2.02182e-45
2.02185e-45
2.02189e-45
2.02193e-45
2.02197e-45
2.02201e-45
2.02205e-45
2.0221e-45
2.02215e-45
2.0222e-45
2.02224e-45
2.02229e-45
2.02232e-45
2.0223e-45
2.02214e-45
2.02155e-45
2.01974e-45
2.0171e-45
2.01718e-45
2.01726e-45
2.01735e-45
2.01745e-45
2.01754e-45
2.01765e-45
2.01775e-45
2.01787e-45
2.018e-45
2.01813e-45
2.01829e-45
2.01847e-45
2.01867e-45
2.0189e-45
2.01916e-45
2.01945e-45
2.01978e-45
2.02013e-45
2.02052e-45
2.02092e-45
2.02135e-45
2.02179e-45
2.02223e-45
2.02266e-45
2.02309e-45
2.0235e-45
2.02389e-45
2.02425e-45
2.02459e-45
2.02489e-45
2.02517e-45
2.02543e-45
2.02566e-45
2.02586e-45
2.02605e-45
2.02622e-45
2.02638e-45
2.02653e-45
2.02667e-45
2.02681e-45
2.02694e-45
2.02708e-45
2.02722e-45
2.02736e-45
2.02751e-45
2.02767e-45
2.02783e-45
2.028e-45
2.02817e-45
2.02836e-45
2.02855e-45
2.02874e-45
2.02895e-45
2.02915e-45
2.02936e-45
2.02957e-45
2.02978e-45
2.02999e-45
2.03019e-45
2.0304e-45
2.0306e-45
2.03079e-45
2.03097e-45
2.03115e-45
2.03132e-45
2.0315e-45
2.03171e-45
2.03211e-45
2.03326e-45
2.03723e-45
2.05185e-45
2.10625e-45
2.3082e-45
3.05385e-45
5.79033e-45
1.57708e-44
5.19443e-44
1.82238e-43
6.48633e-43
2.30782e-42
8.1741e-42
2.87885e-41
1.0079e-40
3.50762e-40
1.21345e-39
4.17313e-39
1.42681e-38
4.85032e-38
1.63949e-37
5.5109e-37
1.8423e-36
6.12593e-36
2.02634e-35
6.6687e-35
2.18386e-34
7.11753e-34
2.30904e-33
7.45775e-33
2.3985e-32
7.68267e-32
2.45139e-31
7.79349e-31
2.46922e-30
7.79814e-30
2.45537e-29
7.70957e-29
2.41447e-28
7.5437e-28
2.35182e-27
7.31755e-27
2.27276e-26
7.04766e-26
2.1823e-25
6.74891e-25
2.08482e-24
6.43397e-24
1.98391e-23
6.11288e-23
1.88234e-22
5.79311e-22
1.78205e-21
5.47951e-21
1.68419e-20
5.17452e-20
1.58918e-19
4.90226e-19
1.50869e-18
4.63114e-18
1.41989e-17
4.34973e-17
1.33151e-16
4.07286e-16
1.24488e-15
3.80223e-15
1.16051e-14
3.53993e-14
1.07928e-13
3.28954e-13
1.0025e-12
3.05542e-12
9.31495e-12
2.8411e-11
8.67035e-11
2.64768e-10
8.09181e-10
2.47725e-09
7.63003e-09
2.40769e-08
8.29612e-08
3.62179e-07
2.22995e-06
1.52451e-05
7.87617e-05
0.000319879
0.000979795
0.00212896
0.00349584
0.00471593
0.00559722
0.00614254
0.00638056
0.00644416
0.00639991
0.00629263
0.0061512
0.00599341
0.00582992
0.00566689
0.0055078
0.00535447
0.00520775
0.00506793
0.00493498
0.00480868
0.00468871
0.00457474
0.0044664
0.00436333
0.00426518
0.00417164
0.0040824
0.00399718
0.00391572
0.0038378
0.00376321
0.00369179
0.00362545
0.00356279
0.00350223
0.00344366
0.00338697
0.00333205
0.00327882
0.0032272
0.00317711
0.00312848
0.00308123
0.00303532
0.00299067
0.00294723
0.00290495
0.00286379
0.00282369
0.00278461
0.00274651
0.00270935
0.00267311
0.00263774
0.00260321
0.00256949
0.00253656
0.00250439
0.00247295
0.00244222
0.00241217
0.00238279
0.00235405
0.00232594
0.00229843
0.0022715
0.00224515
0.00221934
0.00219407
0.00216932
0.00214507
0.00212132
0.00209803
0.00207521
0.00205283
0.00203089
0.00200937
0.00198826
0.00196755
0.00194722
0.00192727
0.00190768
0.00188845
0.00186957
0.00185102
0.0018328
0.0018149
0.0017973
0.00178001
0.00176302
0.00174631
0.00172989
0.00171374
0.00169786
0.00168225
0.00166691
0.0016518
0.00163687
0.00162218
0.00160772
0.00159348
0.00157946
0.00156566
0.00155206
0.00153867
0.00152547
0.00151247
0.00149966
0.00148704
0.00147461
0.00146235
0.00145027
0.00143836
0.00142662
0.00141505
0.00140364
0.00139239
0.0013813
0.00137036
0.00135957
0.00134894
0.00133844
0.00132809
0.00131789
0.00130781
0.00129788
0.00128808
0.00127841
0.00126887
0.00125945
0.00125016
0.00124099
0.00123194
0.00122301
0.00121419
0.00120549
0.00119689
0.00118841
0.00118003
0.00117176
0.00116359
0.00115553
0.00114756
0.00113969
0.00113192
0.00112424
0.00111665
0.00110915
0.00110174
0.00109442
0.00108718
0.00108003
0.00107296
0.00106597
0.00105905
0.00105222
0.00104546
0.00103877
0.00103216
0.00102562
0.00101915
0.00101275
0.00100642
0.00100015
0.000993947
0.000987809
0.000981734
0.00097572
0.000969767
0.000963873
0.000958037
0.000952257
0.000946533
0.000940863
0.000935246
0.00092968
0.000924164
0.000918696
0.000913275
0.0009079
0.000902567
0.000897277
0.000892027
0.000886815
0.000881638
0.000876495
0.000871384
0.000866302
0.000861246
0.000856215
0.000851204
0.000846212
0.000841235
0.00083627
0.000831314
0.000826362
0.000821414
0.000816463
0.000811508
0.000806662
0.000799982
0.000794877
0.000789771
0.000784639
0.000779475
0.000774275
0.000769033
0.000763748
0.000758417
0.000753038
0.000747612
0.000742142
0.000736639
0.000731118
0.000725614
0.000720187
0.000714943
0.000710081
0.000705961
0.000703259
)
;

boundaryField
{
    boundary
    {
        type            empty;
    }
    inlet
    {
        type            fixedValue;
        value           uniform 0;
    }
    outlet
    {
        type            zeroGradient;
    }
}


// ************************************************************************* //
