/*--------------------------------*- C++ -*----------------------------------*\
  =========                 |
  \\      /  F ield         | OpenFOAM: The Open Source CFD Toolbox
   \\    /   O peration     | Website:  https://openfoam.org
    \\  /    A nd           | Version:  7
     \\/     M anipulation  |
\*---------------------------------------------------------------------------*/
FoamFile
{
    version     2.0;
    format      ascii;
    class       volScalarField;
    location    "0.00074";
    object      O2;
}
// * * * * * * * * * * * * * * * * * * * * * * * * * * * * * * * * * * * * * //

dimensions      [0 0 0 0 0 0 0];

internalField   nonuniform List<scalar> 
500
(
0.226269
0.226269
0.226269
0.226269
0.226269
0.226269
0.226269
0.226269
0.226269
0.226269
0.226269
0.226269
0.226269
0.226269
0.226269
0.226269
0.226269
0.226269
0.226269
0.226269
0.226269
0.226269
0.226269
0.226269
0.226269
0.226269
0.226269
0.226269
0.226269
0.226269
0.226269
0.226269
0.226269
0.226269
0.226269
0.226269
0.226269
0.226269
0.226269
0.226269
0.226269
0.226269
0.226269
0.226269
0.226269
0.226269
0.226269
0.226269
0.226269
0.226269
0.226269
0.226269
0.226269
0.226269
0.226269
0.226269
0.226269
0.226269
0.226269
0.226269
0.226269
0.226269
0.226269
0.226269
0.226269
0.226269
0.226269
0.226269
0.226269
0.226269
0.226269
0.226269
0.226269
0.226269
0.226269
0.226269
0.226269
0.226269
0.226269
0.226269
0.226269
0.226269
0.226269
0.226269
0.226269
0.226269
0.226269
0.226269
0.226269
0.226269
0.226269
0.226269
0.226269
0.226269
0.226269
0.226269
0.226269
0.226269
0.226269
0.226269
0.226269
0.226269
0.226269
0.226269
0.226269
0.226269
0.226269
0.226269
0.226269
0.226269
0.226269
0.226269
0.226269
0.226269
0.226269
0.226269
0.226269
0.226269
0.226269
0.226269
0.226269
0.226269
0.226269
0.226269
0.226269
0.226269
0.226269
0.226269
0.226269
0.226269
0.226269
0.226269
0.226269
0.226269
0.226269
0.226269
0.226269
0.226269
0.226269
0.226269
0.226269
0.226269
0.226269
0.226269
0.226269
0.226269
0.226269
0.226269
0.226269
0.226269
0.226269
0.226269
0.226269
0.226269
0.226269
0.226269
0.226269
0.226269
0.226269
0.226269
0.226269
0.226269
0.226269
0.226269
0.226269
0.226269
0.226269
0.226269
0.226269
0.226269
0.226269
0.226269
0.226269
0.226269
0.226269
0.226269
0.226269
0.226269
0.226269
0.226269
0.226269
0.226269
0.226269
0.226269
0.226269
0.226269
0.226269
0.226269
0.226269
0.226269
0.226269
0.226269
0.226269
0.226269
0.226269
0.226269
0.226269
0.226269
0.226269
0.226269
0.226269
0.226269
0.226269
0.226269
0.226269
0.226269
0.226269
0.226269
0.226269
0.226269
0.226269
0.226269
0.226269
0.226269
0.226269
0.226269
0.226269
0.226269
0.226269
0.226269
0.226269
0.226269
0.226269
0.226269
0.226269
0.226269
0.226269
0.226269
0.226269
0.226269
0.226269
0.226269
0.226269
0.226269
0.226269
0.226269
0.226269
0.226269
0.226269
0.226269
0.226269
0.226269
0.226269
0.226269
0.226269
0.226269
0.226269
0.226269
0.226269
0.226269
0.226269
0.226269
0.226269
0.226269
0.226269
0.226269
0.226269
0.226269
0.226269
0.226269
0.226269
0.226269
0.226269
0.226269
0.226269
0.226269
0.226269
0.22627
0.22627
0.226272
0.226274
0.226277
0.226276
0.226246
0.226075
0.225383
0.223179
0.217636
0.207424
0.193699
0.176348
0.154258
0.128723
0.103949
0.083974
0.0658211
0.0550481
0.0477522
0.0428122
0.039407
0.0369859
0.0351949
0.0338119
0.0326981
0.0317669
0.0309638
0.030254
0.0296147
0.029031
0.0284923
0.0279913
0.0275227
0.0270822
0.0266667
0.0262735
0.0259005
0.0255458
0.0252079
0.0248856
0.0245775
0.024283
0.0240012
0.0237399
0.0234919
0.0232518
0.0230191
0.0227936
0.0225746
0.0223619
0.0221551
0.0219539
0.021758
0.021567
0.0213809
0.0211992
0.0210218
0.0208486
0.0206792
0.0205135
0.0203514
0.0201927
0.0200373
0.0198851
0.0197358
0.0195896
0.0194461
0.0193054
0.0191673
0.0190318
0.0188989
0.0187683
0.0186401
0.0185143
0.0183906
0.0182692
0.0181499
0.0180327
0.0179175
0.0178043
0.017693
0.0175836
0.017476
0.0173702
0.0172661
0.0171638
0.017063
0.0169639
0.0168663
0.0167702
0.0166756
0.0165824
0.0164906
0.0164002
0.0163111
0.0162232
0.0161366
0.0160512
0.0159669
0.0158838
0.0158019
0.015721
0.0156411
0.0155623
0.0154845
0.0154078
0.0153321
0.0152573
0.0151832
0.0151101
0.0150378
0.0149664
0.0148958
0.0148261
0.0147571
0.0146889
0.0146216
0.0145549
0.0144891
0.0144239
0.0143595
0.0142958
0.0142329
0.0141706
0.0141089
0.014048
0.0139877
0.0139281
0.0138691
0.0138107
0.013753
0.0136959
0.0136394
0.0135835
0.0135282
0.0134735
0.0134194
0.0133658
0.0133128
0.0132603
0.0132084
0.0131571
0.0131062
0.0130559
0.0130061
0.0129568
0.0129079
0.0128596
0.0128117
0.0127643
0.0127174
0.0126709
0.0126248
0.0125791
0.0125339
0.012489
0.0124446
0.0124005
0.0123568
0.0123134
0.0122704
0.0122277
0.0121853
0.0121432
0.0121014
0.0120599
0.0120187
0.0119778
0.011937
0.0118966
0.0118563
0.0118163
0.0117764
0.0117368
0.0116973
0.011658
0.0116188
0.0115798
0.0115409
0.0115021
0.0114635
0.0114249
0.0113863
0.0113479
0.0113094
0.011271
0.0112326
0.0111941
0.0111556
0.0111171
0.0110784
0.0110396
0.0110007
0.0109616
0.0109223
0.0108827
0.0108429
0.0108028
0.0107623
0.0107214
0.0106801
0.0106383
0.010596
0.0105531
0.0105096
0.0104654
0.0104205
0.010375
0.0103288
0.0102818
0.010235
0.0101613
0.0101092
0.0100564
0.0100023
0.00994685
0.00988994
0.00983153
0.00977158
0.00971006
0.00964692
0.00958216
0.00951579
0.00944788
0.00937856
0.00930811
0.00923709
0.00916659
0.00909886
0.00903861
0.0089963
)
;

boundaryField
{
    boundary
    {
        type            empty;
    }
    inlet
    {
        type            fixedValue;
        value           uniform 0.226269;
    }
    outlet
    {
        type            zeroGradient;
    }
}


// ************************************************************************* //
