/*--------------------------------*- C++ -*----------------------------------*\
  =========                 |
  \\      /  F ield         | OpenFOAM: The Open Source CFD Toolbox
   \\    /   O peration     | Website:  https://openfoam.org
    \\  /    A nd           | Version:  7
     \\/     M anipulation  |
\*---------------------------------------------------------------------------*/
FoamFile
{
    version     2.0;
    format      ascii;
    class       surfaceScalarField;
    location    "0.00074";
    object      phi;
}
// * * * * * * * * * * * * * * * * * * * * * * * * * * * * * * * * * * * * * //

dimensions      [1 0 -1 0 0 0 0];

internalField   nonuniform List<scalar> 
499
(
6.92966e-06
6.92961e-06
6.92957e-06
6.92956e-06
6.92956e-06
6.92957e-06
6.92961e-06
6.92966e-06
6.92972e-06
6.92978e-06
6.92984e-06
6.9299e-06
6.92995e-06
6.92998e-06
6.93e-06
6.92999e-06
6.92997e-06
6.92992e-06
6.92985e-06
6.92976e-06
6.92965e-06
6.92952e-06
6.92938e-06
6.92921e-06
6.92903e-06
6.92884e-06
6.92862e-06
6.92838e-06
6.92812e-06
6.92784e-06
6.92752e-06
6.92717e-06
6.92679e-06
6.92636e-06
6.92588e-06
6.92536e-06
6.92477e-06
6.92413e-06
6.92343e-06
6.92266e-06
6.92182e-06
6.92092e-06
6.91995e-06
6.91891e-06
6.91781e-06
6.91666e-06
6.91546e-06
6.91421e-06
6.91293e-06
6.91162e-06
6.9103e-06
6.90897e-06
6.90765e-06
6.90634e-06
6.90505e-06
6.9038e-06
6.90259e-06
6.90143e-06
6.90033e-06
6.89929e-06
6.89831e-06
6.8974e-06
6.89656e-06
6.89579e-06
6.89508e-06
6.89444e-06
6.89386e-06
6.89335e-06
6.89289e-06
6.89248e-06
6.89212e-06
6.8918e-06
6.89152e-06
6.89127e-06
6.89105e-06
6.89086e-06
6.89069e-06
6.89054e-06
6.89041e-06
6.89029e-06
6.89018e-06
6.89009e-06
6.88999e-06
6.88991e-06
6.88983e-06
6.88976e-06
6.88968e-06
6.88961e-06
6.88955e-06
6.88948e-06
6.88942e-06
6.88935e-06
6.88929e-06
6.88923e-06
6.88916e-06
6.8891e-06
6.88904e-06
6.88898e-06
6.88892e-06
6.88886e-06
6.8888e-06
6.88874e-06
6.88867e-06
6.88861e-06
6.88855e-06
6.88849e-06
6.88843e-06
6.88837e-06
6.88831e-06
6.88825e-06
6.88819e-06
6.88813e-06
6.88807e-06
6.88801e-06
6.88795e-06
6.88789e-06
6.88783e-06
6.88777e-06
6.88771e-06
6.88765e-06
6.88759e-06
6.88753e-06
6.88747e-06
6.88741e-06
6.88735e-06
6.88729e-06
6.88723e-06
6.88716e-06
6.8871e-06
6.88704e-06
6.88698e-06
6.88692e-06
6.88686e-06
6.8868e-06
6.88674e-06
6.88668e-06
6.88662e-06
6.88657e-06
6.88651e-06
6.88645e-06
6.8864e-06
6.88634e-06
6.88628e-06
6.88623e-06
6.88617e-06
6.88611e-06
6.88606e-06
6.886e-06
6.88594e-06
6.88588e-06
6.88582e-06
6.88577e-06
6.88571e-06
6.88565e-06
6.88559e-06
6.88553e-06
6.88548e-06
6.88542e-06
6.88536e-06
6.8853e-06
6.88525e-06
6.88519e-06
6.88513e-06
6.88508e-06
6.88502e-06
6.88496e-06
6.88491e-06
6.88485e-06
6.88479e-06
6.88474e-06
6.88468e-06
6.88462e-06
6.88457e-06
6.88451e-06
6.88446e-06
6.8844e-06
6.88434e-06
6.88429e-06
6.88423e-06
6.88418e-06
6.88412e-06
6.88407e-06
6.88401e-06
6.88396e-06
6.8839e-06
6.88385e-06
6.8838e-06
6.88374e-06
6.88369e-06
6.88364e-06
6.88358e-06
6.88353e-06
6.88348e-06
6.88343e-06
6.88338e-06
6.88333e-06
6.88328e-06
6.88323e-06
6.88318e-06
6.88313e-06
6.88308e-06
6.88303e-06
6.88299e-06
6.88294e-06
6.88289e-06
6.88285e-06
6.8828e-06
6.88276e-06
6.88271e-06
6.88267e-06
6.88263e-06
6.88259e-06
6.88255e-06
6.88251e-06
6.88247e-06
6.88243e-06
6.88239e-06
6.88235e-06
6.88232e-06
6.88228e-06
6.88225e-06
6.88221e-06
6.88218e-06
6.88215e-06
6.88212e-06
6.88209e-06
6.88206e-06
6.88204e-06
6.88201e-06
6.88199e-06
6.88196e-06
6.88194e-06
6.88192e-06
6.8819e-06
6.88188e-06
6.88186e-06
6.88185e-06
6.88183e-06
6.88182e-06
6.88181e-06
6.88179e-06
6.88178e-06
6.88178e-06
6.88177e-06
6.88176e-06
6.88176e-06
6.88176e-06
6.88176e-06
6.88176e-06
6.88176e-06
6.88176e-06
6.88176e-06
6.88177e-06
6.88177e-06
6.88178e-06
6.88178e-06
6.88179e-06
6.8818e-06
6.88182e-06
6.88183e-06
6.88185e-06
6.88187e-06
6.88189e-06
6.88191e-06
6.88193e-06
6.88195e-06
6.88198e-06
6.88201e-06
6.88205e-06
6.88214e-06
6.88235e-06
6.88295e-06
6.88472e-06
6.88988e-06
6.90414e-06
6.93837e-06
6.99706e-06
7.05944e-06
7.10531e-06
7.13511e-06
7.15512e-06
7.16932e-06
7.17953e-06
7.18684e-06
7.19205e-06
7.19585e-06
7.19872e-06
7.20097e-06
7.20279e-06
7.20429e-06
7.20557e-06
7.20667e-06
7.20763e-06
7.20848e-06
7.20924e-06
7.20993e-06
7.21056e-06
7.21113e-06
7.21166e-06
7.21215e-06
7.21261e-06
7.21304e-06
7.21344e-06
7.21382e-06
7.21417e-06
7.21451e-06
7.21483e-06
7.21513e-06
7.21542e-06
7.21569e-06
7.21595e-06
7.2162e-06
7.21642e-06
7.21663e-06
7.21684e-06
7.21704e-06
7.21723e-06
7.21741e-06
7.21759e-06
7.21776e-06
7.21793e-06
7.21809e-06
7.21825e-06
7.2184e-06
7.21855e-06
7.2187e-06
7.21884e-06
7.21898e-06
7.21912e-06
7.21926e-06
7.21939e-06
7.21952e-06
7.21965e-06
7.21977e-06
7.21989e-06
7.22001e-06
7.22013e-06
7.22024e-06
7.22035e-06
7.22046e-06
7.22056e-06
7.22067e-06
7.22077e-06
7.22086e-06
7.22096e-06
7.22105e-06
7.22114e-06
7.22123e-06
7.22131e-06
7.22139e-06
7.22147e-06
7.22155e-06
7.22163e-06
7.2217e-06
7.22177e-06
7.22184e-06
7.22191e-06
7.22197e-06
7.22204e-06
7.2221e-06
7.22216e-06
7.22222e-06
7.22228e-06
7.22234e-06
7.22239e-06
7.22245e-06
7.2225e-06
7.22255e-06
7.2226e-06
7.22265e-06
7.2227e-06
7.22274e-06
7.22279e-06
7.22283e-06
7.22288e-06
7.22292e-06
7.22295e-06
7.22299e-06
7.22303e-06
7.22307e-06
7.22311e-06
7.22314e-06
7.22318e-06
7.22321e-06
7.22325e-06
7.22328e-06
7.22331e-06
7.22334e-06
7.22337e-06
7.2234e-06
7.22343e-06
7.22346e-06
7.22349e-06
7.22351e-06
7.22354e-06
7.22356e-06
7.22359e-06
7.22361e-06
7.22363e-06
7.22366e-06
7.22368e-06
7.2237e-06
7.22371e-06
7.22373e-06
7.22375e-06
7.22376e-06
7.22378e-06
7.22379e-06
7.2238e-06
7.22381e-06
7.22382e-06
7.22382e-06
7.22383e-06
7.22383e-06
7.22384e-06
7.22384e-06
7.22384e-06
7.22384e-06
7.22383e-06
7.22383e-06
7.22382e-06
7.22382e-06
7.22381e-06
7.2238e-06
7.22379e-06
7.22377e-06
7.22376e-06
7.22375e-06
7.22373e-06
7.22371e-06
7.22369e-06
7.22367e-06
7.22365e-06
7.22363e-06
7.22361e-06
7.22359e-06
7.22356e-06
7.22353e-06
7.22351e-06
7.22348e-06
7.22345e-06
7.22342e-06
7.22338e-06
7.22335e-06
7.22331e-06
7.22327e-06
7.22323e-06
7.22319e-06
7.22315e-06
7.2231e-06
7.22305e-06
7.223e-06
7.22295e-06
7.22289e-06
7.22283e-06
7.22277e-06
7.22271e-06
7.22264e-06
7.22257e-06
7.2225e-06
7.22243e-06
7.22235e-06
7.22228e-06
7.2222e-06
7.22212e-06
7.22205e-06
7.22197e-06
7.22189e-06
7.22182e-06
7.22174e-06
7.22167e-06
7.22161e-06
7.22155e-06
7.22149e-06
7.22144e-06
7.2214e-06
7.22136e-06
7.22139e-06
7.22116e-06
7.22099e-06
7.22066e-06
7.2206e-06
7.22059e-06
7.22059e-06
7.2206e-06
7.22063e-06
7.22067e-06
7.22073e-06
7.2208e-06
7.22088e-06
7.22098e-06
7.22109e-06
7.22121e-06
7.22134e-06
7.22147e-06
7.22162e-06
7.22176e-06
7.22191e-06
7.22207e-06
)
;

boundaryField
{
    boundary
    {
        type            empty;
        value           nonuniform 0();
    }
    inlet
    {
        type            calculated;
        value           uniform -6.92973e-06;
    }
    outlet
    {
        type            calculated;
        value           uniform 7.22222e-06;
    }
}


// ************************************************************************* //
