/*--------------------------------*- C++ -*----------------------------------*\
  =========                 |
  \\      /  F ield         | OpenFOAM: The Open Source CFD Toolbox
   \\    /   O peration     | Website:  https://openfoam.org
    \\  /    A nd           | Version:  7
     \\/     M anipulation  |
\*---------------------------------------------------------------------------*/
FoamFile
{
    version     2.0;
    format      ascii;
    class       volScalarField;
    location    "0.00074";
    object      rho;
}
// * * * * * * * * * * * * * * * * * * * * * * * * * * * * * * * * * * * * * //

dimensions      [1 -3 0 0 0 0 0];

internalField   nonuniform List<scalar> 
500
(
0.864624
0.864627
0.864631
0.864639
0.864648
0.864659
0.864672
0.864687
0.864702
0.864718
0.864734
0.864748
0.864761
0.864772
0.86478
0.864786
0.864789
0.864789
0.864787
0.864783
0.864776
0.864766
0.864755
0.864741
0.864725
0.864707
0.864687
0.864663
0.864637
0.864607
0.864573
0.864534
0.86449
0.864441
0.864386
0.864324
0.864255
0.864178
0.864093
0.864
0.863898
0.863788
0.86367
0.863545
0.863412
0.863273
0.863127
0.862978
0.862824
0.862668
0.862511
0.862354
0.862198
0.862044
0.861895
0.86175
0.861611
0.861478
0.861353
0.861235
0.861126
0.861026
0.860933
0.86085
0.860774
0.860707
0.860647
0.860594
0.860548
0.860508
0.860474
0.860444
0.860419
0.860398
0.860381
0.860366
0.860354
0.860344
0.860336
0.86033
0.860325
0.860321
0.860318
0.860315
0.860313
0.860312
0.86031
0.860309
0.860309
0.860308
0.860308
0.860308
0.860307
0.860307
0.860307
0.860307
0.860307
0.860307
0.860306
0.860306
0.860306
0.860306
0.860306
0.860306
0.860306
0.860306
0.860306
0.860306
0.860306
0.860305
0.860305
0.860305
0.860305
0.860305
0.860305
0.860305
0.860304
0.860304
0.860304
0.860304
0.860304
0.860303
0.860303
0.860303
0.860302
0.860302
0.860301
0.860301
0.8603
0.8603
0.860299
0.860299
0.860298
0.860298
0.860298
0.860297
0.860297
0.860297
0.860297
0.860297
0.860297
0.860297
0.860296
0.860296
0.860296
0.860296
0.860295
0.860295
0.860294
0.860294
0.860293
0.860293
0.860292
0.860292
0.860291
0.860291
0.86029
0.86029
0.860289
0.860289
0.860288
0.860288
0.860287
0.860286
0.860286
0.860285
0.860285
0.860284
0.860284
0.860283
0.860282
0.860282
0.860281
0.860281
0.86028
0.860279
0.860279
0.860278
0.860277
0.860277
0.860276
0.860275
0.860275
0.860274
0.860274
0.860273
0.860273
0.860272
0.860271
0.860271
0.860271
0.86027
0.86027
0.860269
0.860269
0.860269
0.860268
0.860268
0.860268
0.860268
0.860268
0.860267
0.860267
0.860267
0.860268
0.860268
0.860268
0.860268
0.860268
0.860269
0.860269
0.86027
0.86027
0.860271
0.860272
0.860273
0.860274
0.860275
0.860276
0.860277
0.860278
0.86028
0.860281
0.860283
0.860285
0.860287
0.860289
0.860291
0.860293
0.860295
0.860298
0.8603
0.860303
0.860306
0.860309
0.860312
0.860316
0.860319
0.860323
0.860327
0.86033
0.860335
0.860339
0.860343
0.860348
0.860352
0.860357
0.860362
0.860368
0.860373
0.860379
0.860385
0.86039
0.860396
0.860402
0.860408
0.860414
0.86042
0.860427
0.860434
0.860441
0.860448
0.860456
0.860464
0.860472
0.860481
0.860489
0.860493
0.860482
0.860417
0.860182
0.859419
0.857082
0.850152
0.830469
0.779869
0.677967
0.542551
0.425129
0.345565
0.293603
0.257858
0.232422
0.214599
0.201436
0.191365
0.184165
0.178874
0.17465
0.1712
0.168319
0.165864
0.16374
0.161878
0.160228
0.158752
0.157422
0.156216
0.155114
0.154104
0.153173
0.152311
0.151511
0.150765
0.150068
0.149415
0.1488
0.148222
0.147676
0.14716
0.146672
0.14621
0.145784
0.145385
0.145001
0.144632
0.144278
0.143936
0.143607
0.14329
0.142984
0.142688
0.142402
0.142126
0.141858
0.141598
0.141347
0.141103
0.140866
0.140636
0.140412
0.140195
0.139984
0.139778
0.139578
0.139383
0.139193
0.139007
0.138827
0.13865
0.138478
0.13831
0.138146
0.137985
0.137828
0.137674
0.137524
0.137377
0.137233
0.137092
0.136954
0.136819
0.136687
0.136557
0.136429
0.136304
0.136182
0.136062
0.135943
0.135828
0.135714
0.135602
0.135492
0.135384
0.135278
0.135174
0.135072
0.134971
0.134872
0.134774
0.134678
0.134584
0.134491
0.1344
0.13431
0.134222
0.134136
0.13405
0.133965
0.133881
0.133799
0.133718
0.133638
0.13356
0.133482
0.133405
0.13333
0.133255
0.133182
0.13311
0.133038
0.132968
0.132898
0.132829
0.132762
0.132695
0.132629
0.132563
0.132499
0.132435
0.132373
0.13231
0.132249
0.132189
0.132129
0.13207
0.132011
0.131953
0.131896
0.13184
0.131784
0.131728
0.131674
0.13162
0.131566
0.131513
0.131461
0.131409
0.131358
0.131308
0.131257
0.131208
0.131159
0.13111
0.131062
0.131014
0.130967
0.130921
0.130874
0.130829
0.130783
0.130738
0.130694
0.13065
0.130606
0.130563
0.13052
0.130478
0.130436
0.130394
0.130353
0.130312
0.130272
0.130232
0.130192
0.130152
0.130113
0.130074
0.130036
0.129997
0.12996
0.129922
0.129885
0.129848
0.129811
0.129774
0.129738
0.129702
0.129667
0.129631
0.129596
0.129561
0.129527
0.129492
0.129458
0.129425
0.129391
0.129358
0.129325
0.129293
0.12926
0.129229
0.129197
0.129166
0.129135
0.129105
0.129075
0.129045
0.129016
0.128986
0.128948
0.128917
0.128889
0.128862
0.128834
0.128808
0.128782
0.128756
0.128731
0.128706
0.128681
0.128657
0.128634
0.12861
0.128587
0.128565
0.128543
0.128522
0.128505
0.128494
)
;

boundaryField
{
    boundary
    {
        type            empty;
    }
    inlet
    {
        type            calculated;
        value           uniform 0.864624;
    }
    outlet
    {
        type            calculated;
        value           uniform 0.128494;
    }
}


// ************************************************************************* //
