/*--------------------------------*- C++ -*----------------------------------*\
  =========                 |
  \\      /  F ield         | OpenFOAM: The Open Source CFD Toolbox
   \\    /   O peration     | Website:  https://openfoam.org
    \\  /    A nd           | Version:  7
     \\/     M anipulation  |
\*---------------------------------------------------------------------------*/
FoamFile
{
    version     2.0;
    format      ascii;
    class       volScalarField;
    location    "0.00074";
    object      T;
}
// * * * * * * * * * * * * * * * * * * * * * * * * * * * * * * * * * * * * * //

dimensions      [0 0 0 1 0 0 0];

internalField   nonuniform List<scalar> 
500
(
300
299.999
299.997
299.995
299.992
299.988
299.983
299.978
299.973
299.967
299.962
299.957
299.952
299.949
299.946
299.944
299.943
299.943
299.943
299.945
299.947
299.951
299.955
299.959
299.965
299.971
299.978
299.986
299.996
300.006
300.018
300.031
300.046
300.063
300.083
300.104
300.128
300.155
300.184
300.217
300.252
300.29
300.331
300.375
300.421
300.47
300.52
300.572
300.626
300.68
300.735
300.79
300.844
300.898
300.95
301.001
301.049
301.096
301.139
301.18
301.219
301.254
301.286
301.315
301.342
301.365
301.386
301.405
301.421
301.435
301.447
301.457
301.466
301.474
301.48
301.485
301.489
301.493
301.495
301.498
301.499
301.501
301.502
301.503
301.504
301.504
301.505
301.505
301.505
301.505
301.505
301.506
301.506
301.506
301.506
301.506
301.506
301.506
301.506
301.506
301.506
301.506
301.506
301.506
301.506
301.506
301.506
301.506
301.506
301.506
301.507
301.507
301.507
301.507
301.507
301.507
301.507
301.507
301.507
301.507
301.507
301.507
301.507
301.508
301.508
301.508
301.508
301.508
301.509
301.509
301.509
301.509
301.509
301.509
301.51
301.51
301.51
301.51
301.51
301.51
301.51
301.51
301.51
301.51
301.51
301.51
301.511
301.511
301.511
301.511
301.511
301.511
301.512
301.512
301.512
301.512
301.512
301.513
301.513
301.513
301.513
301.513
301.514
301.514
301.514
301.514
301.514
301.515
301.515
301.515
301.515
301.516
301.516
301.516
301.516
301.517
301.517
301.517
301.517
301.517
301.518
301.518
301.518
301.518
301.519
301.519
301.519
301.519
301.519
301.52
301.52
301.52
301.52
301.52
301.52
301.521
301.521
301.521
301.521
301.521
301.521
301.521
301.521
301.521
301.521
301.521
301.521
301.521
301.521
301.521
301.521
301.52
301.52
301.52
301.52
301.52
301.519
301.519
301.519
301.518
301.518
301.517
301.517
301.516
301.516
301.515
301.514
301.513
301.513
301.512
301.511
301.51
301.509
301.508
301.507
301.506
301.505
301.504
301.502
301.501
301.5
301.498
301.497
301.495
301.494
301.492
301.49
301.489
301.487
301.485
301.483
301.481
301.479
301.477
301.475
301.473
301.471
301.469
301.466
301.464
301.462
301.459
301.456
301.454
301.451
301.449
301.449
301.451
301.464
301.505
301.625
301.97
302.954
305.755
313.68
335.405
388.504
490.274
633.015
788.267
938.643
1079.71
1207.52
1315.51
1407.68
1485.6
1547.52
1596.73
1638.52
1674.47
1705.89
1733.71
1758.61
1781.11
1801.59
1820.35
1837.63
1853.63
1868.51
1882.39
1895.39
1907.6
1919.09
1929.94
1940.21
1949.94
1959.19
1967.99
1976.38
1984.38
1992.02
1999.32
2006.11
2012.5
2018.69
2024.67
2030.47
2036.08
2041.52
2046.8
2051.92
2056.9
2061.74
2066.44
2071.02
2075.47
2079.81
2084.04
2088.16
2092.18
2096.1
2099.93
2103.66
2107.32
2110.88
2114.37
2117.78
2121.12
2124.39
2127.59
2130.72
2133.79
2136.8
2139.75
2142.64
2145.48
2148.26
2150.99
2153.67
2156.3
2158.89
2161.43
2163.92
2166.38
2168.79
2171.16
2173.49
2175.78
2178.04
2180.26
2182.44
2184.59
2186.71
2188.8
2190.85
2192.87
2194.86
2196.83
2198.76
2200.67
2202.55
2204.4
2206.22
2208.02
2209.79
2211.53
2213.25
2214.95
2216.64
2218.3
2219.94
2221.56
2223.15
2224.73
2226.29
2227.83
2229.35
2230.85
2232.33
2233.79
2235.24
2236.67
2238.08
2239.48
2240.86
2242.22
2243.57
2244.9
2246.22
2247.53
2248.81
2250.09
2251.35
2252.6
2253.83
2255.05
2256.26
2257.46
2258.64
2259.81
2260.97
2262.12
2263.26
2264.38
2265.49
2266.6
2267.69
2268.77
2269.84
2270.9
2271.95
2272.99
2274.02
2275.04
2276.05
2277.06
2278.05
2279.03
2280.01
2280.97
2281.93
2282.87
2283.81
2284.74
2285.66
2286.57
2287.48
2288.37
2289.26
2290.14
2291.01
2291.88
2292.73
2293.58
2294.42
2295.26
2296.08
2296.9
2297.71
2298.52
2299.31
2300.1
2300.89
2301.66
2302.43
2303.19
2303.95
2304.7
2305.44
2306.17
2306.9
2307.62
2308.33
2309.03
2309.73
2310.41
2311.09
2311.77
2312.43
2313.08
2313.72
2314.36
2314.98
2315.6
2316.2
2316.79
2317.37
2317.93
2318.5
2319.05
2319.74
2320.31
2320.82
2321.32
2321.8
2322.27
2322.73
2323.17
2323.6
2324.01
2324.41
2324.8
2325.17
2325.53
2325.88
2326.21
2326.52
2326.82
2327.06
2327.21
)
;

boundaryField
{
    boundary
    {
        type            empty;
    }
    inlet
    {
        type            fixedValue;
        value           uniform 300;
    }
    outlet
    {
        type            zeroGradient;
    }
}


// ************************************************************************* //
