/*--------------------------------*- C++ -*----------------------------------*\
  =========                 |
  \\      /  F ield         | OpenFOAM: The Open Source CFD Toolbox
   \\    /   O peration     | Website:  https://openfoam.org
    \\  /    A nd           | Version:  7
     \\/     M anipulation  |
\*---------------------------------------------------------------------------*/
FoamFile
{
    version     2.0;
    format      ascii;
    class       volScalarField;
    location    "0.00033";
    object      HO2;
}
// * * * * * * * * * * * * * * * * * * * * * * * * * * * * * * * * * * * * * //

dimensions      [0 0 0 0 0 0 0];

internalField   nonuniform List<scalar> 
126
(
2.53267e-36
2.53408e-36
2.53413e-36
2.53371e-36
2.53301e-36
2.53208e-36
2.53095e-36
2.52969e-36
2.52838e-36
2.5271e-36
2.52596e-36
2.52503e-36
2.52437e-36
2.52399e-36
2.52389e-36
2.52406e-36
2.52447e-36
2.52507e-36
2.52584e-36
2.52672e-36
2.52769e-36
2.52871e-36
2.52975e-36
2.53077e-36
2.53175e-36
2.53267e-36
2.53352e-36
2.53428e-36
2.53496e-36
2.53556e-36
2.53607e-36
2.53651e-36
2.53689e-36
2.53721e-36
2.53747e-36
2.5377e-36
2.5379e-36
2.53807e-36
2.53822e-36
2.53835e-36
2.53846e-36
2.53856e-36
2.53864e-36
2.53872e-36
2.53878e-36
2.53884e-36
2.53888e-36
2.5389e-36
2.53892e-36
2.53892e-36
2.53891e-36
2.53889e-36
2.53884e-36
2.53879e-36
2.53871e-36
2.53862e-36
2.53852e-36
2.53839e-36
2.53824e-36
2.53807e-36
2.53788e-36
2.53767e-36
2.53743e-36
2.53717e-36
2.53689e-36
2.53658e-36
2.53624e-36
2.53588e-36
2.53548e-36
2.53506e-36
2.53461e-36
2.53412e-36
2.53361e-36
2.53306e-36
2.53248e-36
2.53186e-36
2.53121e-36
2.53052e-36
2.52979e-36
2.52903e-36
2.52823e-36
2.52739e-36
2.52651e-36
2.5256e-36
2.52464e-36
2.52363e-36
2.52259e-36
2.52151e-36
2.52038e-36
2.51921e-36
2.518e-36
2.51674e-36
2.51545e-36
2.5141e-36
2.51272e-36
2.5113e-36
2.50989e-36
2.50867e-36
2.5086e-36
2.5143e-36
2.54836e-36
2.71962e-36
3.54769e-36
7.49199e-36
2.60993e-35
1.13195e-34
5.18212e-34
2.39198e-33
1.10311e-32
5.08059e-32
2.34091e-31
1.08148e-30
5.02154e-30
2.34831e-29
1.10777e-28
5.27534e-28
2.53558e-27
1.22872e-26
5.99187e-26
2.93351e-25
1.43818e-24
7.04286e-24
3.43701e-23
1.66797e-22
8.03227e-22
3.82695e-21
)
;

boundaryField
{
    boundary
    {
        type            empty;
    }
    inlet
    {
        type            fixedValue;
        value           nonuniform 0();
    }
    outlet
    {
        type            zeroGradient;
    }
    procBoundary3to1
    {
        type            processor;
        value           uniform 1.81434e-20;
    }
    procBoundary3to2
    {
        type            processor;
        value           uniform 2.53258e-36;
    }
}


// ************************************************************************* //
