/*--------------------------------*- C++ -*----------------------------------*\
  =========                 |
  \\      /  F ield         | OpenFOAM: The Open Source CFD Toolbox
   \\    /   O peration     | Website:  https://openfoam.org
    \\  /    A nd           | Version:  7
     \\/     M anipulation  |
\*---------------------------------------------------------------------------*/
FoamFile
{
    version     2.0;
    format      ascii;
    class       volScalarField;
    location    "0.00033";
    object      O;
}
// * * * * * * * * * * * * * * * * * * * * * * * * * * * * * * * * * * * * * //

dimensions      [0 0 0 0 0 0 0];

internalField   nonuniform List<scalar> 
126
(
8.71664e-46
8.71727e-46
8.71786e-46
8.71839e-46
8.71886e-46
8.71924e-46
8.71954e-46
8.71973e-46
8.71981e-46
8.71979e-46
8.71966e-46
8.71944e-46
8.71915e-46
8.71885e-46
8.71856e-46
8.71835e-46
8.71827e-46
8.71837e-46
8.71869e-46
8.71926e-46
8.72009e-46
8.72118e-46
8.72249e-46
8.724e-46
8.72565e-46
8.7274e-46
8.72919e-46
8.73098e-46
8.73271e-46
8.73436e-46
8.7359e-46
8.73731e-46
8.7386e-46
8.73976e-46
8.7408e-46
8.74172e-46
8.74254e-46
8.74326e-46
8.74391e-46
8.74448e-46
8.74498e-46
8.74542e-46
8.7458e-46
8.74613e-46
8.74641e-46
8.74663e-46
8.7468e-46
8.74691e-46
8.74697e-46
8.74696e-46
8.7469e-46
8.74676e-46
8.74656e-46
8.74629e-46
8.74594e-46
8.74552e-46
8.74501e-46
8.74442e-46
8.74373e-46
8.74296e-46
8.74209e-46
8.74112e-46
8.74004e-46
8.73886e-46
8.73756e-46
8.73615e-46
8.73462e-46
8.73296e-46
8.73118e-46
8.72926e-46
8.72722e-46
8.72503e-46
8.7227e-46
8.72022e-46
8.71759e-46
8.71481e-46
8.71187e-46
8.70877e-46
8.70551e-46
8.7021e-46
8.69863e-46
8.6956e-46
8.69601e-46
8.71675e-46
8.85329e-46
9.63866e-46
1.40208e-45
3.81427e-45
1.6952e-44
8.77804e-44
4.65756e-43
2.46213e-42
1.2897e-41
6.68658e-41
3.43018e-40
1.74082e-39
8.7389e-39
4.33875e-38
2.13019e-37
1.03409e-36
4.96284e-36
2.35435e-35
1.10389e-34
5.11482e-34
2.34172e-33
1.0592e-32
4.73268e-32
2.08866e-31
9.10346e-31
3.9181e-30
1.66505e-29
6.98583e-29
2.89339e-28
1.18293e-27
4.77359e-27
1.90126e-26
7.47364e-26
2.89942e-25
1.11015e-24
4.19524e-24
1.56484e-23
5.76184e-23
2.09456e-22
7.51879e-22
2.66578e-21
9.33779e-21
)
;

boundaryField
{
    boundary
    {
        type            empty;
    }
    inlet
    {
        type            fixedValue;
        value           nonuniform 0();
    }
    outlet
    {
        type            zeroGradient;
    }
    procBoundary3to1
    {
        type            processor;
        value           uniform 3.23495e-20;
    }
    procBoundary3to2
    {
        type            processor;
        value           uniform 8.71735e-46;
    }
}


// ************************************************************************* //
