/*--------------------------------*- C++ -*----------------------------------*\
  =========                 |
  \\      /  F ield         | OpenFOAM: The Open Source CFD Toolbox
   \\    /   O peration     | Website:  https://openfoam.org
    \\  /    A nd           | Version:  7
     \\/     M anipulation  |
\*---------------------------------------------------------------------------*/
FoamFile
{
    version     2.0;
    format      ascii;
    class       volScalarField;
    location    "0.00033";
    object      OH;
}
// * * * * * * * * * * * * * * * * * * * * * * * * * * * * * * * * * * * * * //

dimensions      [0 0 0 0 0 0 0];

internalField   nonuniform List<scalar> 
126
(
6.63648e-47
6.63697e-47
6.63747e-47
6.63796e-47
6.63846e-47
6.63895e-47
6.63944e-47
6.63993e-47
6.64042e-47
6.6409e-47
6.64138e-47
6.64186e-47
6.64234e-47
6.64282e-47
6.64331e-47
6.64381e-47
6.64433e-47
6.64486e-47
6.64542e-47
6.646e-47
6.6466e-47
6.64722e-47
6.64786e-47
6.64851e-47
6.64917e-47
6.64984e-47
6.6505e-47
6.65115e-47
6.6518e-47
6.65243e-47
6.65304e-47
6.65363e-47
6.6542e-47
6.65475e-47
6.65527e-47
6.65577e-47
6.65625e-47
6.65669e-47
6.65712e-47
6.65751e-47
6.65788e-47
6.65822e-47
6.65853e-47
6.6588e-47
6.65905e-47
6.65925e-47
6.65942e-47
6.65956e-47
6.65965e-47
6.65969e-47
6.65969e-47
6.65965e-47
6.65955e-47
6.6594e-47
6.6592e-47
6.65893e-47
6.65861e-47
6.65822e-47
6.65777e-47
6.65725e-47
6.65666e-47
6.65599e-47
6.65525e-47
6.65443e-47
6.65352e-47
6.65253e-47
6.65145e-47
6.65028e-47
6.64902e-47
6.64766e-47
6.6462e-47
6.64463e-47
6.64296e-47
6.64119e-47
6.6393e-47
6.6373e-47
6.63519e-47
6.63295e-47
6.6306e-47
6.62812e-47
6.62552e-47
6.6228e-47
6.62002e-47
6.61745e-47
6.61672e-47
6.62692e-47
6.69832e-47
7.10662e-47
9.34833e-47
2.14646e-46
8.62221e-46
4.28719e-45
2.22134e-44
1.15055e-43
5.90793e-43
3.0024e-42
1.50945e-41
7.50601e-41
3.69129e-40
1.79503e-39
8.63055e-39
4.10228e-38
1.92746e-37
8.95092e-37
4.10801e-36
1.86311e-35
8.34931e-35
3.69694e-34
1.61732e-33
6.99035e-33
2.98511e-32
1.25951e-31
5.25136e-31
2.16393e-30
8.81522e-30
3.55143e-29
1.41573e-28
5.58814e-28
2.18613e-27
8.48672e-27
3.2745e-26
1.25822e-25
4.82659e-25
1.85377e-24
7.15219e-24
2.78176e-23
)
;

boundaryField
{
    boundary
    {
        type            empty;
    }
    inlet
    {
        type            fixedValue;
        value           nonuniform 0();
    }
    outlet
    {
        type            zeroGradient;
    }
    procBoundary3to1
    {
        type            processor;
        value           uniform 1.09509e-22;
    }
    procBoundary3to2
    {
        type            processor;
        value           uniform 6.63605e-47;
    }
}


// ************************************************************************* //
