/*--------------------------------*- C++ -*----------------------------------*\
  =========                 |
  \\      /  F ield         | OpenFOAM: The Open Source CFD Toolbox
   \\    /   O peration     | Website:  https://openfoam.org
    \\  /    A nd           | Version:  7
     \\/     M anipulation  |
\*---------------------------------------------------------------------------*/
FoamFile
{
    version     2.0;
    format      ascii;
    class       volScalarField;
    location    "0.00021";
    object      p;
}
// * * * * * * * * * * * * * * * * * * * * * * * * * * * * * * * * * * * * * //

dimensions      [1 -1 -2 0 0 0 0];

internalField   nonuniform List<scalar> 
125
(
103093
103093
103093
103093
103093
103093
103093
103093
103093
103093
103093
103093
103093
103093
103093
103093
103093
103093
103093
103093
103093
103093
103093
103093
103093
103093
103093
103093
103092
103091
103088
103086
103084
103081
103079
103078
103076
103075
103074
103073
103073
103072
103072
103071
103071
103071
103070
103070
103070
103070
103070
103069
103069
103069
103069
103069
103069
103068
103068
103068
103068
103068
103068
103068
103068
103068
103068
103067
103067
103067
103067
103067
103067
103067
103067
103067
103067
103067
103067
103067
103067
103067
103067
103066
103066
103066
103066
103066
103066
103066
103066
103066
103066
103066
103066
103066
103066
103066
103066
103066
103066
103066
103066
103066
103066
103066
103066
103066
103066
103066
103066
103066
103066
103066
103065
103065
103065
103065
103065
103065
103065
103065
103065
103065
103065
)
;

boundaryField
{
    boundary
    {
        type            empty;
    }
    inlet
    {
        type            zeroGradient;
    }
    outlet
    {
        type            waveTransmissive;
        gamma           1.4;
        value           nonuniform 0();
    }
    procBoundary1to0
    {
        type            processor;
        value           uniform 103065;
    }
    procBoundary1to3
    {
        type            processor;
        value           uniform 103093;
    }
}


// ************************************************************************* //
