/*--------------------------------*- C++ -*----------------------------------*\
  =========                 |
  \\      /  F ield         | OpenFOAM: The Open Source CFD Toolbox
   \\    /   O peration     | Website:  https://openfoam.org
    \\  /    A nd           | Version:  7
     \\/     M anipulation  |
\*---------------------------------------------------------------------------*/
FoamFile
{
    version     2.0;
    format      ascii;
    class       volScalarField;
    location    "0.00081";
    object      H2O2;
}
// * * * * * * * * * * * * * * * * * * * * * * * * * * * * * * * * * * * * * //

dimensions      [0 0 0 0 0 0 0];

internalField   nonuniform List<scalar> 
125
(
9.51292e-20
4.0407e-19
1.71114e-18
7.23611e-18
3.05695e-17
1.29034e-16
5.4427e-16
2.2945e-15
9.66957e-15
4.07435e-14
1.71686e-13
7.23633e-13
3.05131e-12
1.28735e-11
5.43484e-11
2.29604e-10
9.70683e-10
4.10638e-09
1.73806e-08
7.357e-08
3.1098e-07
1.30598e-06
5.35212e-06
2.01844e-05
5.96139e-05
0.000106381
0.00012473
9.40354e-05
4.73471e-05
1.92973e-05
8.18579e-06
4.89204e-06
4.44136e-06
4.88633e-06
5.6063e-06
6.13675e-06
6.50045e-06
6.70215e-06
6.77331e-06
6.74861e-06
6.65747e-06
6.52245e-06
6.35987e-06
6.18126e-06
5.99458e-06
5.80527e-06
5.617e-06
5.43221e-06
5.25248e-06
5.07878e-06
4.91167e-06
4.75142e-06
4.59812e-06
4.4517e-06
4.31201e-06
4.17885e-06
4.05197e-06
3.93112e-06
3.81602e-06
3.70646e-06
3.60223e-06
3.50614e-06
3.41574e-06
3.32896e-06
3.24563e-06
3.16557e-06
3.08862e-06
3.01464e-06
2.94346e-06
2.87497e-06
2.80904e-06
2.74554e-06
2.68435e-06
2.62537e-06
2.5685e-06
2.51363e-06
2.46067e-06
2.40954e-06
2.36015e-06
2.31243e-06
2.26629e-06
2.22167e-06
2.17851e-06
2.13672e-06
2.09627e-06
2.05709e-06
2.01912e-06
1.98232e-06
1.94663e-06
1.91202e-06
1.87842e-06
1.84582e-06
1.81415e-06
1.7834e-06
1.75351e-06
1.72446e-06
1.69621e-06
1.66874e-06
1.64201e-06
1.61599e-06
1.59066e-06
1.56599e-06
1.54196e-06
1.51854e-06
1.49572e-06
1.47347e-06
1.45176e-06
1.43059e-06
1.40993e-06
1.38977e-06
1.37009e-06
1.35086e-06
1.33209e-06
1.31375e-06
1.29583e-06
1.27831e-06
1.26118e-06
1.24444e-06
1.22807e-06
1.21206e-06
1.19639e-06
1.18107e-06
1.16609e-06
1.15144e-06
1.13712e-06
)
;

boundaryField
{
    boundary
    {
        type            empty;
    }
    inlet
    {
        type            fixedValue;
        value           nonuniform 0();
    }
    outlet
    {
        type            zeroGradient;
    }
    procBoundary1to0
    {
        type            processor;
        value           uniform 1.12309e-06;
    }
    procBoundary1to3
    {
        type            processor;
        value           uniform 2.22986e-20;
    }
}


// ************************************************************************* //
