/*--------------------------------*- C++ -*----------------------------------*\
  =========                 |
  \\      /  F ield         | OpenFOAM: The Open Source CFD Toolbox
   \\    /   O peration     | Website:  https://openfoam.org
    \\  /    A nd           | Version:  7
     \\/     M anipulation  |
\*---------------------------------------------------------------------------*/
FoamFile
{
    version     2.0;
    format      ascii;
    class       surfaceScalarField;
    location    "0.00081";
    object      phi;
}
// * * * * * * * * * * * * * * * * * * * * * * * * * * * * * * * * * * * * * //

dimensions      [1 0 -1 0 0 0 0];

internalField   nonuniform List<scalar> 
124
(
6.88291e-06
6.88289e-06
6.88287e-06
6.88285e-06
6.88284e-06
6.88282e-06
6.8828e-06
6.88279e-06
6.88278e-06
6.88276e-06
6.88275e-06
6.88274e-06
6.88273e-06
6.88273e-06
6.88272e-06
6.88272e-06
6.88272e-06
6.88274e-06
6.88282e-06
6.88309e-06
6.88392e-06
6.8864e-06
6.89359e-06
6.91297e-06
6.9559e-06
7.01975e-06
7.07897e-06
7.11971e-06
7.14612e-06
7.16415e-06
7.17702e-06
7.18623e-06
7.19281e-06
7.19752e-06
7.20097e-06
7.20359e-06
7.20565e-06
7.20732e-06
7.20871e-06
7.20988e-06
7.21089e-06
7.21177e-06
7.21255e-06
7.21324e-06
7.21386e-06
7.21442e-06
7.21493e-06
7.21539e-06
7.21582e-06
7.21622e-06
7.21659e-06
7.21693e-06
7.21725e-06
7.21755e-06
7.21783e-06
7.2181e-06
7.21835e-06
7.21859e-06
7.21882e-06
7.21904e-06
7.21924e-06
7.21943e-06
7.21961e-06
7.21979e-06
7.21996e-06
7.22012e-06
7.22028e-06
7.22044e-06
7.22059e-06
7.22073e-06
7.22087e-06
7.22101e-06
7.22114e-06
7.22127e-06
7.2214e-06
7.22152e-06
7.22163e-06
7.22175e-06
7.22186e-06
7.22196e-06
7.22206e-06
7.22216e-06
7.22226e-06
7.22235e-06
7.22244e-06
7.22252e-06
7.22261e-06
7.22269e-06
7.22276e-06
7.22284e-06
7.22291e-06
7.22298e-06
7.22304e-06
7.22311e-06
7.22317e-06
7.22323e-06
7.22329e-06
7.22335e-06
7.22341e-06
7.22347e-06
7.22353e-06
7.22358e-06
7.22364e-06
7.22369e-06
7.22375e-06
7.2238e-06
7.22386e-06
7.22392e-06
7.22397e-06
7.22403e-06
7.22408e-06
7.22414e-06
7.2242e-06
7.22425e-06
7.22431e-06
7.22437e-06
7.22442e-06
7.22448e-06
7.22454e-06
7.22459e-06
7.22465e-06
7.2247e-06
7.22476e-06
7.22481e-06
)
;

boundaryField
{
    boundary
    {
        type            empty;
        value           nonuniform 0();
    }
    inlet
    {
        type            calculated;
        value           nonuniform 0();
    }
    outlet
    {
        type            calculated;
        value           nonuniform 0();
    }
    procBoundary1to0
    {
        type            processor;
        value           uniform 7.22486e-06;
    }
    procBoundary1to3
    {
        type            processor;
        value           uniform -6.88293e-06;
    }
}


// ************************************************************************* //
