/*--------------------------------*- C++ -*----------------------------------*\
  =========                 |
  \\      /  F ield         | OpenFOAM: The Open Source CFD Toolbox
   \\    /   O peration     | Website:  https://openfoam.org
    \\  /    A nd           | Version:  7
     \\/     M anipulation  |
\*---------------------------------------------------------------------------*/
FoamFile
{
    version     2.0;
    format      ascii;
    class       volVectorField;
    location    "0.00081";
    object      U;
}
// * * * * * * * * * * * * * * * * * * * * * * * * * * * * * * * * * * * * * //

dimensions      [0 1 -1 0 0 0 0];

internalField   nonuniform List<vector> 
125
(
(2.34452 0 0)
(2.3445 0 0)
(2.34448 0 0)
(2.34446 0 0)
(2.34443 0 0)
(2.34441 0 0)
(2.34439 0 0)
(2.34437 0 0)
(2.34435 0 0)
(2.34433 0 0)
(2.34431 0 0)
(2.34429 0 0)
(2.34427 0 0)
(2.34424 0 0)
(2.34422 0 0)
(2.3442 0 0)
(2.3442 0 0)
(2.34428 0 0)
(2.34462 0 0)
(2.34581 0 0)
(2.34961 0 0)
(2.36075 0 0)
(2.39066 0 0)
(2.46432 0 0)
(2.63627 0 0)
(3.00912 0 0)
(3.76018 0 0)
(4.86635 0 0)
(6.10521 0 0)
(7.28453 0 0)
(8.33379 0 0)
(9.23794 0 0)
(9.99419 0 0)
(10.6214 0 0)
(11.1424 0 0)
(11.5634 0 0)
(11.8971 0 0)
(12.1706 0 0)
(12.4049 0 0)
(12.6099 0 0)
(12.7913 0 0)
(12.9531 0 0)
(13.0987 0 0)
(13.2308 0 0)
(13.3516 0 0)
(13.4625 0 0)
(13.565 0 0)
(13.66 0 0)
(13.7484 0 0)
(13.8311 0 0)
(13.9085 0 0)
(13.9813 0 0)
(14.0498 0 0)
(14.1146 0 0)
(14.1759 0 0)
(14.234 0 0)
(14.2892 0 0)
(14.3417 0 0)
(14.3917 0 0)
(14.4393 0 0)
(14.4848 0 0)
(14.527 0 0)
(14.5666 0 0)
(14.605 0 0)
(14.6421 0 0)
(14.678 0 0)
(14.7127 0 0)
(14.7463 0 0)
(14.7788 0 0)
(14.8104 0 0)
(14.841 0 0)
(14.8708 0 0)
(14.8997 0 0)
(14.9278 0 0)
(14.9551 0 0)
(14.9817 0 0)
(15.0076 0 0)
(15.0328 0 0)
(15.0573 0 0)
(15.0813 0 0)
(15.1047 0 0)
(15.1275 0 0)
(15.1498 0 0)
(15.1715 0 0)
(15.1928 0 0)
(15.2135 0 0)
(15.2339 0 0)
(15.2537 0 0)
(15.2732 0 0)
(15.2922 0 0)
(15.3108 0 0)
(15.3291 0 0)
(15.347 0 0)
(15.3645 0 0)
(15.3816 0 0)
(15.3985 0 0)
(15.415 0 0)
(15.4312 0 0)
(15.4471 0 0)
(15.4627 0 0)
(15.478 0 0)
(15.4931 0 0)
(15.5078 0 0)
(15.5224 0 0)
(15.5366 0 0)
(15.5507 0 0)
(15.5644 0 0)
(15.578 0 0)
(15.5913 0 0)
(15.6044 0 0)
(15.6173 0 0)
(15.63 0 0)
(15.6425 0 0)
(15.6548 0 0)
(15.6669 0 0)
(15.6788 0 0)
(15.6906 0 0)
(15.7021 0 0)
(15.7135 0 0)
(15.7247 0 0)
(15.7358 0 0)
(15.7467 0 0)
(15.7574 0 0)
(15.7679 0 0)
(15.7783 0 0)
)
;

boundaryField
{
    boundary
    {
        type            empty;
    }
    inlet
    {
        type            fixedValue;
        value           nonuniform 0();
    }
    outlet
    {
        type            zeroGradient;
    }
    procBoundary1to0
    {
        type            processor;
        value           uniform (15.7885 0 0);
    }
    procBoundary1to3
    {
        type            processor;
        value           uniform (2.34454 0 0);
    }
}


// ************************************************************************* //
