/*--------------------------------*- C++ -*----------------------------------*\
  =========                 |
  \\      /  F ield         | OpenFOAM: The Open Source CFD Toolbox
   \\    /   O peration     | Website:  https://openfoam.org
    \\  /    A nd           | Version:  7
     \\/     M anipulation  |
\*---------------------------------------------------------------------------*/
FoamFile
{
    version     2.0;
    format      ascii;
    class       volScalarField;
    location    "9e-05";
    object      cellCpuTimes;
}
// * * * * * * * * * * * * * * * * * * * * * * * * * * * * * * * * * * * * * //

dimensions      [0 0 0 0 0 0 0];

internalField   nonuniform List<scalar> 
124
(
0.00017
0.000109
9.6e-05
9.7e-05
9.7e-05
9e-05
8.9e-05
9.1e-05
8.7e-05
8.8e-05
8.3e-05
8.3e-05
8.4e-05
8.1e-05
7.8e-05
7.8e-05
7.5e-05
7e-05
7e-05
6.6e-05
6.6e-05
6.3e-05
6.6e-05
6.3e-05
6.2e-05
6.4e-05
6.3e-05
6.4e-05
6.3e-05
6.3e-05
6.3e-05
6.3e-05
6.4e-05
6.2e-05
6.3e-05
6.3e-05
6.3e-05
6.3e-05
6.3e-05
6.3e-05
6.4e-05
6.2e-05
6.3e-05
6.3e-05
6.2e-05
6.3e-05
6.3e-05
6.3e-05
6.2e-05
6.3e-05
6.3e-05
6.3e-05
6.3e-05
6.3e-05
6.8e-05
6.3e-05
6.3e-05
6.3e-05
6.3e-05
6.3e-05
6.6e-05
6.6e-05
6.5e-05
6.5e-05
6.6e-05
6.6e-05
6.5e-05
6.5e-05
6.5e-05
6.5e-05
6.5e-05
6.5e-05
6.6e-05
6.6e-05
6.5e-05
6.6e-05
6.6e-05
6.6e-05
6.5e-05
6.6e-05
6.5e-05
6.6e-05
6.5e-05
6.3e-05
6.4e-05
6.6e-05
6.6e-05
6.6e-05
6.6e-05
6.6e-05
6.5e-05
6.7e-05
6.5e-05
6.6e-05
6.6e-05
6.5e-05
6.6e-05
6.5e-05
6.6e-05
6.6e-05
6.6e-05
6.6e-05
6.6e-05
6.6e-05
6.6e-05
6.6e-05
6.5e-05
6.5e-05
6.6e-05
6.5e-05
6.5e-05
6.5e-05
6.6e-05
6.8e-05
6.6e-05
6.5e-05
6.6e-05
6.5e-05
6.6e-05
7.3e-05
7.2e-05
7.3e-05
7.2e-05
7.2e-05
)
;

boundaryField
{
    boundary
    {
        type            empty;
    }
    inlet
    {
        type            calculated;
        value           nonuniform 0();
    }
    outlet
    {
        type            calculated;
        value           uniform 0;
    }
    procBoundary0to1
    {
        type            processor;
        value           uniform 0;
    }
}


// ************************************************************************* //
