/*--------------------------------*- C++ -*----------------------------------*\
  =========                 |
  \\      /  F ield         | OpenFOAM: The Open Source CFD Toolbox
   \\    /   O peration     | Website:  https://openfoam.org
    \\  /    A nd           | Version:  7
     \\/     M anipulation  |
\*---------------------------------------------------------------------------*/
FoamFile
{
    version     2.0;
    format      ascii;
    class       volScalarField;
    location    "9e-05";
    object      H;
}
// * * * * * * * * * * * * * * * * * * * * * * * * * * * * * * * * * * * * * //

dimensions      [0 0 0 0 0 0 0];

internalField   nonuniform List<scalar> 
124
(
7.72425e-05
7.68933e-05
7.65932e-05
7.63354e-05
7.61143e-05
7.59252e-05
7.57639e-05
7.56268e-05
7.55107e-05
7.54127e-05
7.53302e-05
7.5261e-05
7.52032e-05
7.51551e-05
7.51151e-05
7.5082e-05
7.50547e-05
7.50322e-05
7.50137e-05
7.49986e-05
7.49863e-05
7.49762e-05
7.4968e-05
7.49613e-05
7.4956e-05
7.49517e-05
7.49482e-05
7.49454e-05
7.49432e-05
7.49414e-05
7.494e-05
7.49389e-05
7.4938e-05
7.49373e-05
7.49367e-05
7.49363e-05
7.4936e-05
7.49357e-05
7.49355e-05
7.49353e-05
7.49352e-05
7.49351e-05
7.4935e-05
7.49349e-05
7.49348e-05
7.49348e-05
7.49347e-05
7.49347e-05
7.49346e-05
7.49346e-05
7.49345e-05
7.49345e-05
7.49344e-05
7.49344e-05
7.49343e-05
7.49343e-05
7.49342e-05
7.49342e-05
7.49341e-05
7.4934e-05
7.4934e-05
7.49339e-05
7.49338e-05
7.49338e-05
7.49337e-05
7.49336e-05
7.49336e-05
7.49335e-05
7.49334e-05
7.49333e-05
7.49333e-05
7.49332e-05
7.49331e-05
7.4933e-05
7.49329e-05
7.49329e-05
7.49328e-05
7.49327e-05
7.49326e-05
7.49325e-05
7.49324e-05
7.49323e-05
7.49323e-05
7.49322e-05
7.49321e-05
7.4932e-05
7.49319e-05
7.49318e-05
7.49317e-05
7.49316e-05
7.49315e-05
7.49314e-05
7.49313e-05
7.49312e-05
7.49311e-05
7.4931e-05
7.49309e-05
7.49308e-05
7.49307e-05
7.49306e-05
7.49305e-05
7.49304e-05
7.49303e-05
7.49302e-05
7.49301e-05
7.493e-05
7.49299e-05
7.49297e-05
7.49296e-05
7.49295e-05
7.49294e-05
7.49293e-05
7.49292e-05
7.49291e-05
7.49289e-05
7.49288e-05
7.49287e-05
7.49286e-05
7.49285e-05
7.49284e-05
7.49283e-05
7.49282e-05
7.49282e-05
7.49281e-05
)
;

boundaryField
{
    boundary
    {
        type            empty;
    }
    inlet
    {
        type            fixedValue;
        value           nonuniform 0();
    }
    outlet
    {
        type            zeroGradient;
    }
    procBoundary0to1
    {
        type            processor;
        value           uniform 7.76503e-05;
    }
}


// ************************************************************************* //
