/*--------------------------------*- C++ -*----------------------------------*\
  =========                 |
  \\      /  F ield         | OpenFOAM: The Open Source CFD Toolbox
   \\    /   O peration     | Website:  https://openfoam.org
    \\  /    A nd           | Version:  7
     \\/     M anipulation  |
\*---------------------------------------------------------------------------*/
FoamFile
{
    version     2.0;
    format      ascii;
    class       volScalarField;
    location    "9e-05";
    object      H2O2;
}
// * * * * * * * * * * * * * * * * * * * * * * * * * * * * * * * * * * * * * //

dimensions      [0 0 0 0 0 0 0];

internalField   nonuniform List<scalar> 
124
(
1.92192e-07
1.91854e-07
1.9151e-07
1.91194e-07
1.90914e-07
1.90672e-07
1.90463e-07
1.90285e-07
1.90134e-07
1.90006e-07
1.89898e-07
1.89807e-07
1.8973e-07
1.89666e-07
1.89612e-07
1.89567e-07
1.89529e-07
1.89498e-07
1.89471e-07
1.89449e-07
1.89431e-07
1.89415e-07
1.89402e-07
1.8939e-07
1.8938e-07
1.89372e-07
1.89364e-07
1.89357e-07
1.89351e-07
1.89345e-07
1.8934e-07
1.89335e-07
1.89331e-07
1.89326e-07
1.89322e-07
1.89318e-07
1.89314e-07
1.8931e-07
1.89306e-07
1.89303e-07
1.89299e-07
1.89295e-07
1.89292e-07
1.89288e-07
1.89284e-07
1.89281e-07
1.89277e-07
1.89274e-07
1.8927e-07
1.89267e-07
1.89263e-07
1.89259e-07
1.89256e-07
1.89252e-07
1.89249e-07
1.89245e-07
1.89242e-07
1.89238e-07
1.89235e-07
1.89231e-07
1.89228e-07
1.89225e-07
1.89221e-07
1.89218e-07
1.89214e-07
1.89211e-07
1.89208e-07
1.89204e-07
1.89201e-07
1.89198e-07
1.89194e-07
1.89191e-07
1.89188e-07
1.89185e-07
1.89182e-07
1.89179e-07
1.89175e-07
1.89172e-07
1.89169e-07
1.89166e-07
1.89163e-07
1.8916e-07
1.89157e-07
1.89155e-07
1.89152e-07
1.89149e-07
1.89146e-07
1.89143e-07
1.89141e-07
1.89138e-07
1.89136e-07
1.89133e-07
1.89131e-07
1.89128e-07
1.89126e-07
1.89123e-07
1.89121e-07
1.89119e-07
1.89117e-07
1.89114e-07
1.89112e-07
1.8911e-07
1.89108e-07
1.89106e-07
1.89104e-07
1.89102e-07
1.891e-07
1.89099e-07
1.89097e-07
1.89095e-07
1.89094e-07
1.89092e-07
1.8909e-07
1.89089e-07
1.89087e-07
1.89086e-07
1.89085e-07
1.89083e-07
1.89082e-07
1.89081e-07
1.8908e-07
1.89078e-07
1.89077e-07
1.89076e-07
)
;

boundaryField
{
    boundary
    {
        type            empty;
    }
    inlet
    {
        type            fixedValue;
        value           nonuniform 0();
    }
    outlet
    {
        type            zeroGradient;
    }
    procBoundary0to1
    {
        type            processor;
        value           uniform 1.92779e-07;
    }
}


// ************************************************************************* //
