/*--------------------------------*- C++ -*----------------------------------*\
  =========                 |
  \\      /  F ield         | OpenFOAM: The Open Source CFD Toolbox
   \\    /   O peration     | Website:  https://openfoam.org
    \\  /    A nd           | Version:  7
     \\/     M anipulation  |
\*---------------------------------------------------------------------------*/
FoamFile
{
    version     2.0;
    format      ascii;
    class       volScalarField;
    location    "9e-05";
    object      HO2;
}
// * * * * * * * * * * * * * * * * * * * * * * * * * * * * * * * * * * * * * //

dimensions      [0 0 0 0 0 0 0];

internalField   nonuniform List<scalar> 
124
(
1.73548e-06
1.73595e-06
1.73631e-06
1.7366e-06
1.73683e-06
1.73702e-06
1.73717e-06
1.73729e-06
1.73738e-06
1.73746e-06
1.73752e-06
1.73758e-06
1.73763e-06
1.73768e-06
1.73772e-06
1.73777e-06
1.73781e-06
1.73785e-06
1.7379e-06
1.73794e-06
1.73798e-06
1.73802e-06
1.73807e-06
1.73811e-06
1.73815e-06
1.73819e-06
1.73823e-06
1.73826e-06
1.7383e-06
1.73834e-06
1.73838e-06
1.73841e-06
1.73845e-06
1.73849e-06
1.73852e-06
1.73856e-06
1.73859e-06
1.73863e-06
1.73866e-06
1.7387e-06
1.73873e-06
1.73876e-06
1.7388e-06
1.73883e-06
1.73887e-06
1.7389e-06
1.73893e-06
1.73897e-06
1.739e-06
1.73903e-06
1.73906e-06
1.7391e-06
1.73913e-06
1.73916e-06
1.73919e-06
1.73923e-06
1.73926e-06
1.73929e-06
1.73932e-06
1.73935e-06
1.73938e-06
1.73941e-06
1.73944e-06
1.73947e-06
1.7395e-06
1.73953e-06
1.73956e-06
1.73959e-06
1.73962e-06
1.73965e-06
1.73968e-06
1.7397e-06
1.73973e-06
1.73976e-06
1.73978e-06
1.73981e-06
1.73983e-06
1.73986e-06
1.73988e-06
1.73991e-06
1.73993e-06
1.73995e-06
1.73998e-06
1.74e-06
1.74002e-06
1.74004e-06
1.74006e-06
1.74008e-06
1.7401e-06
1.74012e-06
1.74014e-06
1.74016e-06
1.74017e-06
1.74019e-06
1.7402e-06
1.74022e-06
1.74023e-06
1.74025e-06
1.74026e-06
1.74027e-06
1.74028e-06
1.7403e-06
1.74031e-06
1.74032e-06
1.74033e-06
1.74033e-06
1.74034e-06
1.74035e-06
1.74036e-06
1.74036e-06
1.74037e-06
1.74037e-06
1.74038e-06
1.74038e-06
1.74038e-06
1.74038e-06
1.74038e-06
1.74039e-06
1.74039e-06
1.74039e-06
1.74039e-06
1.74038e-06
1.74038e-06
1.74038e-06
)
;

boundaryField
{
    boundary
    {
        type            empty;
    }
    inlet
    {
        type            fixedValue;
        value           nonuniform 0();
    }
    outlet
    {
        type            zeroGradient;
    }
    procBoundary0to1
    {
        type            processor;
        value           uniform 1.73461e-06;
    }
}


// ************************************************************************* //
