/*--------------------------------*- C++ -*----------------------------------*\
  =========                 |
  \\      /  F ield         | OpenFOAM: The Open Source CFD Toolbox
   \\    /   O peration     | Website:  https://openfoam.org
    \\  /    A nd           | Version:  7
     \\/     M anipulation  |
\*---------------------------------------------------------------------------*/
FoamFile
{
    version     2.0;
    format      ascii;
    class       volScalarField;
    location    "9e-05";
    object      p;
}
// * * * * * * * * * * * * * * * * * * * * * * * * * * * * * * * * * * * * * //

dimensions      [1 -1 -2 0 0 0 0];

internalField   nonuniform List<scalar> 
124
(
102873
102872
102872
102872
102872
102872
102872
102872
102872
102872
102872
102871
102871
102871
102871
102871
102871
102871
102871
102871
102870
102870
102870
102870
102870
102870
102870
102870
102869
102869
102869
102869
102869
102869
102869
102869
102868
102868
102868
102868
102868
102868
102868
102867
102867
102867
102867
102867
102867
102866
102866
102866
102866
102866
102866
102865
102865
102865
102865
102865
102865
102864
102864
102864
102864
102864
102863
102863
102863
102863
102863
102862
102862
102862
102862
102862
102861
102861
102861
102861
102860
102860
102860
102860
102859
102859
102859
102859
102858
102858
102858
102858
102857
102857
102857
102857
102856
102856
102856
102855
102855
102855
102854
102854
102854
102854
102853
102853
102853
102852
102852
102852
102851
102851
102851
102850
102850
102849
102849
102849
102848
102848
102848
102847
)
;

boundaryField
{
    boundary
    {
        type            empty;
    }
    inlet
    {
        type            zeroGradient;
    }
    outlet
    {
        type            waveTransmissive;
        gamma           1.4;
        value           uniform 102847;
    }
    procBoundary0to1
    {
        type            processor;
        value           uniform 102873;
    }
}


// ************************************************************************* //
