/*--------------------------------*- C++ -*----------------------------------*\
  =========                 |
  \\      /  F ield         | OpenFOAM: The Open Source CFD Toolbox
   \\    /   O peration     | Website:  https://openfoam.org
    \\  /    A nd           | Version:  7
     \\/     M anipulation  |
\*---------------------------------------------------------------------------*/
FoamFile
{
    version     2.0;
    format      ascii;
    class       surfaceScalarField;
    location    "9e-05";
    object      phi;
}
// * * * * * * * * * * * * * * * * * * * * * * * * * * * * * * * * * * * * * //

dimensions      [1 0 -1 0 0 0 0];

internalField   nonuniform List<scalar> 
123
(
6.09603e-06
6.09612e-06
6.09613e-06
6.09609e-06
6.09599e-06
6.09585e-06
6.09567e-06
6.09545e-06
6.0952e-06
6.09492e-06
6.09461e-06
6.09427e-06
6.09391e-06
6.09353e-06
6.09313e-06
6.09272e-06
6.09229e-06
6.09185e-06
6.09141e-06
6.09095e-06
6.09048e-06
6.09e-06
6.08952e-06
6.08903e-06
6.08853e-06
6.08803e-06
6.08752e-06
6.08701e-06
6.08649e-06
6.08596e-06
6.08544e-06
6.0849e-06
6.08436e-06
6.08381e-06
6.08326e-06
6.08271e-06
6.08215e-06
6.08158e-06
6.08101e-06
6.08044e-06
6.07985e-06
6.07927e-06
6.07867e-06
6.07808e-06
6.07747e-06
6.07686e-06
6.07625e-06
6.07562e-06
6.075e-06
6.07436e-06
6.07372e-06
6.07308e-06
6.07242e-06
6.07176e-06
6.0711e-06
6.07043e-06
6.06975e-06
6.06906e-06
6.06837e-06
6.06766e-06
6.06696e-06
6.06624e-06
6.06552e-06
6.06479e-06
6.06405e-06
6.0633e-06
6.06254e-06
6.06178e-06
6.06101e-06
6.06023e-06
6.05944e-06
6.05864e-06
6.05784e-06
6.05702e-06
6.0562e-06
6.05537e-06
6.05453e-06
6.05368e-06
6.05281e-06
6.05194e-06
6.05106e-06
6.05017e-06
6.04927e-06
6.04837e-06
6.04745e-06
6.04652e-06
6.04558e-06
6.04462e-06
6.04366e-06
6.04269e-06
6.04171e-06
6.04072e-06
6.03971e-06
6.0387e-06
6.03767e-06
6.03663e-06
6.03559e-06
6.03453e-06
6.03346e-06
6.03237e-06
6.03128e-06
6.03017e-06
6.02906e-06
6.02793e-06
6.02679e-06
6.02564e-06
6.02447e-06
6.02329e-06
6.02211e-06
6.02091e-06
6.01969e-06
6.01847e-06
6.01723e-06
6.01598e-06
6.01472e-06
6.01345e-06
6.01216e-06
6.01086e-06
6.00955e-06
6.00823e-06
6.00689e-06
6.00554e-06
6.00418e-06
)
;

boundaryField
{
    boundary
    {
        type            empty;
        value           nonuniform 0();
    }
    inlet
    {
        type            calculated;
        value           nonuniform 0();
    }
    outlet
    {
        type            calculated;
        value           uniform 6.0028e-06;
    }
    procBoundary0to1
    {
        type            processor;
        value           uniform -6.09588e-06;
    }
}


// ************************************************************************* //
