/*--------------------------------*- C++ -*----------------------------------*\
  =========                 |
  \\      /  F ield         | OpenFOAM: The Open Source CFD Toolbox
   \\    /   O peration     | Website:  https://openfoam.org
    \\  /    A nd           | Version:  7
     \\/     M anipulation  |
\*---------------------------------------------------------------------------*/
FoamFile
{
    version     2.0;
    format      ascii;
    class       volScalarField;
    location    "9e-05";
    object      Qdot;
}
// * * * * * * * * * * * * * * * * * * * * * * * * * * * * * * * * * * * * * //

dimensions      [1 -1 -3 0 0 0 0];

internalField   nonuniform List<scalar> 
124
(
-868430
-809026
-777463
-761690
-753539
-748471
-745163
-742174
-739321
-735846
-733538
-730906
-728319
-726209
-723899
-721912
-720507
-719130
-718272
-717729
-717383
-717298
-717390
-717729
-718189
-718718
-719329
-720032
-720823
-721696
-722637
-723637
-724684
-725769
-726883
-728021
-729174
-730334
-731500
-732671
-733846
-735024
-736204
-737385
-738566
-739748
-740928
-742108
-743285
-744460
-745633
-746802
-747967
-749129
-750285
-751437
-752584
-753724
-754859
-755987
-757117
-758250
-759375
-760493
-761603
-762704
-763798
-764882
-765958
-767024
-768080
-769126
-770161
-771185
-772197
-773198
-774186
-775161
-776123
-777071
-778006
-778926
-779831
-780722
-781597
-782459
-783306
-784137
-784952
-785750
-786531
-787295
-788042
-788772
-789485
-790180
-790857
-791516
-792157
-792779
-793383
-793967
-794533
-795081
-795610
-796120
-796611
-797084
-797538
-797973
-798389
-798787
-799167
-799529
-799874
-800203
-800516
-800816
-801103
-801379
-801649
-801921
-802195
-802436
)
;

boundaryField
{
    boundary
    {
        type            empty;
    }
    inlet
    {
        type            calculated;
        value           nonuniform 0();
    }
    outlet
    {
        type            calculated;
        value           uniform 0;
    }
    procBoundary0to1
    {
        type            processor;
        value           uniform 0;
    }
}


// ************************************************************************* //
