/*--------------------------------*- C++ -*----------------------------------*\
  =========                 |
  \\      /  F ield         | OpenFOAM: The Open Source CFD Toolbox
   \\    /   O peration     | Website:  https://openfoam.org
    \\  /    A nd           | Version:  7
     \\/     M anipulation  |
\*---------------------------------------------------------------------------*/
FoamFile
{
    version     2.0;
    format      ascii;
    class       volScalarField;
    location    "9e-05";
    object      T;
}
// * * * * * * * * * * * * * * * * * * * * * * * * * * * * * * * * * * * * * //

dimensions      [0 0 0 1 0 0 0];

internalField   nonuniform List<scalar> 
124
(
2393.84
2393.86
2393.87
2393.89
2393.9
2393.91
2393.92
2393.93
2393.93
2393.94
2393.95
2393.96
2393.96
2393.97
2393.98
2393.99
2394
2394
2394.01
2394.02
2394.03
2394.04
2394.04
2394.05
2394.06
2394.07
2394.08
2394.09
2394.09
2394.1
2394.11
2394.12
2394.13
2394.13
2394.14
2394.15
2394.16
2394.16
2394.17
2394.18
2394.19
2394.2
2394.2
2394.21
2394.22
2394.23
2394.23
2394.24
2394.25
2394.26
2394.26
2394.27
2394.28
2394.29
2394.29
2394.3
2394.31
2394.32
2394.32
2394.33
2394.34
2394.34
2394.35
2394.36
2394.36
2394.37
2394.38
2394.38
2394.39
2394.4
2394.4
2394.41
2394.42
2394.42
2394.43
2394.44
2394.44
2394.45
2394.45
2394.46
2394.46
2394.47
2394.48
2394.48
2394.49
2394.49
2394.5
2394.5
2394.51
2394.51
2394.51
2394.52
2394.52
2394.53
2394.53
2394.53
2394.54
2394.54
2394.55
2394.55
2394.55
2394.55
2394.56
2394.56
2394.56
2394.57
2394.57
2394.57
2394.57
2394.57
2394.58
2394.58
2394.58
2394.58
2394.58
2394.58
2394.58
2394.58
2394.59
2394.59
2394.59
2394.59
2394.59
2394.59
)
;

boundaryField
{
    boundary
    {
        type            empty;
    }
    inlet
    {
        type            fixedValue;
        value           nonuniform 0();
    }
    outlet
    {
        type            zeroGradient;
    }
    procBoundary0to1
    {
        type            processor;
        value           uniform 2393.79;
    }
}


// ************************************************************************* //
