/*--------------------------------*- C++ -*----------------------------------*\
  =========                 |
  \\      /  F ield         | OpenFOAM: The Open Source CFD Toolbox
   \\    /   O peration     | Website:  https://openfoam.org
    \\  /    A nd           | Version:  7
     \\/     M anipulation  |
\*---------------------------------------------------------------------------*/
FoamFile
{
    version     2.0;
    format      ascii;
    class       volVectorField;
    location    "9e-05";
    object      U;
}
// * * * * * * * * * * * * * * * * * * * * * * * * * * * * * * * * * * * * * //

dimensions      [0 1 -1 0 0 0 0];

internalField   nonuniform List<vector> 
124
(
(14.2461 0 0)
(14.2457 0 0)
(14.2453 0 0)
(14.2448 0 0)
(14.2442 0 0)
(14.2436 0 0)
(14.2429 0 0)
(14.2422 0 0)
(14.2415 0 0)
(14.2407 0 0)
(14.2399 0 0)
(14.2391 0 0)
(14.2382 0 0)
(14.2373 0 0)
(14.2363 0 0)
(14.2354 0 0)
(14.2344 0 0)
(14.2334 0 0)
(14.2324 0 0)
(14.2314 0 0)
(14.2303 0 0)
(14.2293 0 0)
(14.2282 0 0)
(14.2271 0 0)
(14.226 0 0)
(14.2249 0 0)
(14.2238 0 0)
(14.2226 0 0)
(14.2215 0 0)
(14.2203 0 0)
(14.2192 0 0)
(14.218 0 0)
(14.2168 0 0)
(14.2156 0 0)
(14.2144 0 0)
(14.2132 0 0)
(14.2119 0 0)
(14.2107 0 0)
(14.2094 0 0)
(14.2081 0 0)
(14.2068 0 0)
(14.2055 0 0)
(14.2042 0 0)
(14.2029 0 0)
(14.2016 0 0)
(14.2002 0 0)
(14.1988 0 0)
(14.1975 0 0)
(14.1961 0 0)
(14.1947 0 0)
(14.1932 0 0)
(14.1918 0 0)
(14.1904 0 0)
(14.1889 0 0)
(14.1874 0 0)
(14.1859 0 0)
(14.1844 0 0)
(14.1829 0 0)
(14.1813 0 0)
(14.1798 0 0)
(14.1782 0 0)
(14.1766 0 0)
(14.175 0 0)
(14.1733 0 0)
(14.1717 0 0)
(14.17 0 0)
(14.1683 0 0)
(14.1666 0 0)
(14.1649 0 0)
(14.1632 0 0)
(14.1614 0 0)
(14.1596 0 0)
(14.1578 0 0)
(14.156 0 0)
(14.1541 0 0)
(14.1523 0 0)
(14.1504 0 0)
(14.1485 0 0)
(14.1465 0 0)
(14.1446 0 0)
(14.1426 0 0)
(14.1406 0 0)
(14.1386 0 0)
(14.1365 0 0)
(14.1344 0 0)
(14.1323 0 0)
(14.1302 0 0)
(14.1281 0 0)
(14.1259 0 0)
(14.1237 0 0)
(14.1215 0 0)
(14.1192 0 0)
(14.117 0 0)
(14.1147 0 0)
(14.1123 0 0)
(14.11 0 0)
(14.1076 0 0)
(14.1052 0 0)
(14.1028 0 0)
(14.1003 0 0)
(14.0978 0 0)
(14.0953 0 0)
(14.0928 0 0)
(14.0902 0 0)
(14.0876 0 0)
(14.085 0 0)
(14.0824 0 0)
(14.0797 0 0)
(14.077 0 0)
(14.0742 0 0)
(14.0715 0 0)
(14.0687 0 0)
(14.0659 0 0)
(14.063 0 0)
(14.0601 0 0)
(14.0572 0 0)
(14.0543 0 0)
(14.0513 0 0)
(14.0483 0 0)
(14.0453 0 0)
(14.0423 0 0)
(14.0391 0 0)
(14.0358 0 0)
(14.0315 0 0)
)
;

boundaryField
{
    boundary
    {
        type            empty;
    }
    inlet
    {
        type            fixedValue;
        value           nonuniform 0();
    }
    outlet
    {
        type            zeroGradient;
    }
    procBoundary0to1
    {
        type            processor;
        value           uniform (14.2461 0 0);
    }
}


// ************************************************************************* //
