/*--------------------------------*- C++ -*----------------------------------*\
  =========                 |
  \\      /  F ield         | OpenFOAM: The Open Source CFD Toolbox
   \\    /   O peration     | Website:  https://openfoam.org
    \\  /    A nd           | Version:  7
     \\/     M anipulation  |
\*---------------------------------------------------------------------------*/
FoamFile
{
    version     2.0;
    format      ascii;
    class       volScalarField;
    location    "0.00059";
    object      Qdot;
}
// * * * * * * * * * * * * * * * * * * * * * * * * * * * * * * * * * * * * * //

dimensions      [1 -1 -3 0 0 0 0];

internalField   nonuniform List<scalar> 
125
(
-2.44905e-27
-1.85557e-27
-1.72572e-27
-1.69654e-27
-1.68974e-27
-1.68838e-27
-1.68868e-27
-1.68974e-27
-1.69126e-27
-1.69311e-27
-1.69519e-27
-1.69747e-27
-1.69991e-27
-1.70252e-27
-1.70531e-27
-1.70834e-27
-1.71166e-27
-1.71534e-27
-1.71949e-27
-1.72421e-27
-1.72963e-27
-1.73588e-27
-1.74311e-27
-1.7515e-27
-1.76121e-27
-1.77241e-27
-1.78528e-27
-1.79998e-27
-1.81668e-27
-1.8355e-27
-1.85657e-27
-1.87995e-27
-1.90568e-27
-1.93376e-27
-1.96413e-27
-1.99668e-27
-2.03123e-27
-2.06756e-27
-2.10538e-27
-2.14437e-27
-2.18415e-27
-2.22431e-27
-2.26444e-27
-2.3041e-27
-2.34288e-27
-2.38039e-27
-2.41626e-27
-2.45019e-27
-2.48193e-27
-2.51129e-27
-2.53815e-27
-2.56246e-27
-2.58421e-27
-2.60348e-27
-2.62035e-27
-2.63497e-27
-2.64752e-27
-2.65817e-27
-2.66712e-27
-2.67457e-27
-2.68071e-27
-2.68572e-27
-2.68978e-27
-2.69302e-27
-2.6956e-27
-2.69763e-27
-2.69921e-27
-2.70043e-27
-2.70137e-27
-2.70208e-27
-2.70262e-27
-2.70302e-27
-2.70332e-27
-2.70355e-27
-2.70372e-27
-2.70384e-27
-2.70393e-27
-2.704e-27
-2.70405e-27
-2.7041e-27
-2.70413e-27
-2.70416e-27
-2.70419e-27
-2.70421e-27
-2.70423e-27
-2.70426e-27
-2.70428e-27
-2.7043e-27
-2.70433e-27
-2.70435e-27
-2.70438e-27
-2.70441e-27
-2.70444e-27
-2.70447e-27
-2.7045e-27
-2.70453e-27
-2.70457e-27
-2.70461e-27
-2.70465e-27
-2.70469e-27
-2.70473e-27
-2.70477e-27
-2.70482e-27
-2.70487e-27
-2.70492e-27
-2.70497e-27
-2.70503e-27
-2.70508e-27
-2.70514e-27
-2.7052e-27
-2.70527e-27
-2.70533e-27
-2.7054e-27
-2.70547e-27
-2.70555e-27
-2.70562e-27
-2.7057e-27
-2.70579e-27
-2.70587e-27
-2.70596e-27
-2.70605e-27
-2.70614e-27
-2.70625e-27
-2.70642e-27
-2.70679e-27
)
;

boundaryField
{
    boundary
    {
        type            empty;
    }
    inlet
    {
        type            calculated;
        value           uniform 0;
    }
    outlet
    {
        type            calculated;
        value           nonuniform 0();
    }
    procBoundary2to3
    {
        type            processor;
        value           uniform 0;
    }
}


// ************************************************************************* //
