/*--------------------------------*- C++ -*----------------------------------*\
  =========                 |
  \\      /  F ield         | OpenFOAM: The Open Source CFD Toolbox
   \\    /   O peration     | Website:  https://openfoam.org
    \\  /    A nd           | Version:  7
     \\/     M anipulation  |
\*---------------------------------------------------------------------------*/
FoamFile
{
    version     2.0;
    format      ascii;
    class       volScalarField;
    location    "0.00056";
    object      Qdot;
}
// * * * * * * * * * * * * * * * * * * * * * * * * * * * * * * * * * * * * * //

dimensions      [1 -1 -3 0 0 0 0];

internalField   nonuniform List<scalar> 
125
(
-2.45133e-27
-1.85993e-27
-1.73235e-27
-1.70535e-27
-1.7005e-27
-1.70078e-27
-1.70238e-27
-1.70443e-27
-1.70668e-27
-1.70905e-27
-1.71153e-27
-1.71412e-27
-1.71686e-27
-1.7198e-27
-1.72301e-27
-1.72657e-27
-1.73057e-27
-1.73513e-27
-1.74037e-27
-1.74646e-27
-1.75353e-27
-1.76178e-27
-1.77138e-27
-1.78253e-27
-1.79541e-27
-1.81021e-27
-1.82709e-27
-1.84622e-27
-1.86772e-27
-1.89168e-27
-1.91814e-27
-1.9471e-27
-1.97849e-27
-2.01219e-27
-2.04801e-27
-2.0857e-27
-2.12495e-27
-2.16538e-27
-2.20659e-27
-2.24813e-27
-2.28953e-27
-2.33034e-27
-2.37009e-27
-2.40837e-27
-2.4448e-27
-2.47907e-27
-2.51094e-27
-2.54021e-27
-2.5668e-27
-2.59067e-27
-2.61186e-27
-2.63045e-27
-2.64658e-27
-2.66042e-27
-2.67217e-27
-2.68204e-27
-2.69024e-27
-2.69699e-27
-2.70248e-27
-2.70691e-27
-2.71044e-27
-2.71323e-27
-2.71542e-27
-2.71711e-27
-2.71842e-27
-2.71941e-27
-2.72016e-27
-2.72072e-27
-2.72114e-27
-2.72145e-27
-2.72167e-27
-2.72184e-27
-2.72196e-27
-2.72205e-27
-2.72211e-27
-2.72216e-27
-2.7222e-27
-2.72223e-27
-2.72225e-27
-2.72227e-27
-2.72229e-27
-2.72231e-27
-2.72233e-27
-2.72235e-27
-2.72236e-27
-2.72238e-27
-2.7224e-27
-2.72243e-27
-2.72245e-27
-2.72247e-27
-2.7225e-27
-2.72252e-27
-2.72255e-27
-2.72258e-27
-2.72261e-27
-2.72265e-27
-2.72268e-27
-2.72272e-27
-2.72276e-27
-2.7228e-27
-2.72284e-27
-2.72288e-27
-2.72293e-27
-2.72298e-27
-2.72303e-27
-2.72308e-27
-2.72314e-27
-2.7232e-27
-2.72325e-27
-2.72332e-27
-2.72338e-27
-2.72345e-27
-2.72352e-27
-2.72359e-27
-2.72366e-27
-2.72374e-27
-2.72382e-27
-2.72391e-27
-2.72399e-27
-2.72408e-27
-2.72417e-27
-2.72426e-27
-2.72435e-27
-2.72447e-27
-2.7247e-27
)
;

boundaryField
{
    boundary
    {
        type            empty;
    }
    inlet
    {
        type            calculated;
        value           uniform 0;
    }
    outlet
    {
        type            calculated;
        value           nonuniform 0();
    }
    procBoundary2to3
    {
        type            processor;
        value           uniform 0;
    }
}


// ************************************************************************* //
