/*--------------------------------*- C++ -*----------------------------------*\
  =========                 |
  \\      /  F ield         | OpenFOAM: The Open Source CFD Toolbox
   \\    /   O peration     | Website:  https://openfoam.org
    \\  /    A nd           | Version:  7
     \\/     M anipulation  |
\*---------------------------------------------------------------------------*/
FoamFile
{
    version     2.0;
    format      ascii;
    class       volScalarField;
    location    "0.00085";
    object      H;
}
// * * * * * * * * * * * * * * * * * * * * * * * * * * * * * * * * * * * * * //

dimensions      [0 0 0 0 0 0 0];

internalField   nonuniform List<scalar> 
500
(
1.48611e-41
2.01346e-41
2.12759e-41
2.15258e-41
2.15826e-41
2.15967e-41
2.15998e-41
2.15985e-41
2.15938e-41
2.15856e-41
2.1574e-41
2.15588e-41
2.15403e-41
2.15188e-41
2.14951e-41
2.14696e-41
2.14433e-41
2.1417e-41
2.13915e-41
2.13678e-41
2.13466e-41
2.13287e-41
2.13146e-41
2.13049e-41
2.12999e-41
2.12999e-41
2.13052e-41
2.13158e-41
2.13319e-41
2.13537e-41
2.13812e-41
2.14148e-41
2.14547e-41
2.15014e-41
2.15553e-41
2.16173e-41
2.16879e-41
2.17682e-41
2.18592e-41
2.19619e-41
2.20775e-41
2.22071e-41
2.23521e-41
2.25136e-41
2.26927e-41
2.28905e-41
2.31078e-41
2.33454e-41
2.36039e-41
2.38835e-41
2.41842e-41
2.45058e-41
2.48476e-41
2.52087e-41
2.55877e-41
2.59829e-41
2.63924e-41
2.68138e-41
2.72445e-41
2.76817e-41
2.81223e-41
2.85631e-41
2.90009e-41
2.94327e-41
2.98552e-41
3.02656e-41
3.06612e-41
3.10397e-41
3.1399e-41
3.17376e-41
3.20542e-41
3.23479e-41
3.26184e-41
3.28656e-41
3.30899e-41
3.32918e-41
3.34723e-41
3.36324e-41
3.37735e-41
3.38968e-41
3.4004e-41
3.40964e-41
3.41755e-41
3.42429e-41
3.42998e-41
3.43476e-41
3.43874e-41
3.44204e-41
3.44476e-41
3.44699e-41
3.4488e-41
3.45027e-41
3.45145e-41
3.45239e-41
3.45314e-41
3.45374e-41
3.45421e-41
3.45458e-41
3.45488e-41
3.45511e-41
3.4553e-41
3.45544e-41
3.45556e-41
3.45566e-41
3.45574e-41
3.45581e-41
3.45587e-41
3.45593e-41
3.45598e-41
3.45603e-41
3.45607e-41
3.45612e-41
3.45617e-41
3.45622e-41
3.45627e-41
3.45632e-41
3.45637e-41
3.45643e-41
3.45649e-41
3.45655e-41
3.45661e-41
3.45667e-41
3.45674e-41
3.45679e-41
3.45682e-41
3.45684e-41
3.45694e-41
3.45704e-41
3.45715e-41
3.45728e-41
3.45742e-41
3.45757e-41
3.45774e-41
3.45792e-41
3.4581e-41
3.45829e-41
3.45848e-41
3.45866e-41
3.45884e-41
3.459e-41
3.45916e-41
3.4593e-41
3.45942e-41
3.45954e-41
3.45964e-41
3.45974e-41
3.45984e-41
3.45993e-41
3.46002e-41
3.46011e-41
3.46022e-41
3.46032e-41
3.46044e-41
3.46057e-41
3.46071e-41
3.46086e-41
3.46102e-41
3.46119e-41
3.46137e-41
3.46156e-41
3.46175e-41
3.46195e-41
3.46215e-41
3.46236e-41
3.46257e-41
3.46278e-41
3.46299e-41
3.46321e-41
3.46343e-41
3.46365e-41
3.46387e-41
3.4641e-41
3.46432e-41
3.46455e-41
3.46478e-41
3.46501e-41
3.46525e-41
3.46549e-41
3.46572e-41
3.46597e-41
3.46621e-41
3.46645e-41
3.4667e-41
3.46694e-41
3.46719e-41
3.46743e-41
3.46768e-41
3.46792e-41
3.46817e-41
3.46841e-41
3.46864e-41
3.46888e-41
3.4691e-41
3.46933e-41
3.46954e-41
3.46975e-41
3.46996e-41
3.47015e-41
3.47033e-41
3.47051e-41
3.47067e-41
3.47083e-41
3.47097e-41
3.47109e-41
3.47121e-41
3.47131e-41
3.47141e-41
3.47151e-41
3.47167e-41
3.47207e-41
3.47327e-41
3.47713e-41
3.48961e-41
3.52987e-41
3.65921e-41
4.07315e-41
5.39309e-41
9.588e-41
2.2878e-40
6.4858e-40
1.97097e-39
6.12573e-39
1.91479e-38
5.98712e-38
1.86958e-37
5.82805e-37
1.81363e-36
5.63457e-36
1.74792e-35
5.41492e-35
1.67546e-34
5.17849e-34
1.59903e-33
4.93347e-33
1.52104e-32
4.68675e-32
1.44347e-31
4.44434e-31
1.3682e-30
4.21247e-30
1.29749e-29
3.99985e-29
1.23492e-28
3.82203e-28
1.1874e-27
3.71014e-27
1.16907e-26
3.72857e-26
1.20932e-25
4.01148e-25
1.3694e-24
4.86415e-24
1.78928e-23
6.84003e-23
2.71625e-22
1.11613e-21
4.71935e-21
2.04151e-20
8.98858e-20
4.01217e-19
1.81084e-18
8.25387e-18
3.80003e-17
1.77003e-16
8.36832e-16
4.03519e-15
1.99683e-14
1.02067e-13
5.45973e-13
3.34271e-12
2.76456e-11
2.94354e-10
2.75326e-09
2.58353e-08
2.36511e-07
1.99885e-06
1.4006e-05
6.95567e-05
0.000215534
0.000456875
0.000775406
0.00113676
0.00147637
0.00172948
0.00187342
0.00192567
0.00191222
0.00186234
0.00179429
0.00171928
0.00164367
0.00157078
0.00150215
0.00143833
0.00137934
0.00132495
0.0012748
0.0012285
0.00118566
0.00114595
0.00110904
0.00107463
0.00104249
0.00101239
0.000984139
0.000957563
0.000932515
0.000908861
0.000886485
0.000865283
0.000845163
0.000826042
0.00080838
0.00079191
0.00077609
0.000760882
0.000746249
0.000732159
0.000718581
0.000705486
0.000692848
0.000680643
0.000668847
0.000657441
0.000646403
0.000635717
0.000625364
0.000615329
0.000605596
0.000596153
0.000586985
0.00057808
0.000569428
0.000561016
0.000552835
0.000544874
0.000537126
0.000529581
0.000522232
0.000515069
0.000508087
0.000501279
0.000494637
0.000488156
0.000481829
0.000475652
0.000469619
0.000463724
0.000457964
0.000452332
0.000446826
0.000441441
0.000436173
0.000431017
0.000425971
0.000421031
0.000416194
0.000411456
0.000406815
0.000402267
0.00039781
0.000393441
0.000389158
0.000384958
0.000380838
0.000376797
0.000372832
0.000368942
0.000365124
0.000361377
0.000357699
0.000354088
0.000350543
0.000347063
0.000343648
0.000340295
0.000336992
0.000333736
0.000330534
0.000327386
0.000324291
0.000321247
0.000318253
0.000315307
0.00031241
0.000309558
0.000306752
0.00030399
0.000301272
0.000298596
0.000295961
0.000293367
0.000290812
0.000288296
0.000285818
0.000283377
0.000280972
0.000278602
0.000276268
0.000273967
0.0002717
0.000269465
0.000267262
0.000265091
0.00026295
0.000260839
0.000258757
0.000256705
0.000254681
0.000252684
0.000250715
0.000248772
0.000246856
0.000244965
0.000243099
0.000241258
0.000239441
0.000237648
0.000235878
0.000234131
0.000232407
0.000230705
0.000229024
0.000227365
0.000225727
0.000224109
0.000222512
0.000220934
0.000219376
0.000217837
0.000216317
0.000214816
0.000213333
0.000211868
0.000210421
0.000208991
0.000207579
0.000206183
0.000204804
0.000203442
0.000202095
0.000200765
0.00019945
0.000198151
0.000196867
0.000195599
0.000194345
0.000193105
0.00019188
0.00019067
0.000189474
0.000188291
0.000187122
0.000185967
0.000184826
0.000183697
0.000182582
0.00018148
0.00018039
0.000179313
0.000178249
0.000177197
0.000176158
0.000175131
0.000174116
0.000173112
0.000172121
0.000171141
0.000170174
0.000169217
0.000168273
0.000167339
0.000166418
0.000165507
0.000164608
0.00016372
0.000162843
0.000161977
0.000161123
0.000160279
0.000159447
0.000158626
0.000157816
0.000157018
0.00015623
0.000155455
0.000154692
0.000153941
0.000153203
0.000152479
0.000151771
0.00015108
0.000150408
0.000149761
0.000149144
0.000148565
0.000148039
0.000147585
0.000147233
0.000147028
)
;

boundaryField
{
    boundary
    {
        type            empty;
    }
    inlet
    {
        type            fixedValue;
        value           uniform 0;
    }
    outlet
    {
        type            zeroGradient;
    }
}


// ************************************************************************* //
