/*--------------------------------*- C++ -*----------------------------------*\
  =========                 |
  \\      /  F ield         | OpenFOAM: The Open Source CFD Toolbox
   \\    /   O peration     | Website:  https://openfoam.org
    \\  /    A nd           | Version:  7
     \\/     M anipulation  |
\*---------------------------------------------------------------------------*/
FoamFile
{
    version     2.0;
    format      ascii;
    class       volScalarField;
    location    "0.00085";
    object      H2;
}
// * * * * * * * * * * * * * * * * * * * * * * * * * * * * * * * * * * * * * //

dimensions      [0 0 0 0 0 0 0];

internalField   nonuniform List<scalar> 
500
(
0.0285116
0.0285116
0.0285116
0.0285116
0.0285116
0.0285116
0.0285116
0.0285116
0.0285116
0.0285116
0.0285116
0.0285116
0.0285116
0.0285116
0.0285116
0.0285116
0.0285116
0.0285116
0.0285116
0.0285116
0.0285116
0.0285116
0.0285116
0.0285116
0.0285116
0.0285116
0.0285116
0.0285116
0.0285116
0.0285116
0.0285116
0.0285116
0.0285116
0.0285116
0.0285116
0.0285116
0.0285116
0.0285116
0.0285116
0.0285116
0.0285116
0.0285116
0.0285116
0.0285116
0.0285116
0.0285116
0.0285116
0.0285116
0.0285116
0.0285116
0.0285116
0.0285116
0.0285116
0.0285116
0.0285116
0.0285116
0.0285116
0.0285116
0.0285116
0.0285116
0.0285116
0.0285116
0.0285116
0.0285116
0.0285116
0.0285116
0.0285116
0.0285116
0.0285116
0.0285116
0.0285116
0.0285116
0.0285116
0.0285116
0.0285116
0.0285116
0.0285116
0.0285116
0.0285116
0.0285116
0.0285116
0.0285116
0.0285116
0.0285116
0.0285116
0.0285116
0.0285116
0.0285116
0.0285116
0.0285116
0.0285116
0.0285116
0.0285116
0.0285116
0.0285116
0.0285116
0.0285116
0.0285116
0.0285116
0.0285116
0.0285116
0.0285116
0.0285116
0.0285116
0.0285116
0.0285116
0.0285116
0.0285116
0.0285116
0.0285116
0.0285116
0.0285116
0.0285116
0.0285116
0.0285116
0.0285116
0.0285116
0.0285116
0.0285116
0.0285116
0.0285116
0.0285116
0.0285116
0.0285116
0.0285116
0.0285116
0.0285116
0.0285116
0.0285116
0.0285116
0.0285116
0.0285116
0.0285116
0.0285116
0.0285116
0.0285116
0.0285116
0.0285116
0.0285116
0.0285116
0.0285116
0.0285116
0.0285116
0.0285116
0.0285116
0.0285116
0.0285116
0.0285116
0.0285116
0.0285116
0.0285116
0.0285116
0.0285116
0.0285116
0.0285116
0.0285116
0.0285116
0.0285116
0.0285116
0.0285116
0.0285116
0.0285116
0.0285116
0.0285116
0.0285116
0.0285116
0.0285116
0.0285116
0.0285116
0.0285116
0.0285116
0.0285116
0.0285116
0.0285116
0.0285116
0.0285116
0.0285116
0.0285116
0.0285116
0.0285116
0.0285116
0.0285116
0.0285116
0.0285116
0.0285116
0.0285116
0.0285116
0.0285116
0.0285116
0.0285116
0.0285116
0.0285116
0.0285116
0.0285116
0.0285116
0.0285116
0.0285116
0.0285116
0.0285116
0.0285116
0.0285116
0.0285116
0.0285116
0.0285116
0.0285116
0.0285116
0.0285116
0.0285116
0.0285116
0.0285116
0.0285116
0.0285116
0.0285116
0.0285116
0.0285116
0.0285116
0.0285116
0.0285116
0.0285116
0.0285116
0.0285116
0.0285116
0.0285116
0.0285116
0.0285116
0.0285116
0.0285116
0.0285116
0.0285116
0.0285116
0.0285116
0.0285116
0.0285116
0.0285116
0.0285116
0.0285116
0.0285116
0.0285116
0.0285116
0.0285116
0.0285116
0.0285116
0.0285116
0.0285116
0.0285116
0.0285116
0.0285116
0.0285116
0.0285116
0.0285116
0.0285116
0.0285116
0.0285116
0.0285116
0.0285116
0.0285116
0.0285116
0.0285116
0.0285116
0.0285116
0.0285116
0.0285115
0.0285115
0.0285114
0.0285112
0.0285107
0.0285097
0.0285077
0.0285036
0.0284949
0.0284768
0.0284391
0.0283609
0.0281997
0.0278738
0.0272453
0.0261382
0.0244235
0.022159
0.0195157
0.0165812
0.0135114
0.0106437
0.00831647
0.00664775
0.00545679
0.00476094
0.00433077
0.00406586
0.00390071
0.00379468
0.00372324
0.00367184
0.00363199
0.00359872
0.0035692
0.00354183
0.0035157
0.00349034
0.00346548
0.00344099
0.00341684
0.00339299
0.00336946
0.00334625
0.00332338
0.00330085
0.00327868
0.00325687
0.00323542
0.00321434
0.00319363
0.0031739
0.00315496
0.00313628
0.00311787
0.00309971
0.0030818
0.00306414
0.00304673
0.00302955
0.00301261
0.0029959
0.00297942
0.00296316
0.00294712
0.0029313
0.00291569
0.00290028
0.00288508
0.00287008
0.00285527
0.00284065
0.00282622
0.00281197
0.00279789
0.002784
0.00277027
0.00275671
0.00274331
0.00273008
0.00271699
0.00270407
0.00269129
0.00267866
0.00266617
0.00265382
0.00264161
0.00262953
0.00261759
0.00260577
0.00259408
0.00258252
0.00257108
0.00255976
0.00254856
0.00253747
0.0025265
0.00251565
0.0025049
0.00249427
0.00248374
0.00247332
0.002463
0.00245279
0.00244269
0.00243269
0.00242278
0.00241298
0.00240328
0.00239368
0.00238418
0.00237477
0.00236545
0.00235623
0.0023471
0.00233806
0.00232909
0.00232021
0.00231142
0.00230271
0.00229408
0.00228554
0.00227708
0.0022687
0.00226039
0.00225217
0.00224402
0.00223595
0.00222795
0.00222002
0.00221217
0.00220439
0.00219668
0.00218903
0.00218145
0.00217394
0.0021665
0.00215911
0.00215179
0.00214454
0.00213734
0.0021302
0.00212313
0.00211611
0.00210915
0.00210224
0.00209539
0.0020886
0.00208186
0.00207518
0.00206854
0.00206196
0.00205544
0.00204896
0.00204253
0.00203615
0.00202982
0.00202354
0.00201731
0.00201113
0.00200499
0.0019989
0.00199285
0.00198686
0.0019809
0.00197499
0.00196912
0.0019633
0.00195752
0.00195179
0.00194609
0.00194044
0.00193483
0.00192926
0.00192373
0.00191824
0.00191279
0.00190738
0.00190201
0.00189668
0.00189139
0.00188613
0.00188092
0.00187574
0.0018706
0.0018655
0.00186044
0.00185542
0.00185043
0.00184548
0.00184057
0.0018357
0.00183086
0.00182607
0.00182131
0.00181659
0.00181191
0.00180726
0.00180266
0.0017981
0.00179358
0.0017891
0.00178466
0.00178026
0.0017759
0.00177159
0.00176732
0.0017631
0.00175892
0.00175478
0.0017507
0.00174666
0.00174268
0.00173874
0.00173485
0.00173102
0.00172725
0.00172352
0.00171986
0.00171626
0.00171272
0.00170924
0.00170583
0.00170249
0.00169922
0.00169604
0.00169293
0.00168992
0.00168701
0.0016842
0.00168153
0.00167899
0.00167663
0.00167446
0.00167252
0.00167086
0.00166953
0.00166858
0.00166806
)
;

boundaryField
{
    boundary
    {
        type            empty;
    }
    inlet
    {
        type            fixedValue;
        value           uniform 0.0285116;
    }
    outlet
    {
        type            zeroGradient;
    }
}


// ************************************************************************* //
