/*--------------------------------*- C++ -*----------------------------------*\
  =========                 |
  \\      /  F ield         | OpenFOAM: The Open Source CFD Toolbox
   \\    /   O peration     | Website:  https://openfoam.org
    \\  /    A nd           | Version:  7
     \\/     M anipulation  |
\*---------------------------------------------------------------------------*/
FoamFile
{
    version     2.0;
    format      ascii;
    class       volScalarField;
    location    "0.00085";
    object      H2O;
}
// * * * * * * * * * * * * * * * * * * * * * * * * * * * * * * * * * * * * * //

dimensions      [0 0 0 0 0 0 0];

internalField   nonuniform List<scalar> 
500
(
7.88364e-48
2.27819e-47
4.09868e-47
6.14222e-47
8.33578e-47
1.06298e-46
1.29904e-46
1.53944e-46
1.7826e-46
2.02742e-46
2.27316e-46
2.51933e-46
2.76564e-46
3.01194e-46
3.25821e-46
3.50451e-46
3.75099e-46
3.99786e-46
4.24535e-46
4.49373e-46
4.74325e-46
4.99417e-46
5.24674e-46
5.50118e-46
5.7577e-46
6.01647e-46
6.27768e-46
6.54153e-46
6.8082e-46
7.07796e-46
7.35109e-46
7.62796e-46
7.909e-46
8.19476e-46
8.48586e-46
8.78306e-46
9.08718e-46
9.39917e-46
9.72005e-46
1.00509e-45
1.0393e-45
1.07473e-45
1.11152e-45
1.14976e-45
1.18956e-45
1.23101e-45
1.27417e-45
1.31909e-45
1.36578e-45
1.41424e-45
1.4644e-45
1.51617e-45
1.56943e-45
1.624e-45
1.67966e-45
1.73618e-45
1.79328e-45
1.85063e-45
1.90792e-45
1.96481e-45
2.02093e-45
2.07596e-45
2.12955e-45
2.18138e-45
2.23118e-45
2.27868e-45
2.32368e-45
2.36599e-45
2.4055e-45
2.44211e-45
2.47579e-45
2.50656e-45
2.53445e-45
2.55954e-45
2.58196e-45
2.60184e-45
2.61934e-45
2.63463e-45
2.64789e-45
2.65931e-45
2.66908e-45
2.67737e-45
2.68436e-45
2.69021e-45
2.69507e-45
2.69908e-45
2.70237e-45
2.70505e-45
2.70722e-45
2.70896e-45
2.71035e-45
2.71146e-45
2.71233e-45
2.71302e-45
2.71356e-45
2.71397e-45
2.7143e-45
2.71455e-45
2.71475e-45
2.7149e-45
2.71502e-45
2.71511e-45
2.71519e-45
2.71525e-45
2.7153e-45
2.71535e-45
2.71539e-45
2.71543e-45
2.71547e-45
2.71551e-45
2.71555e-45
2.71559e-45
2.71562e-45
2.71567e-45
2.71571e-45
2.71575e-45
2.7158e-45
2.71585e-45
2.7159e-45
2.71595e-45
2.71599e-45
2.71601e-45
2.71593e-45
2.71547e-45
2.71365e-45
2.71027e-45
2.71034e-45
2.71042e-45
2.7105e-45
2.71058e-45
2.71068e-45
2.71077e-45
2.71088e-45
2.71099e-45
2.7111e-45
2.71121e-45
2.71133e-45
2.71146e-45
2.71158e-45
2.71171e-45
2.71184e-45
2.71197e-45
2.71211e-45
2.71226e-45
2.71242e-45
2.71259e-45
2.71278e-45
2.71299e-45
2.71323e-45
2.71349e-45
2.71378e-45
2.71411e-45
2.71446e-45
2.71485e-45
2.71527e-45
2.71571e-45
2.71617e-45
2.71665e-45
2.71714e-45
2.71763e-45
2.71812e-45
2.7186e-45
2.71907e-45
2.71951e-45
2.71993e-45
2.72032e-45
2.72069e-45
2.72102e-45
2.72132e-45
2.72159e-45
2.72184e-45
2.72206e-45
2.72226e-45
2.72245e-45
2.72263e-45
2.72281e-45
2.72298e-45
2.72316e-45
2.72334e-45
2.72353e-45
2.72374e-45
2.72395e-45
2.72418e-45
2.72443e-45
2.72469e-45
2.72496e-45
2.72523e-45
2.72552e-45
2.72582e-45
2.72612e-45
2.72642e-45
2.72672e-45
2.72702e-45
2.72732e-45
2.72765e-45
2.72809e-45
2.72892e-45
2.7312e-45
2.73854e-45
2.76356e-45
2.8499e-45
3.14779e-45
4.17208e-45
7.67998e-45
1.96452e-44
6.03058e-44
1.98022e-43
6.63166e-43
2.23088e-42
7.50763e-42
2.52623e-41
8.50478e-41
2.86791e-40
9.70037e-40
3.29624e-39
1.1272e-38
3.88584e-38
1.35268e-37
4.76162e-37
1.69685e-36
6.12537e-36
2.24014e-35
8.29661e-35
3.10915e-34
1.17759e-33
4.50157e-33
1.73433e-32
6.72506e-32
2.62122e-31
1.02581e-30
4.02699e-30
1.58453e-29
6.24543e-29
2.46463e-28
9.73427e-28
3.84676e-27
1.52066e-26
6.01233e-26
2.37723e-25
9.39884e-25
3.71546e-24
1.46844e-23
5.80187e-23
2.29151e-22
9.04661e-22
3.56967e-21
1.40773e-20
5.54795e-20
2.18495e-19
8.59863e-19
3.3813e-18
1.33595e-17
5.25899e-17
2.06463e-16
8.09681e-16
3.17338e-15
1.24326e-14
4.86973e-14
1.9073e-13
7.47081e-13
2.92694e-12
1.14712e-11
4.49773e-11
1.76439e-10
6.92516e-10
2.71955e-09
1.06854e-08
4.20034e-08
1.65172e-07
6.49636e-07
2.55469e-06
1.00372e-05
3.93216e-05
0.000152766
0.000579776
0.00206841
0.00641248
0.0157728
0.0300843
0.047929
0.0695023
0.0946236
0.120465
0.142973
0.159785
0.174169
0.182496
0.188093
0.191922
0.194632
0.196638
0.198198
0.199472
0.200557
0.201513
0.202375
0.203169
0.203909
0.204604
0.205262
0.205888
0.206485
0.207056
0.207604
0.208129
0.208635
0.209122
0.209591
0.210044
0.210482
0.210904
0.211312
0.211695
0.21206
0.212415
0.212762
0.213101
0.213432
0.213755
0.214071
0.21438
0.214682
0.214978
0.215267
0.215551
0.215829
0.216101
0.216368
0.21663
0.216887
0.217139
0.217386
0.217629
0.217868
0.218102
0.218332
0.218558
0.218781
0.218999
0.219214
0.219425
0.219633
0.219838
0.220039
0.220237
0.220432
0.220624
0.220812
0.220998
0.221182
0.221362
0.22154
0.221715
0.221888
0.222058
0.222226
0.222391
0.222555
0.222716
0.222874
0.223031
0.223185
0.223338
0.223489
0.223637
0.223784
0.223929
0.224072
0.224214
0.224354
0.224492
0.224628
0.224763
0.224896
0.225028
0.225158
0.225286
0.225414
0.225541
0.225666
0.22579
0.225913
0.226034
0.226155
0.226274
0.226392
0.226509
0.226624
0.226739
0.226852
0.226965
0.227076
0.227186
0.227295
0.227403
0.227511
0.227617
0.227722
0.227826
0.227929
0.228031
0.228133
0.228233
0.228332
0.228431
0.228528
0.228625
0.228721
0.228816
0.22891
0.229003
0.229096
0.229187
0.229278
0.229368
0.229457
0.229546
0.229633
0.22972
0.229806
0.229892
0.229976
0.23006
0.230143
0.230226
0.230308
0.230389
0.230469
0.230549
0.230628
0.230707
0.230785
0.230862
0.230938
0.231014
0.23109
0.231164
0.231239
0.231312
0.231385
0.231457
0.231529
0.2316
0.231671
0.231741
0.23181
0.231879
0.231948
0.232016
0.232083
0.23215
0.232216
0.232282
0.232347
0.232412
0.232477
0.23254
0.232604
0.232667
0.23273
0.232792
0.232853
0.232915
0.232976
0.233036
0.233097
0.233157
0.233216
0.233275
0.233334
0.233393
0.233451
0.23351
0.233567
0.233625
0.233683
0.23374
0.233797
0.233854
0.233911
0.233968
0.234025
0.234082
0.234138
0.234195
0.234252
0.234309
0.234366
0.234423
0.234481
0.234538
0.234596
0.234653
0.234711
0.234769
0.234825
0.23488
0.234932
0.234976
0.235006
)
;

boundaryField
{
    boundary
    {
        type            empty;
    }
    inlet
    {
        type            fixedValue;
        value           uniform 0;
    }
    outlet
    {
        type            zeroGradient;
    }
}


// ************************************************************************* //
