/*--------------------------------*- C++ -*----------------------------------*\
  =========                 |
  \\      /  F ield         | OpenFOAM: The Open Source CFD Toolbox
   \\    /   O peration     | Website:  https://openfoam.org
    \\  /    A nd           | Version:  7
     \\/     M anipulation  |
\*---------------------------------------------------------------------------*/
FoamFile
{
    version     2.0;
    format      ascii;
    class       volScalarField;
    location    "0.00085";
    object      H2O2;
}
// * * * * * * * * * * * * * * * * * * * * * * * * * * * * * * * * * * * * * //

dimensions      [0 0 0 0 0 0 0];

internalField   nonuniform List<scalar> 
500
(
1.99243e-52
6.40105e-52
1.27241e-51
2.09605e-51
3.11068e-51
4.31575e-51
5.71052e-51
7.29407e-51
9.06536e-51
1.10233e-50
1.3167e-50
1.54957e-50
1.80089e-50
2.07067e-50
2.35895e-50
2.66586e-50
2.99157e-50
3.33629e-50
3.70032e-50
4.08396e-50
4.48757e-50
4.9115e-50
5.35615e-50
5.82189e-50
6.30913e-50
6.81829e-50
7.34979e-50
7.90415e-50
8.48191e-50
9.08375e-50
9.71044e-50
1.03629e-49
1.10423e-49
1.17499e-49
1.24873e-49
1.32563e-49
1.40588e-49
1.48971e-49
1.57737e-49
1.66912e-49
1.76523e-49
1.86598e-49
1.97165e-49
2.08248e-49
2.19871e-49
2.32054e-49
2.44809e-49
2.58143e-49
2.72056e-49
2.86535e-49
3.0156e-49
3.17097e-49
3.33101e-49
3.49516e-49
3.66273e-49
3.83292e-49
4.00483e-49
4.17749e-49
4.34986e-49
4.52086e-49
4.6894e-49
4.85439e-49
5.01482e-49
5.16969e-49
5.31815e-49
5.45941e-49
5.59283e-49
5.71791e-49
5.83429e-49
5.94176e-49
6.04024e-49
6.12981e-49
6.21063e-49
6.28302e-49
6.34736e-49
6.40411e-49
6.45379e-49
6.49695e-49
6.53417e-49
6.56603e-49
6.59309e-49
6.61592e-49
6.63503e-49
6.65092e-49
6.66403e-49
6.67478e-49
6.68353e-49
6.6906e-49
6.69628e-49
6.70081e-49
6.70441e-49
6.70724e-49
6.70946e-49
6.71119e-49
6.71253e-49
6.71357e-49
6.71437e-49
6.71499e-49
6.71547e-49
6.71584e-49
6.71613e-49
6.71636e-49
6.71655e-49
6.7167e-49
6.71683e-49
6.71695e-49
6.71706e-49
6.71716e-49
6.71726e-49
6.71735e-49
6.71745e-49
6.71756e-49
6.71766e-49
6.71777e-49
6.71788e-49
6.718e-49
6.71812e-49
6.71825e-49
6.71839e-49
6.71852e-49
6.71863e-49
6.71865e-49
6.71828e-49
6.71636e-49
6.70835e-49
6.69247e-49
6.69266e-49
6.69287e-49
6.69309e-49
6.69332e-49
6.69357e-49
6.69383e-49
6.6941e-49
6.69439e-49
6.69469e-49
6.695e-49
6.69531e-49
6.69564e-49
6.69596e-49
6.6963e-49
6.69665e-49
6.697e-49
6.69737e-49
6.69777e-49
6.69819e-49
6.69865e-49
6.69917e-49
6.69975e-49
6.7004e-49
6.70113e-49
6.70196e-49
6.70289e-49
6.70392e-49
6.70505e-49
6.70628e-49
6.7076e-49
6.709e-49
6.71045e-49
6.71194e-49
6.71345e-49
6.71494e-49
6.7164e-49
6.7178e-49
6.71913e-49
6.72035e-49
6.72147e-49
6.72248e-49
6.72337e-49
6.72415e-49
6.72484e-49
6.72544e-49
6.72598e-49
6.72648e-49
6.72696e-49
6.72744e-49
6.72794e-49
6.72849e-49
6.72911e-49
6.72979e-49
6.73055e-49
6.7314e-49
6.73234e-49
6.73335e-49
6.73445e-49
6.7356e-49
6.73682e-49
6.73807e-49
6.73935e-49
6.74064e-49
6.74193e-49
6.74321e-49
6.74446e-49
6.74567e-49
6.74684e-49
6.74796e-49
6.74901e-49
6.75001e-49
6.75094e-49
6.75185e-49
6.75288e-49
6.75476e-49
6.76111e-49
6.78932e-49
6.923e-49
7.56132e-49
1.05988e-48
2.49736e-48
9.26065e-48
4.08983e-47
1.88056e-46
8.68732e-46
4.00012e-45
1.83296e-44
8.35656e-44
3.79077e-43
1.71127e-42
7.68913e-42
3.43938e-41
1.53185e-40
6.79469e-40
3.00216e-39
1.32161e-38
5.79799e-38
2.53542e-37
1.10541e-36
4.80612e-36
2.08432e-35
9.01836e-35
3.89386e-34
1.67808e-33
7.21959e-33
3.10143e-32
1.33057e-31
5.70173e-31
2.44081e-30
1.04394e-29
4.4614e-29
1.9053e-28
8.13163e-28
3.46843e-27
1.47856e-26
6.29939e-26
2.68227e-25
1.14141e-24
4.85392e-24
2.06272e-23
8.75906e-23
3.71642e-22
1.57552e-21
6.67338e-21
2.82413e-20
1.201e-19
5.08671e-19
2.14863e-18
9.06652e-18
3.8237e-17
1.61212e-16
6.79608e-16
2.86516e-15
1.2082e-14
5.09668e-14
2.15105e-13
9.0837e-13
3.83838e-12
1.623e-11
6.86705e-11
2.90731e-10
1.23157e-09
5.21947e-09
2.21261e-08
9.37664e-08
3.9652e-07
1.66267e-06
6.7625e-06
2.48557e-05
6.86046e-05
0.000111663
0.000122941
8.56192e-05
4.09731e-05
1.6479e-05
7.26289e-06
4.693e-06
4.48608e-06
4.99449e-06
5.71039e-06
6.21294e-06
6.54672e-06
6.7233e-06
6.77562e-06
6.73763e-06
6.63762e-06
6.49697e-06
6.33097e-06
6.15052e-06
5.96311e-06
5.7738e-06
5.58602e-06
5.40203e-06
5.2233e-06
5.05072e-06
4.88478e-06
4.72573e-06
4.57362e-06
4.42837e-06
4.28981e-06
4.15774e-06
4.0319e-06
3.91203e-06
3.79788e-06
3.6892e-06
3.5858e-06
3.49047e-06
3.40079e-06
3.31468e-06
3.23198e-06
3.15252e-06
3.07614e-06
3.00268e-06
2.93201e-06
2.864e-06
2.79851e-06
2.73543e-06
2.67464e-06
2.61603e-06
2.55951e-06
2.50496e-06
2.45231e-06
2.40147e-06
2.35234e-06
2.30487e-06
2.25896e-06
2.21456e-06
2.17159e-06
2.13e-06
2.08972e-06
2.05069e-06
2.01288e-06
1.97621e-06
1.94065e-06
1.90616e-06
1.87268e-06
1.84018e-06
1.80861e-06
1.77795e-06
1.74816e-06
1.71919e-06
1.69103e-06
1.66363e-06
1.63698e-06
1.61104e-06
1.58579e-06
1.5612e-06
1.53725e-06
1.51392e-06
1.49118e-06
1.46901e-06
1.44739e-06
1.42631e-06
1.40574e-06
1.38567e-06
1.36609e-06
1.34696e-06
1.32829e-06
1.31004e-06
1.29222e-06
1.27481e-06
1.25779e-06
1.24115e-06
1.22489e-06
1.20898e-06
1.19342e-06
1.17821e-06
1.16333e-06
1.14879e-06
1.13459e-06
1.12066e-06
1.10695e-06
1.09351e-06
1.08034e-06
1.06742e-06
1.05477e-06
1.04236e-06
1.0302e-06
1.01827e-06
1.00657e-06
9.95088e-07
9.83826e-07
9.72775e-07
9.6193e-07
9.51284e-07
9.40835e-07
9.30575e-07
9.20501e-07
9.10608e-07
9.00892e-07
8.91348e-07
8.81973e-07
8.72761e-07
8.6371e-07
8.54816e-07
8.46074e-07
8.37481e-07
8.29035e-07
8.20731e-07
8.12566e-07
8.04537e-07
7.96642e-07
7.88876e-07
7.81237e-07
7.73722e-07
7.66329e-07
7.59054e-07
7.51896e-07
7.44851e-07
7.37917e-07
7.31092e-07
7.24373e-07
7.17758e-07
7.11245e-07
7.04832e-07
6.98516e-07
6.92296e-07
6.8617e-07
6.80135e-07
6.7419e-07
6.68334e-07
6.62563e-07
6.56877e-07
6.51274e-07
6.45753e-07
6.40311e-07
6.34947e-07
6.29661e-07
6.24449e-07
6.19312e-07
6.14247e-07
6.09253e-07
6.0433e-07
5.99475e-07
5.94687e-07
5.89966e-07
5.85309e-07
5.80717e-07
5.76187e-07
5.71719e-07
5.67311e-07
5.62962e-07
5.58672e-07
5.5444e-07
5.50264e-07
5.46143e-07
5.42077e-07
5.38064e-07
5.34103e-07
5.30194e-07
5.26336e-07
5.22527e-07
5.18767e-07
5.15055e-07
5.1139e-07
5.07772e-07
5.04198e-07
5.00669e-07
4.97184e-07
4.93741e-07
4.90341e-07
4.86982e-07
4.83663e-07
4.80384e-07
4.77144e-07
4.73942e-07
4.70777e-07
4.67649e-07
4.64557e-07
4.61501e-07
4.58478e-07
4.5549e-07
4.52534e-07
4.49611e-07
4.46719e-07
4.43859e-07
4.41029e-07
4.38229e-07
4.35458e-07
4.32716e-07
4.30002e-07
4.27316e-07
4.24659e-07
4.22031e-07
4.19433e-07
4.16869e-07
4.14341e-07
4.11857e-07
4.0943e-07
4.07082e-07
4.04852e-07
4.02811e-07
4.01092e-07
3.9996e-07
)
;

boundaryField
{
    boundary
    {
        type            empty;
    }
    inlet
    {
        type            fixedValue;
        value           uniform 0;
    }
    outlet
    {
        type            zeroGradient;
    }
}


// ************************************************************************* //
