/*--------------------------------*- C++ -*----------------------------------*\
  =========                 |
  \\      /  F ield         | OpenFOAM: The Open Source CFD Toolbox
   \\    /   O peration     | Website:  https://openfoam.org
    \\  /    A nd           | Version:  7
     \\/     M anipulation  |
\*---------------------------------------------------------------------------*/
FoamFile
{
    version     2.0;
    format      ascii;
    class       volScalarField;
    location    "0.00085";
    object      O;
}
// * * * * * * * * * * * * * * * * * * * * * * * * * * * * * * * * * * * * * //

dimensions      [0 0 0 0 0 0 0];

internalField   nonuniform List<scalar> 
500
(
1.57749e-47
3.76379e-47
5.9622e-47
8.16101e-47
1.03571e-46
1.25491e-46
1.47359e-46
1.69163e-46
1.90895e-46
2.12544e-46
2.34107e-46
2.5558e-46
2.76966e-46
2.98271e-46
3.19506e-46
3.40687e-46
3.61832e-46
3.82964e-46
4.04105e-46
4.25281e-46
4.46516e-46
4.67834e-46
4.89259e-46
5.10809e-46
5.32506e-46
5.54369e-46
5.76414e-46
5.98661e-46
6.21131e-46
6.43847e-46
6.66838e-46
6.90135e-46
7.1378e-46
7.37817e-46
7.62301e-46
7.87292e-46
8.1286e-46
8.39079e-46
8.6603e-46
8.93798e-46
9.2247e-46
9.52135e-46
9.82878e-46
1.01478e-45
1.04791e-45
1.08233e-45
1.11808e-45
1.15519e-45
1.19367e-45
1.23349e-45
1.27461e-45
1.31697e-45
1.36044e-45
1.40491e-45
1.45021e-45
1.49616e-45
1.54255e-45
1.58915e-45
1.63571e-45
1.68197e-45
1.72768e-45
1.77257e-45
1.81639e-45
1.85891e-45
1.89988e-45
1.93912e-45
1.97645e-45
2.01172e-45
2.04483e-45
2.07569e-45
2.10426e-45
2.13053e-45
2.15452e-45
2.17627e-45
2.19585e-45
2.21337e-45
2.22892e-45
2.24263e-45
2.25465e-45
2.2651e-45
2.27412e-45
2.28187e-45
2.28847e-45
2.29405e-45
2.29875e-45
2.30267e-45
2.30593e-45
2.30862e-45
2.31082e-45
2.31261e-45
2.31405e-45
2.31522e-45
2.31615e-45
2.31689e-45
2.31748e-45
2.31794e-45
2.31831e-45
2.31859e-45
2.31881e-45
2.31899e-45
2.31913e-45
2.31923e-45
2.31932e-45
2.31939e-45
2.31945e-45
2.3195e-45
2.31954e-45
2.31958e-45
2.31962e-45
2.31965e-45
2.31969e-45
2.31972e-45
2.31976e-45
2.31979e-45
2.31983e-45
2.31987e-45
2.31991e-45
2.31995e-45
2.31999e-45
2.32003e-45
2.32005e-45
2.32002e-45
2.31984e-45
2.31925e-45
2.31743e-45
2.31479e-45
2.31485e-45
2.31492e-45
2.31499e-45
2.31507e-45
2.31515e-45
2.31524e-45
2.31533e-45
2.31543e-45
2.31553e-45
2.31564e-45
2.31576e-45
2.31587e-45
2.316e-45
2.31613e-45
2.31627e-45
2.31642e-45
2.31658e-45
2.31676e-45
2.31695e-45
2.31716e-45
2.31739e-45
2.31765e-45
2.31792e-45
2.31823e-45
2.31855e-45
2.3189e-45
2.31926e-45
2.31964e-45
2.32004e-45
2.32044e-45
2.32085e-45
2.32125e-45
2.32165e-45
2.32204e-45
2.32242e-45
2.32278e-45
2.32312e-45
2.32345e-45
2.32375e-45
2.32403e-45
2.3243e-45
2.32454e-45
2.32477e-45
2.32499e-45
2.32519e-45
2.32539e-45
2.32557e-45
2.32576e-45
2.32594e-45
2.32611e-45
2.32629e-45
2.32647e-45
2.32666e-45
2.32685e-45
2.32704e-45
2.32724e-45
2.32744e-45
2.32765e-45
2.32786e-45
2.32808e-45
2.3283e-45
2.32852e-45
2.32875e-45
2.329e-45
2.32929e-45
2.32975e-45
2.33082e-45
2.33407e-45
2.34503e-45
2.38312e-45
2.51614e-45
2.97946e-45
4.58591e-45
1.01277e-44
2.91464e-44
9.40801e-44
3.14644e-43
1.06006e-42
3.56677e-42
1.19551e-41
3.98904e-41
1.32484e-40
4.37975e-40
1.44134e-39
4.72235e-39
1.54056e-38
5.00476e-38
1.61931e-37
5.21891e-37
1.67571e-36
5.3611e-36
1.70928e-35
5.43187e-35
1.72082e-34
5.43555e-34
1.71219e-33
5.37938e-33
1.68602e-32
5.2725e-32
1.64539e-31
5.12495e-31
1.59349e-30
4.94674e-30
1.53341e-29
4.74716e-29
1.46791e-28
4.53431e-28
1.39932e-27
4.31477e-27
1.32946e-26
4.09354e-26
1.25967e-25
3.87408e-25
1.19083e-24
3.65854e-24
1.12343e-23
3.44802e-23
1.05772e-22
3.24299e-22
9.93775e-22
3.04363e-21
9.31651e-21
2.85019e-20
8.71484e-20
2.66331e-19
8.17174e-19
2.50199e-18
7.64344e-18
2.33314e-17
7.11974e-17
2.17249e-16
6.6295e-16
2.0234e-15
6.17726e-15
1.88647e-14
5.76325e-14
1.7614e-13
5.38556e-13
1.64734e-12
5.04087e-12
1.54308e-11
4.72511e-11
1.4473e-10
4.43443e-10
1.35961e-09
4.17961e-09
1.29944e-08
4.22554e-08
1.59191e-07
8.1916e-07
5.60036e-06
3.44237e-05
0.000156484
0.000566578
0.00147277
0.00277452
0.00411226
0.00518235
0.00589372
0.00628916
0.00643364
0.00643867
0.00636001
0.00623394
0.00608335
0.00592217
0.00575861
0.00559738
0.00544104
0.00529089
0.00514747
0.0050109
0.00488104
0.00475764
0.00464035
0.00452884
0.00442273
0.00432168
0.00422537
0.00413349
0.00404574
0.00396187
0.00388163
0.00380481
0.0037312
0.00366067
0.00359512
0.00353315
0.00347324
0.00341527
0.00335912
0.00330472
0.00325198
0.00320082
0.00315116
0.00310295
0.00305612
0.0030106
0.00296634
0.0029233
0.00288141
0.00284063
0.00280092
0.00276224
0.00272454
0.00268779
0.00265196
0.002617
0.00258289
0.00254959
0.00251709
0.00248534
0.00245433
0.00242403
0.00239441
0.00236545
0.00233714
0.00230945
0.00228236
0.00225585
0.0022299
0.00220451
0.00217964
0.00215528
0.00213143
0.00210805
0.00208515
0.0020627
0.00204069
0.00201911
0.00199794
0.00197718
0.00195682
0.00193683
0.00191721
0.00189795
0.00187904
0.00186047
0.00184223
0.00182431
0.0018067
0.00178939
0.00177238
0.00175566
0.00173922
0.00172305
0.00170716
0.00169153
0.00167618
0.00166109
0.00164622
0.0016315
0.00161699
0.00160271
0.00158864
0.00157477
0.00156112
0.00154766
0.00153441
0.00152134
0.00150846
0.00149577
0.00148325
0.00147092
0.00145876
0.00144677
0.00143494
0.00142328
0.00141179
0.00140045
0.00138926
0.00137823
0.00136735
0.00135662
0.00134603
0.00133559
0.00132528
0.00131511
0.00130508
0.00129518
0.00128541
0.00127576
0.00126624
0.00125685
0.00124757
0.00123842
0.00122938
0.00122046
0.00121164
0.00120294
0.00119435
0.00118586
0.00117748
0.0011692
0.00116102
0.00115294
0.00114496
0.00113708
0.00112929
0.00112159
0.00111399
0.00110647
0.00109904
0.00109171
0.00108445
0.00107728
0.0010702
0.0010632
0.00105628
0.00104944
0.00104267
0.00103599
0.00102938
0.00102285
0.00101639
0.00101001
0.0010037
0.000997459
0.000991291
0.000985192
0.000979162
0.000973199
0.000967304
0.000961474
0.000955709
0.000950008
0.000944369
0.000938793
0.000933278
0.000927823
0.000922427
0.00091709
0.000911809
0.000906585
0.000901416
0.000896302
0.000891241
0.000886232
0.000881275
0.000876369
0.000871512
0.000866704
0.000861943
0.000857229
0.000852561
0.000847938
0.000843359
0.000838823
0.000834329
0.000829875
0.000825462
0.000821088
0.000816752
0.000812452
0.000808189
0.000803961
0.000799767
0.000795607
0.000791478
0.000787382
0.000783316
0.000779282
0.00077528
0.00077131
0.000767376
0.000763483
0.000759638
0.000755856
0.000752162
0.000748594
0.000745221
0.00074216
0.00073962
0.000737983
)
;

boundaryField
{
    boundary
    {
        type            empty;
    }
    inlet
    {
        type            fixedValue;
        value           uniform 0;
    }
    outlet
    {
        type            zeroGradient;
    }
}


// ************************************************************************* //
