/*--------------------------------*- C++ -*----------------------------------*\
  =========                 |
  \\      /  F ield         | OpenFOAM: The Open Source CFD Toolbox
   \\    /   O peration     | Website:  https://openfoam.org
    \\  /    A nd           | Version:  7
     \\/     M anipulation  |
\*---------------------------------------------------------------------------*/
FoamFile
{
    version     2.0;
    format      ascii;
    class       volScalarField;
    location    "0.00085";
    object      O2;
}
// * * * * * * * * * * * * * * * * * * * * * * * * * * * * * * * * * * * * * //

dimensions      [0 0 0 0 0 0 0];

internalField   nonuniform List<scalar> 
500
(
0.226269
0.226269
0.226269
0.226269
0.226269
0.226269
0.226269
0.226269
0.226269
0.226269
0.226269
0.226269
0.226269
0.226269
0.226269
0.226269
0.226269
0.226269
0.226269
0.226269
0.226269
0.226269
0.226269
0.226269
0.226269
0.226269
0.226269
0.226269
0.226269
0.226269
0.226269
0.226269
0.226269
0.226269
0.226269
0.226269
0.226269
0.226269
0.226269
0.226269
0.226269
0.226269
0.226269
0.226269
0.226269
0.226269
0.226269
0.226269
0.226269
0.226269
0.226269
0.226269
0.226269
0.226269
0.226269
0.226269
0.226269
0.226269
0.226269
0.226269
0.226269
0.226269
0.226269
0.226269
0.226269
0.226269
0.226269
0.226269
0.226269
0.226269
0.226269
0.226269
0.226269
0.226269
0.226269
0.226269
0.226269
0.226269
0.226269
0.226269
0.226269
0.226269
0.226269
0.226269
0.226269
0.226269
0.226269
0.226269
0.226269
0.226269
0.226269
0.226269
0.226269
0.226269
0.226269
0.226269
0.226269
0.226269
0.226269
0.226269
0.226269
0.226269
0.226269
0.226269
0.226269
0.226269
0.226269
0.226269
0.226269
0.226269
0.226269
0.226269
0.226269
0.226269
0.226269
0.226269
0.226269
0.226269
0.226269
0.226269
0.226269
0.226269
0.226269
0.226269
0.226269
0.226269
0.226269
0.226269
0.226269
0.226269
0.226269
0.226269
0.226269
0.226269
0.226269
0.226269
0.226269
0.226269
0.226269
0.226269
0.226269
0.226269
0.226269
0.226269
0.226269
0.226269
0.226269
0.226269
0.226269
0.226269
0.226269
0.226269
0.226269
0.226269
0.226269
0.226269
0.226269
0.226269
0.226269
0.226269
0.226269
0.226269
0.226269
0.226269
0.226269
0.226269
0.226269
0.226269
0.226269
0.226269
0.226269
0.226269
0.226269
0.226269
0.226269
0.226269
0.226269
0.226269
0.226269
0.226269
0.226269
0.226269
0.226269
0.226269
0.226269
0.226269
0.226269
0.226269
0.226269
0.226269
0.226269
0.226269
0.226269
0.226269
0.226269
0.226269
0.226269
0.226269
0.226269
0.226269
0.226269
0.226269
0.226269
0.226269
0.226269
0.226269
0.226269
0.226269
0.226269
0.226269
0.226269
0.226269
0.226269
0.226269
0.226269
0.226269
0.226269
0.226269
0.226269
0.226269
0.226269
0.226269
0.226269
0.226269
0.226269
0.226269
0.226269
0.226269
0.226269
0.226269
0.226269
0.226269
0.226269
0.226269
0.226269
0.226269
0.226269
0.226269
0.226269
0.226269
0.226269
0.226269
0.226269
0.226269
0.226269
0.226269
0.226269
0.226269
0.226269
0.226269
0.226269
0.226269
0.226269
0.226269
0.226269
0.226269
0.226269
0.226269
0.226269
0.226269
0.226269
0.226269
0.226269
0.226269
0.226269
0.226269
0.226269
0.22627
0.226271
0.226273
0.226276
0.226278
0.226269
0.226197
0.225859
0.224632
0.221134
0.213378
0.20135
0.186057
0.166492
0.14232
0.116404
0.0932451
0.0757306
0.0601942
0.0512418
0.0451965
0.0410768
0.0381993
0.0361165
0.0345445
0.0333058
0.0322896
0.0314264
0.0306722
0.0299988
0.0293876
0.0288258
0.0283049
0.0278183
0.0273616
0.0269309
0.0265236
0.0261371
0.0257696
0.0254194
0.0250851
0.0247654
0.0244595
0.0241664
0.0238857
0.0236249
0.0233771
0.023137
0.0229041
0.0226781
0.0224585
0.0222452
0.0220377
0.0218357
0.0216391
0.0214475
0.0212608
0.0210786
0.0209009
0.0207274
0.020558
0.0203924
0.0202306
0.0200723
0.0199175
0.0197661
0.0196178
0.0194727
0.0193305
0.0191912
0.0190547
0.0189209
0.0187898
0.0186612
0.018535
0.0184112
0.0182898
0.0181706
0.0180535
0.0179387
0.0178258
0.017715
0.0176062
0.0174992
0.0173941
0.0172908
0.0171892
0.0170893
0.0169911
0.0168944
0.0167994
0.0167058
0.0166137
0.016523
0.0164337
0.0163457
0.016259
0.0161736
0.0160893
0.0160063
0.0159244
0.0158436
0.0157639
0.0156852
0.0156075
0.0155309
0.0154552
0.0153807
0.0153074
0.0152348
0.0151624
0.0150908
0.0150199
0.0149498
0.0148805
0.0148119
0.0147441
0.0146769
0.0146105
0.0145447
0.0144797
0.0144153
0.0143515
0.0142884
0.014226
0.0141641
0.0141029
0.0140424
0.0139824
0.0139231
0.0138643
0.0138062
0.0137486
0.0136916
0.0136352
0.0135793
0.013524
0.0134693
0.0134151
0.0133614
0.0133083
0.0132557
0.0132036
0.013152
0.013101
0.0130504
0.0130003
0.0129506
0.0129015
0.0128528
0.0128046
0.0127568
0.0127094
0.0126625
0.012616
0.01257
0.0125243
0.0124791
0.0124343
0.0123899
0.0123458
0.0123022
0.012259
0.0122161
0.0121736
0.0121315
0.0120897
0.0120484
0.0120074
0.0119667
0.0119264
0.0118865
0.0118469
0.0118076
0.0117687
0.0117301
0.0116919
0.011654
0.0116164
0.0115791
0.0115422
0.0115055
0.0114692
0.0114331
0.0113974
0.0113619
0.0113267
0.0112918
0.0112572
0.0112228
0.0111887
0.0111548
0.0111211
0.0110877
0.0110545
0.0110215
0.0109887
0.0109561
0.0109236
0.0108913
0.0108592
0.0108272
0.0107953
0.0107636
0.0107319
0.0107004
0.0106689
0.0106374
0.0106061
0.0105747
0.0105434
0.010512
0.0104806
0.0104492
0.0104177
0.0103861
0.0103544
0.0103226
0.0102906
0.0102584
0.010226
0.0101934
0.0101604
0.0101272
0.0100936
0.0100597
0.0100255
0.00999104
0.00995653
0.00992242
0.00988971
0.00986063
0.00984018
)
;

boundaryField
{
    boundary
    {
        type            empty;
    }
    inlet
    {
        type            fixedValue;
        value           uniform 0.226269;
    }
    outlet
    {
        type            zeroGradient;
    }
}


// ************************************************************************* //
