/*--------------------------------*- C++ -*----------------------------------*\
  =========                 |
  \\      /  F ield         | OpenFOAM: The Open Source CFD Toolbox
   \\    /   O peration     | Website:  https://openfoam.org
    \\  /    A nd           | Version:  7
     \\/     M anipulation  |
\*---------------------------------------------------------------------------*/
FoamFile
{
    version     2.0;
    format      ascii;
    class       volScalarField;
    location    "0.00085";
    object      Qdot;
}
// * * * * * * * * * * * * * * * * * * * * * * * * * * * * * * * * * * * * * //

dimensions      [1 -1 -3 0 0 0 0];

internalField   nonuniform List<scalar> 
500
(
-2.45215e-27
-1.86279e-27
-1.73604e-27
-1.709e-27
-1.7034e-27
-1.70233e-27
-1.70212e-27
-1.70192e-27
-1.70153e-27
-1.7009e-27
-1.69999e-27
-1.69882e-27
-1.69739e-27
-1.69573e-27
-1.6939e-27
-1.69194e-27
-1.68992e-27
-1.6879e-27
-1.68596e-27
-1.68415e-27
-1.68253e-27
-1.68118e-27
-1.68012e-27
-1.67939e-27
-1.67903e-27
-1.67905e-27
-1.67948e-27
-1.68031e-27
-1.68155e-27
-1.68323e-27
-1.68534e-27
-1.6879e-27
-1.69095e-27
-1.6945e-27
-1.69861e-27
-1.70331e-27
-1.70868e-27
-1.71478e-27
-1.72169e-27
-1.72948e-27
-1.73826e-27
-1.7481e-27
-1.75911e-27
-1.77136e-27
-1.78495e-27
-1.79996e-27
-1.81645e-27
-1.83447e-27
-1.85406e-27
-1.87525e-27
-1.89803e-27
-1.92238e-27
-1.94824e-27
-1.97554e-27
-2.00417e-27
-2.03402e-27
-2.06491e-27
-2.09668e-27
-2.12911e-27
-2.16201e-27
-2.19512e-27
-2.22822e-27
-2.26106e-27
-2.29341e-27
-2.32502e-27
-2.3557e-27
-2.38523e-27
-2.41344e-27
-2.44019e-27
-2.46537e-27
-2.48887e-27
-2.51064e-27
-2.53067e-27
-2.54894e-27
-2.56549e-27
-2.58038e-27
-2.59366e-27
-2.60542e-27
-2.61577e-27
-2.62481e-27
-2.63264e-27
-2.63939e-27
-2.64516e-27
-2.65006e-27
-2.6542e-27
-2.65766e-27
-2.66055e-27
-2.66294e-27
-2.6649e-27
-2.6665e-27
-2.66781e-27
-2.66886e-27
-2.66971e-27
-2.67038e-27
-2.67092e-27
-2.67135e-27
-2.67168e-27
-2.67195e-27
-2.67216e-27
-2.67233e-27
-2.67246e-27
-2.67256e-27
-2.67265e-27
-2.67272e-27
-2.67277e-27
-2.67282e-27
-2.67287e-27
-2.67291e-27
-2.67295e-27
-2.67298e-27
-2.67302e-27
-2.67305e-27
-2.67309e-27
-2.67313e-27
-2.67316e-27
-2.6732e-27
-2.67324e-27
-2.67328e-27
-2.67333e-27
-2.67337e-27
-2.67342e-27
-2.67347e-27
-2.67352e-27
-2.67356e-27
-2.67359e-27
-2.6736e-27
-2.67366e-27
-2.67374e-27
-2.67382e-27
-2.67392e-27
-2.67402e-27
-2.67414e-27
-2.67426e-27
-2.6744e-27
-2.67454e-27
-2.67468e-27
-2.67482e-27
-2.67496e-27
-2.67509e-27
-2.67521e-27
-2.67532e-27
-2.67543e-27
-2.67552e-27
-2.67561e-27
-2.67568e-27
-2.67576e-27
-2.67582e-27
-2.67589e-27
-2.67596e-27
-2.67603e-27
-2.6761e-27
-2.67618e-27
-2.67627e-27
-2.67637e-27
-2.67647e-27
-2.67659e-27
-2.67671e-27
-2.67683e-27
-2.67697e-27
-2.67711e-27
-2.67725e-27
-2.6774e-27
-2.67755e-27
-2.6777e-27
-2.67786e-27
-2.67802e-27
-2.67818e-27
-2.67834e-27
-2.6785e-27
-2.67866e-27
-2.67883e-27
-2.679e-27
-2.67917e-27
-2.67934e-27
-2.67951e-27
-2.67968e-27
-2.67986e-27
-2.68003e-27
-2.68021e-27
-2.68039e-27
-2.68057e-27
-2.68075e-27
-2.68093e-27
-2.68111e-27
-2.6813e-27
-2.68148e-27
-2.68166e-27
-2.68184e-27
-2.68202e-27
-2.6822e-27
-2.68238e-27
-2.68255e-27
-2.68272e-27
-2.68289e-27
-2.68305e-27
-2.6832e-27
-2.68335e-27
-2.6835e-27
-2.68363e-27
-2.68376e-27
-2.68389e-27
-2.684e-27
-2.6841e-27
-2.6842e-27
-2.68427e-27
-2.68433e-27
-2.68433e-27
-2.68419e-27
-2.6836e-27
-2.68155e-27
-2.67477e-27
-2.65266e-27
-2.58096e-27
-2.34942e-27
-1.60455e-27
7.82978e-28
8.40886e-27
3.26844e-26
1.09714e-25
3.53394e-25
1.12207e-24
3.54028e-24
1.11287e-23
3.48857e-23
1.091e-22
3.40475e-22
1.0605e-21
3.29742e-21
1.02364e-20
3.17319e-20
9.82388e-20
3.03788e-19
9.38459e-19
2.8965e-18
8.93298e-18
2.7532e-17
8.48106e-17
2.61151e-16
8.03948e-16
2.47481e-15
7.61978e-15
2.34738e-14
7.23902e-14
2.2364e-13
6.92871e-13
2.15599e-12
6.75267e-12
2.1352e-11
6.84338e-11
2.23444e-10
7.47652e-10
2.59263e-09
9.29411e-09
3.4591e-08
1.339e-07
5.37864e-07
2.23132e-06
9.50342e-06
4.13126e-05
0.000182378
0.000814339
0.00366744
0.0166293
0.0758547
0.34814
1.60953
7.51466
35.9895
188.871
1158.78
8869.55
64444.8
567505
5.34107e+06
5.05795e+07
4.31193e+08
2.53983e+09
7.79652e+09
1.24469e+10
1.37878e+10
1.39052e+10
1.39046e+10
1.34238e+10
1.21375e+10
1.02673e+10
8.31042e+09
6.75938e+09
5.61318e+09
4.73765e+09
4.0682e+09
3.54787e+09
3.13539e+09
2.80187e+09
2.52719e+09
2.29731e+09
2.10219e+09
1.93457e+09
1.78909e+09
1.66168e+09
1.54924e+09
1.44933e+09
1.36002e+09
1.27977e+09
1.20729e+09
1.14158e+09
1.08174e+09
1.02707e+09
9.7695e+08
9.30867e+08
8.88388e+08
8.49146e+08
8.12886e+08
7.80195e+08
7.50207e+08
7.2197e+08
6.95421e+08
6.7041e+08
6.46799e+08
6.24484e+08
6.03367e+08
5.83358e+08
5.64376e+08
5.46348e+08
5.29211e+08
5.12901e+08
4.97365e+08
4.82552e+08
4.68416e+08
4.54915e+08
4.42007e+08
4.2966e+08
4.17838e+08
4.06511e+08
3.95651e+08
3.85231e+08
3.75227e+08
3.65616e+08
3.56377e+08
3.4749e+08
3.38936e+08
3.307e+08
3.22764e+08
3.15113e+08
3.07734e+08
3.00613e+08
2.93738e+08
2.87098e+08
2.80681e+08
2.74477e+08
2.68476e+08
2.6267e+08
2.5705e+08
2.51607e+08
2.46334e+08
2.41224e+08
2.36269e+08
2.31464e+08
2.26802e+08
2.22277e+08
2.17884e+08
2.13618e+08
2.09472e+08
2.05444e+08
2.01528e+08
1.9772e+08
1.94015e+08
1.90411e+08
1.86902e+08
1.83487e+08
1.80161e+08
1.76921e+08
1.73765e+08
1.70689e+08
1.67693e+08
1.64779e+08
1.61944e+08
1.59178e+08
1.56462e+08
1.53806e+08
1.51214e+08
1.48682e+08
1.4621e+08
1.43794e+08
1.41433e+08
1.39126e+08
1.36871e+08
1.34666e+08
1.32509e+08
1.304e+08
1.28337e+08
1.26319e+08
1.24343e+08
1.2241e+08
1.20517e+08
1.18665e+08
1.1685e+08
1.15073e+08
1.13333e+08
1.11628e+08
1.09957e+08
1.0832e+08
1.06716e+08
1.05143e+08
1.03601e+08
1.02089e+08
1.00607e+08
9.91527e+07
9.77265e+07
9.63274e+07
9.49546e+07
9.36076e+07
9.22856e+07
9.09877e+07
8.9714e+07
8.84633e+07
8.72354e+07
8.60294e+07
8.4845e+07
8.36817e+07
8.25388e+07
8.1416e+07
8.03127e+07
7.92285e+07
7.8163e+07
7.71156e+07
7.60861e+07
7.5074e+07
7.40788e+07
7.31003e+07
7.21383e+07
7.11919e+07
7.02611e+07
6.93455e+07
6.84448e+07
6.75587e+07
6.66869e+07
6.5829e+07
6.49848e+07
6.4154e+07
6.33363e+07
6.25315e+07
6.17392e+07
6.09593e+07
6.01915e+07
5.94355e+07
5.86912e+07
5.79584e+07
5.72357e+07
5.65251e+07
5.58251e+07
5.51355e+07
5.44562e+07
5.3787e+07
5.31277e+07
5.24782e+07
5.18382e+07
5.12077e+07
5.05864e+07
4.99736e+07
4.93703e+07
4.87756e+07
4.81894e+07
4.76116e+07
4.7042e+07
4.64806e+07
4.59271e+07
4.53814e+07
4.48434e+07
4.4313e+07
4.379e+07
4.32743e+07
4.27658e+07
4.22644e+07
4.17699e+07
4.12823e+07
4.08014e+07
4.03271e+07
3.98593e+07
3.9398e+07
3.8943e+07
3.84941e+07
3.80515e+07
3.76148e+07
3.71841e+07
3.67592e+07
3.63401e+07
3.59267e+07
3.55187e+07
3.51164e+07
3.47192e+07
3.43272e+07
3.39399e+07
3.35574e+07
3.3179e+07
3.28038e+07
3.24309e+07
3.206e+07
3.16916e+07
3.13377e+07
3.10663e+07
)
;

boundaryField
{
    boundary
    {
        type            empty;
    }
    inlet
    {
        type            calculated;
        value           uniform 0;
    }
    outlet
    {
        type            calculated;
        value           uniform 0;
    }
}


// ************************************************************************* //
