/*--------------------------------*- C++ -*----------------------------------*\
  =========                 |
  \\      /  F ield         | OpenFOAM: The Open Source CFD Toolbox
   \\    /   O peration     | Website:  https://openfoam.org
    \\  /    A nd           | Version:  7
     \\/     M anipulation  |
\*---------------------------------------------------------------------------*/
FoamFile
{
    version     2.0;
    format      ascii;
    class       volVectorField;
    location    "0.00085";
    object      U;
}
// * * * * * * * * * * * * * * * * * * * * * * * * * * * * * * * * * * * * * //

dimensions      [0 1 -1 0 0 0 0];

internalField   nonuniform List<vector> 
500
(
(2.34893 0 0)
(2.34891 0 0)
(2.34889 0 0)
(2.34887 0 0)
(2.34885 0 0)
(2.34883 0 0)
(2.34881 0 0)
(2.34879 0 0)
(2.34877 0 0)
(2.34874 0 0)
(2.34872 0 0)
(2.3487 0 0)
(2.34868 0 0)
(2.34865 0 0)
(2.34863 0 0)
(2.34861 0 0)
(2.34859 0 0)
(2.34858 0 0)
(2.34856 0 0)
(2.34855 0 0)
(2.34853 0 0)
(2.34852 0 0)
(2.3485 0 0)
(2.34849 0 0)
(2.34848 0 0)
(2.34847 0 0)
(2.34846 0 0)
(2.34845 0 0)
(2.34844 0 0)
(2.34843 0 0)
(2.34842 0 0)
(2.34841 0 0)
(2.3484 0 0)
(2.34839 0 0)
(2.34838 0 0)
(2.34837 0 0)
(2.34836 0 0)
(2.34836 0 0)
(2.34835 0 0)
(2.34835 0 0)
(2.34835 0 0)
(2.34835 0 0)
(2.34835 0 0)
(2.34835 0 0)
(2.34835 0 0)
(2.34836 0 0)
(2.34836 0 0)
(2.34836 0 0)
(2.34837 0 0)
(2.34837 0 0)
(2.34837 0 0)
(2.34837 0 0)
(2.34837 0 0)
(2.34837 0 0)
(2.34837 0 0)
(2.34836 0 0)
(2.34835 0 0)
(2.34833 0 0)
(2.34832 0 0)
(2.3483 0 0)
(2.34828 0 0)
(2.34825 0 0)
(2.34822 0 0)
(2.34819 0 0)
(2.34816 0 0)
(2.34812 0 0)
(2.34809 0 0)
(2.34805 0 0)
(2.34801 0 0)
(2.34797 0 0)
(2.34793 0 0)
(2.34789 0 0)
(2.34785 0 0)
(2.34781 0 0)
(2.34778 0 0)
(2.34774 0 0)
(2.3477 0 0)
(2.34767 0 0)
(2.34764 0 0)
(2.34761 0 0)
(2.34758 0 0)
(2.34755 0 0)
(2.34752 0 0)
(2.34749 0 0)
(2.34747 0 0)
(2.34744 0 0)
(2.34742 0 0)
(2.3474 0 0)
(2.34738 0 0)
(2.34736 0 0)
(2.34734 0 0)
(2.34732 0 0)
(2.3473 0 0)
(2.34728 0 0)
(2.34726 0 0)
(2.34724 0 0)
(2.34722 0 0)
(2.3472 0 0)
(2.34719 0 0)
(2.34717 0 0)
(2.34715 0 0)
(2.34713 0 0)
(2.34712 0 0)
(2.3471 0 0)
(2.34708 0 0)
(2.34707 0 0)
(2.34705 0 0)
(2.34703 0 0)
(2.34701 0 0)
(2.347 0 0)
(2.34698 0 0)
(2.34696 0 0)
(2.34695 0 0)
(2.34693 0 0)
(2.34691 0 0)
(2.3469 0 0)
(2.34688 0 0)
(2.34686 0 0)
(2.34684 0 0)
(2.34683 0 0)
(2.34681 0 0)
(2.34679 0 0)
(2.34678 0 0)
(2.34676 0 0)
(2.34674 0 0)
(2.34672 0 0)
(2.34671 0 0)
(2.34669 0 0)
(2.34667 0 0)
(2.34665 0 0)
(2.34664 0 0)
(2.34662 0 0)
(2.3466 0 0)
(2.34659 0 0)
(2.34657 0 0)
(2.34655 0 0)
(2.34653 0 0)
(2.34652 0 0)
(2.3465 0 0)
(2.34648 0 0)
(2.34647 0 0)
(2.34645 0 0)
(2.34643 0 0)
(2.34641 0 0)
(2.3464 0 0)
(2.34638 0 0)
(2.34636 0 0)
(2.34634 0 0)
(2.34633 0 0)
(2.34631 0 0)
(2.34629 0 0)
(2.34627 0 0)
(2.34626 0 0)
(2.34624 0 0)
(2.34622 0 0)
(2.34621 0 0)
(2.34619 0 0)
(2.34617 0 0)
(2.34615 0 0)
(2.34614 0 0)
(2.34612 0 0)
(2.3461 0 0)
(2.34608 0 0)
(2.34607 0 0)
(2.34605 0 0)
(2.34603 0 0)
(2.34601 0 0)
(2.346 0 0)
(2.34598 0 0)
(2.34596 0 0)
(2.34594 0 0)
(2.34592 0 0)
(2.34591 0 0)
(2.34589 0 0)
(2.34587 0 0)
(2.34585 0 0)
(2.34584 0 0)
(2.34582 0 0)
(2.3458 0 0)
(2.34578 0 0)
(2.34577 0 0)
(2.34575 0 0)
(2.34573 0 0)
(2.34571 0 0)
(2.34569 0 0)
(2.34568 0 0)
(2.34566 0 0)
(2.34564 0 0)
(2.34562 0 0)
(2.3456 0 0)
(2.34559 0 0)
(2.34557 0 0)
(2.34555 0 0)
(2.34553 0 0)
(2.34551 0 0)
(2.3455 0 0)
(2.34548 0 0)
(2.34546 0 0)
(2.34544 0 0)
(2.34542 0 0)
(2.3454 0 0)
(2.34539 0 0)
(2.34537 0 0)
(2.34535 0 0)
(2.34533 0 0)
(2.34531 0 0)
(2.34529 0 0)
(2.34528 0 0)
(2.34526 0 0)
(2.34524 0 0)
(2.34522 0 0)
(2.3452 0 0)
(2.34518 0 0)
(2.34517 0 0)
(2.34515 0 0)
(2.34513 0 0)
(2.34511 0 0)
(2.34509 0 0)
(2.34507 0 0)
(2.34505 0 0)
(2.34504 0 0)
(2.34502 0 0)
(2.345 0 0)
(2.34498 0 0)
(2.34496 0 0)
(2.34494 0 0)
(2.34492 0 0)
(2.34491 0 0)
(2.34489 0 0)
(2.34487 0 0)
(2.34485 0 0)
(2.34483 0 0)
(2.34481 0 0)
(2.34479 0 0)
(2.34477 0 0)
(2.34476 0 0)
(2.34474 0 0)
(2.34472 0 0)
(2.3447 0 0)
(2.34468 0 0)
(2.34466 0 0)
(2.34464 0 0)
(2.34462 0 0)
(2.34461 0 0)
(2.34459 0 0)
(2.34457 0 0)
(2.34455 0 0)
(2.34453 0 0)
(2.34451 0 0)
(2.34449 0 0)
(2.34447 0 0)
(2.34445 0 0)
(2.34443 0 0)
(2.34441 0 0)
(2.34439 0 0)
(2.34438 0 0)
(2.34436 0 0)
(2.34434 0 0)
(2.34432 0 0)
(2.3443 0 0)
(2.34428 0 0)
(2.34426 0 0)
(2.34424 0 0)
(2.34422 0 0)
(2.3442 0 0)
(2.34418 0 0)
(2.34416 0 0)
(2.34418 0 0)
(2.34428 0 0)
(2.34471 0 0)
(2.34617 0 0)
(2.35075 0 0)
(2.36401 0 0)
(2.39906 0 0)
(2.48442 0 0)
(2.68211 0 0)
(3.10569 0 0)
(3.92901 0 0)
(5.07548 0 0)
(6.31483 0 0)
(7.47509 0 0)
(8.50138 0 0)
(9.38167 0 0)
(10.1134 0 0)
(10.7176 0 0)
(11.2198 0 0)
(11.6267 0 0)
(11.9503 0 0)
(12.2163 0 0)
(12.4449 0 0)
(12.6455 0 0)
(12.8233 0 0)
(12.9821 0 0)
(13.1253 0 0)
(13.2554 0 0)
(13.3744 0 0)
(13.4839 0 0)
(13.585 0 0)
(13.6789 0 0)
(13.7663 0 0)
(13.848 0 0)
(13.9247 0 0)
(13.9967 0 0)
(14.0646 0 0)
(14.1288 0 0)
(14.1895 0 0)
(14.2472 0 0)
(14.3019 0 0)
(14.354 0 0)
(14.4036 0 0)
(14.4509 0 0)
(14.4961 0 0)
(14.538 0 0)
(14.5774 0 0)
(14.6155 0 0)
(14.6524 0 0)
(14.688 0 0)
(14.7225 0 0)
(14.7559 0 0)
(14.7883 0 0)
(14.8197 0 0)
(14.8501 0 0)
(14.8797 0 0)
(14.9085 0 0)
(14.9364 0 0)
(14.9636 0 0)
(14.99 0 0)
(15.0158 0 0)
(15.0409 0 0)
(15.0653 0 0)
(15.0892 0 0)
(15.1125 0 0)
(15.1352 0 0)
(15.1573 0 0)
(15.179 0 0)
(15.2002 0 0)
(15.2208 0 0)
(15.2411 0 0)
(15.2608 0 0)
(15.2802 0 0)
(15.2992 0 0)
(15.3177 0 0)
(15.3359 0 0)
(15.3537 0 0)
(15.3711 0 0)
(15.3882 0 0)
(15.405 0 0)
(15.4215 0 0)
(15.4376 0 0)
(15.4535 0 0)
(15.469 0 0)
(15.4843 0 0)
(15.4993 0 0)
(15.514 0 0)
(15.5285 0 0)
(15.5427 0 0)
(15.5566 0 0)
(15.5704 0 0)
(15.5839 0 0)
(15.5972 0 0)
(15.6102 0 0)
(15.6231 0 0)
(15.6357 0 0)
(15.6482 0 0)
(15.6604 0 0)
(15.6725 0 0)
(15.6844 0 0)
(15.6961 0 0)
(15.7076 0 0)
(15.719 0 0)
(15.7302 0 0)
(15.7412 0 0)
(15.752 0 0)
(15.7627 0 0)
(15.7732 0 0)
(15.7835 0 0)
(15.7937 0 0)
(15.8038 0 0)
(15.8138 0 0)
(15.8237 0 0)
(15.8334 0 0)
(15.843 0 0)
(15.8524 0 0)
(15.8618 0 0)
(15.871 0 0)
(15.8801 0 0)
(15.8891 0 0)
(15.898 0 0)
(15.9067 0 0)
(15.9154 0 0)
(15.9239 0 0)
(15.9324 0 0)
(15.9407 0 0)
(15.9489 0 0)
(15.9571 0 0)
(15.9651 0 0)
(15.9731 0 0)
(15.9809 0 0)
(15.9887 0 0)
(15.9963 0 0)
(16.0039 0 0)
(16.0114 0 0)
(16.0188 0 0)
(16.0261 0 0)
(16.0334 0 0)
(16.0406 0 0)
(16.0476 0 0)
(16.0546 0 0)
(16.0616 0 0)
(16.0684 0 0)
(16.0752 0 0)
(16.0819 0 0)
(16.0885 0 0)
(16.0951 0 0)
(16.1016 0 0)
(16.108 0 0)
(16.1144 0 0)
(16.1207 0 0)
(16.1269 0 0)
(16.1331 0 0)
(16.1392 0 0)
(16.1452 0 0)
(16.1512 0 0)
(16.1571 0 0)
(16.163 0 0)
(16.1688 0 0)
(16.1745 0 0)
(16.1802 0 0)
(16.1859 0 0)
(16.1914 0 0)
(16.197 0 0)
(16.2024 0 0)
(16.2078 0 0)
(16.2132 0 0)
(16.2185 0 0)
(16.2238 0 0)
(16.229 0 0)
(16.2342 0 0)
(16.2393 0 0)
(16.2444 0 0)
(16.2494 0 0)
(16.2544 0 0)
(16.2593 0 0)
(16.2642 0 0)
(16.269 0 0)
(16.2738 0 0)
(16.2786 0 0)
(16.2833 0 0)
(16.288 0 0)
(16.2926 0 0)
(16.2972 0 0)
(16.3017 0 0)
(16.3062 0 0)
(16.3107 0 0)
(16.3151 0 0)
(16.3195 0 0)
(16.3239 0 0)
(16.3282 0 0)
(16.3325 0 0)
(16.3367 0 0)
(16.3409 0 0)
(16.3451 0 0)
(16.3492 0 0)
(16.3533 0 0)
(16.3574 0 0)
(16.3614 0 0)
(16.3654 0 0)
(16.3694 0 0)
(16.3733 0 0)
(16.3772 0 0)
(16.3811 0 0)
(16.3849 0 0)
(16.3887 0 0)
(16.3925 0 0)
(16.3963 0 0)
(16.4 0 0)
(16.4037 0 0)
(16.4073 0 0)
(16.411 0 0)
(16.4146 0 0)
(16.4181 0 0)
(16.4217 0 0)
(16.4252 0 0)
(16.4287 0 0)
(16.4321 0 0)
(16.4356 0 0)
(16.439 0 0)
(16.4424 0 0)
(16.4457 0 0)
(16.4491 0 0)
(16.4524 0 0)
(16.4557 0 0)
(16.459 0 0)
(16.4623 0 0)
(16.4656 0 0)
(16.4689 0 0)
(16.472 0 0)
(16.4751 0 0)
(16.4777 0 0)
(16.4795 0 0)
)
;

boundaryField
{
    boundary
    {
        type            empty;
    }
    inlet
    {
        type            fixedValue;
        value           uniform (2.34893 0 0);
    }
    outlet
    {
        type            zeroGradient;
    }
}


// ************************************************************************* //
