/*--------------------------------*- C++ -*----------------------------------*\
  =========                 |
  \\      /  F ield         | OpenFOAM: The Open Source CFD Toolbox
   \\    /   O peration     | Website:  https://openfoam.org
    \\  /    A nd           | Version:  7
     \\/     M anipulation  |
\*---------------------------------------------------------------------------*/
FoamFile
{
    version     2.0;
    format      ascii;
    class       volScalarField;
    location    "0.00013";
    object      p;
}
// * * * * * * * * * * * * * * * * * * * * * * * * * * * * * * * * * * * * * //

dimensions      [1 -1 -2 0 0 0 0];

internalField   nonuniform List<scalar> 
125
(
102984
102984
102984
102984
102984
102984
102984
102984
102984
102983
102983
102983
102983
102983
102983
102983
102983
102983
102983
102983
102982
102982
102982
102982
102982
102982
102982
102982
102981
102980
102978
102976
102973
102971
102969
102967
102965
102964
102963
102962
102961
102961
102960
102960
102959
102959
102958
102958
102958
102958
102957
102957
102957
102957
102957
102956
102956
102956
102956
102956
102956
102955
102955
102955
102955
102955
102955
102955
102955
102954
102954
102954
102954
102954
102954
102954
102954
102954
102954
102954
102954
102953
102953
102953
102953
102953
102953
102953
102953
102953
102953
102953
102953
102953
102952
102952
102952
102952
102952
102952
102952
102952
102952
102952
102952
102952
102952
102952
102951
102951
102951
102951
102951
102951
102951
102951
102951
102951
102951
102951
102951
102951
102951
102950
102950
)
;

boundaryField
{
    boundary
    {
        type            empty;
    }
    inlet
    {
        type            zeroGradient;
    }
    outlet
    {
        type            waveTransmissive;
        gamma           1.4;
        value           nonuniform 0();
    }
    procBoundary1to0
    {
        type            processor;
        value           uniform 102950;
    }
    procBoundary1to3
    {
        type            processor;
        value           uniform 102984;
    }
}


// ************************************************************************* //
