/*--------------------------------*- C++ -*----------------------------------*\
  =========                 |
  \\      /  F ield         | OpenFOAM: The Open Source CFD Toolbox
   \\    /   O peration     | Website:  https://openfoam.org
    \\  /    A nd           | Version:  7
     \\/     M anipulation  |
\*---------------------------------------------------------------------------*/
FoamFile
{
    version     2.0;
    format      ascii;
    class       volScalarField;
    location    "0.00087";
    object      T;
}
// * * * * * * * * * * * * * * * * * * * * * * * * * * * * * * * * * * * * * //

dimensions      [0 0 0 1 0 0 0];

internalField   nonuniform List<scalar> 
124
(
2214.32
2216.02
2217.69
2219.34
2220.97
2222.58
2224.16
2225.73
2227.28
2228.8
2230.31
2231.8
2233.27
2234.72
2236.15
2237.57
2238.97
2240.35
2241.72
2243.07
2244.4
2245.72
2247.02
2248.31
2249.59
2250.85
2252.09
2253.33
2254.54
2255.75
2256.94
2258.12
2259.29
2260.45
2261.59
2262.72
2263.84
2264.95
2266.05
2267.13
2268.21
2269.27
2270.33
2271.37
2272.4
2273.43
2274.44
2275.45
2276.44
2277.42
2278.4
2279.37
2280.32
2281.27
2282.21
2283.14
2284.07
2284.98
2285.89
2286.78
2287.67
2288.56
2289.43
2290.3
2291.16
2292.01
2292.85
2293.69
2294.52
2295.34
2296.16
2296.97
2297.77
2298.56
2299.35
2300.14
2300.91
2301.68
2302.45
2303.2
2303.96
2304.7
2305.44
2306.18
2306.91
2307.63
2308.35
2309.06
2309.77
2310.47
2311.16
2311.85
2312.54
2313.22
2313.89
2314.56
2315.22
2315.88
2316.54
2317.18
2317.83
2318.47
2319.1
2319.73
2320.35
2320.97
2321.58
2322.19
2322.8
2323.39
2323.99
2324.58
2325.16
2325.74
2326.31
2326.88
2327.44
2327.99
2328.54
2329.07
2329.59
2330.07
2330.5
2330.77
)
;

boundaryField
{
    boundary
    {
        type            empty;
    }
    inlet
    {
        type            fixedValue;
        value           nonuniform 0();
    }
    outlet
    {
        type            zeroGradient;
    }
    procBoundary0to1
    {
        type            processor;
        value           uniform 2212.61;
    }
}


// ************************************************************************* //
