/*--------------------------------*- C++ -*----------------------------------*\
  =========                 |
  \\      /  F ield         | OpenFOAM: The Open Source CFD Toolbox
   \\    /   O peration     | Website:  https://openfoam.org
    \\  /    A nd           | Version:  7
     \\/     M anipulation  |
\*---------------------------------------------------------------------------*/
FoamFile
{
    version     2.0;
    format      ascii;
    class       volVectorField;
    location    "0.00087";
    object      U;
}
// * * * * * * * * * * * * * * * * * * * * * * * * * * * * * * * * * * * * * //

dimensions      [0 1 -1 0 0 0 0];

internalField   nonuniform List<vector> 
124
(
(15.796 0 0)
(15.8061 0 0)
(15.8161 0 0)
(15.8259 0 0)
(15.8356 0 0)
(15.8452 0 0)
(15.8547 0 0)
(15.864 0 0)
(15.8732 0 0)
(15.8823 0 0)
(15.8913 0 0)
(15.9001 0 0)
(15.9089 0 0)
(15.9175 0 0)
(15.926 0 0)
(15.9345 0 0)
(15.9428 0 0)
(15.951 0 0)
(15.9591 0 0)
(15.9672 0 0)
(15.9751 0 0)
(15.983 0 0)
(15.9907 0 0)
(15.9984 0 0)
(16.0059 0 0)
(16.0134 0 0)
(16.0208 0 0)
(16.0282 0 0)
(16.0354 0 0)
(16.0425 0 0)
(16.0496 0 0)
(16.0566 0 0)
(16.0635 0 0)
(16.0704 0 0)
(16.0772 0 0)
(16.0839 0 0)
(16.0905 0 0)
(16.0971 0 0)
(16.1036 0 0)
(16.11 0 0)
(16.1163 0 0)
(16.1226 0 0)
(16.1289 0 0)
(16.135 0 0)
(16.1411 0 0)
(16.1471 0 0)
(16.1531 0 0)
(16.159 0 0)
(16.1649 0 0)
(16.1707 0 0)
(16.1764 0 0)
(16.1821 0 0)
(16.1877 0 0)
(16.1933 0 0)
(16.1988 0 0)
(16.2043 0 0)
(16.2097 0 0)
(16.2151 0 0)
(16.2204 0 0)
(16.2257 0 0)
(16.2309 0 0)
(16.236 0 0)
(16.2412 0 0)
(16.2462 0 0)
(16.2512 0 0)
(16.2562 0 0)
(16.2611 0 0)
(16.266 0 0)
(16.2709 0 0)
(16.2757 0 0)
(16.2804 0 0)
(16.2851 0 0)
(16.2898 0 0)
(16.2944 0 0)
(16.299 0 0)
(16.3035 0 0)
(16.3081 0 0)
(16.3125 0 0)
(16.3169 0 0)
(16.3213 0 0)
(16.3257 0 0)
(16.33 0 0)
(16.3343 0 0)
(16.3385 0 0)
(16.3427 0 0)
(16.3469 0 0)
(16.351 0 0)
(16.3551 0 0)
(16.3592 0 0)
(16.3632 0 0)
(16.3672 0 0)
(16.3711 0 0)
(16.3751 0 0)
(16.379 0 0)
(16.3828 0 0)
(16.3867 0 0)
(16.3905 0 0)
(16.3942 0 0)
(16.398 0 0)
(16.4017 0 0)
(16.4054 0 0)
(16.409 0 0)
(16.4126 0 0)
(16.4162 0 0)
(16.4198 0 0)
(16.4233 0 0)
(16.4268 0 0)
(16.4303 0 0)
(16.4338 0 0)
(16.4372 0 0)
(16.4406 0 0)
(16.444 0 0)
(16.4474 0 0)
(16.4507 0 0)
(16.4541 0 0)
(16.4574 0 0)
(16.4607 0 0)
(16.464 0 0)
(16.4672 0 0)
(16.4705 0 0)
(16.4737 0 0)
(16.4767 0 0)
(16.4793 0 0)
(16.4811 0 0)
)
;

boundaryField
{
    boundary
    {
        type            empty;
    }
    inlet
    {
        type            fixedValue;
        value           nonuniform 0();
    }
    outlet
    {
        type            zeroGradient;
    }
    procBoundary0to1
    {
        type            processor;
        value           uniform (15.7858 0 0);
    }
}


// ************************************************************************* //
