/*--------------------------------*- C++ -*----------------------------------*\
  =========                 |
  \\      /  F ield         | OpenFOAM: The Open Source CFD Toolbox
   \\    /   O peration     | Website:  https://openfoam.org
    \\  /    A nd           | Version:  7
     \\/     M anipulation  |
\*---------------------------------------------------------------------------*/
FoamFile
{
    version     2.0;
    format      ascii;
    class       volScalarField;
    location    "0.00053";
    object      Qdot;
}
// * * * * * * * * * * * * * * * * * * * * * * * * * * * * * * * * * * * * * //

dimensions      [1 -1 -3 0 0 0 0];

internalField   nonuniform List<scalar> 
125
(
-2.45437e-27
-1.86552e-27
-1.74007e-27
-1.7147e-27
-1.71102e-27
-1.71207e-27
-1.71416e-27
-1.71651e-27
-1.71895e-27
-1.72149e-27
-1.72415e-27
-1.72698e-27
-1.73006e-27
-1.73347e-27
-1.7373e-27
-1.74167e-27
-1.74672e-27
-1.75259e-27
-1.75946e-27
-1.76752e-27
-1.77696e-27
-1.78799e-27
-1.80081e-27
-1.81563e-27
-1.83264e-27
-1.85202e-27
-1.8739e-27
-1.89838e-27
-1.92552e-27
-1.95533e-27
-1.98772e-27
-2.02257e-27
-2.05966e-27
-2.09872e-27
-2.1394e-27
-2.18128e-27
-2.22392e-27
-2.26682e-27
-2.30947e-27
-2.35135e-27
-2.392e-27
-2.43095e-27
-2.46783e-27
-2.5023e-27
-2.53414e-27
-2.56317e-27
-2.58932e-27
-2.6126e-27
-2.63307e-27
-2.65085e-27
-2.66612e-27
-2.67908e-27
-2.68995e-27
-2.69898e-27
-2.70639e-27
-2.7124e-27
-2.71724e-27
-2.72108e-27
-2.7241e-27
-2.72645e-27
-2.72827e-27
-2.72965e-27
-2.7307e-27
-2.73148e-27
-2.73207e-27
-2.7325e-27
-2.73281e-27
-2.73304e-27
-2.7332e-27
-2.73332e-27
-2.7334e-27
-2.73346e-27
-2.73351e-27
-2.73354e-27
-2.73356e-27
-2.73358e-27
-2.7336e-27
-2.73362e-27
-2.73363e-27
-2.73364e-27
-2.73366e-27
-2.73367e-27
-2.73369e-27
-2.7337e-27
-2.73372e-27
-2.73374e-27
-2.73376e-27
-2.73378e-27
-2.7338e-27
-2.73383e-27
-2.73385e-27
-2.73388e-27
-2.73391e-27
-2.73394e-27
-2.73397e-27
-2.734e-27
-2.73404e-27
-2.73407e-27
-2.73411e-27
-2.73415e-27
-2.7342e-27
-2.73424e-27
-2.73429e-27
-2.73434e-27
-2.73439e-27
-2.73444e-27
-2.7345e-27
-2.73456e-27
-2.73462e-27
-2.73468e-27
-2.73475e-27
-2.73482e-27
-2.73489e-27
-2.73496e-27
-2.73504e-27
-2.73512e-27
-2.7352e-27
-2.73529e-27
-2.73537e-27
-2.73546e-27
-2.73556e-27
-2.73565e-27
-2.73573e-27
-2.73581e-27
-2.73588e-27
)
;

boundaryField
{
    boundary
    {
        type            empty;
    }
    inlet
    {
        type            calculated;
        value           uniform 0;
    }
    outlet
    {
        type            calculated;
        value           nonuniform 0();
    }
    procBoundary2to3
    {
        type            processor;
        value           uniform 0;
    }
}


// ************************************************************************* //
