/*--------------------------------*- C++ -*----------------------------------*\
  =========                 |
  \\      /  F ield         | OpenFOAM: The Open Source CFD Toolbox
   \\    /   O peration     | Website:  https://openfoam.org
    \\  /    A nd           | Version:  7
     \\/     M anipulation  |
\*---------------------------------------------------------------------------*/
FoamFile
{
    version     2.0;
    format      ascii;
    class       volScalarField;
    location    "0.00053";
    object      T;
}
// * * * * * * * * * * * * * * * * * * * * * * * * * * * * * * * * * * * * * //

dimensions      [0 0 0 1 0 0 0];

internalField   nonuniform List<scalar> 
125
(
300
300.002
300.005
300.009
300.013
300.018
300.022
300.027
300.032
300.037
300.042
300.047
300.053
300.06
300.067
300.075
300.085
300.096
300.109
300.124
300.142
300.163
300.186
300.213
300.244
300.279
300.318
300.361
300.408
300.459
300.514
300.572
300.632
300.695
300.759
300.823
300.888
300.952
301.014
301.075
301.132
301.186
301.237
301.284
301.327
301.365
301.4
301.43
301.457
301.479
301.499
301.516
301.53
301.541
301.551
301.558
301.564
301.569
301.573
301.576
301.578
301.58
301.582
301.583
301.583
301.584
301.584
301.585
301.585
301.585
301.585
301.585
301.585
301.585
301.585
301.585
301.585
301.585
301.585
301.585
301.585
301.585
301.585
301.585
301.586
301.586
301.586
301.586
301.586
301.586
301.586
301.586
301.586
301.586
301.586
301.586
301.586
301.586
301.586
301.586
301.586
301.586
301.586
301.586
301.586
301.586
301.586
301.587
301.587
301.587
301.587
301.587
301.587
301.587
301.587
301.587
301.587
301.587
301.588
301.588
301.588
301.588
301.588
301.588
301.588
)
;

boundaryField
{
    boundary
    {
        type            empty;
    }
    inlet
    {
        type            fixedValue;
        value           uniform 300;
    }
    outlet
    {
        type            zeroGradient;
    }
    procBoundary2to3
    {
        type            processor;
        value           uniform 301.588;
    }
}


// ************************************************************************* //
