/*--------------------------------*- C++ -*----------------------------------*\
  =========                 |
  \\      /  F ield         | OpenFOAM: The Open Source CFD Toolbox
   \\    /   O peration     | Website:  https://openfoam.org
    \\  /    A nd           | Version:  7
     \\/     M anipulation  |
\*---------------------------------------------------------------------------*/
FoamFile
{
    version     2.0;
    format      ascii;
    class       volScalarField;
    location    "0.00062";
    object      H2;
}
// * * * * * * * * * * * * * * * * * * * * * * * * * * * * * * * * * * * * * //

dimensions      [0 0 0 0 0 0 0];

internalField   nonuniform List<scalar> 
500
(
0.0285116
0.0285116
0.0285116
0.0285116
0.0285116
0.0285116
0.0285116
0.0285116
0.0285116
0.0285116
0.0285116
0.0285116
0.0285116
0.0285116
0.0285116
0.0285116
0.0285116
0.0285116
0.0285116
0.0285116
0.0285116
0.0285116
0.0285116
0.0285116
0.0285116
0.0285116
0.0285116
0.0285116
0.0285116
0.0285116
0.0285116
0.0285116
0.0285116
0.0285116
0.0285116
0.0285116
0.0285116
0.0285116
0.0285116
0.0285116
0.0285116
0.0285116
0.0285116
0.0285116
0.0285116
0.0285116
0.0285116
0.0285116
0.0285116
0.0285116
0.0285116
0.0285116
0.0285116
0.0285116
0.0285116
0.0285116
0.0285116
0.0285116
0.0285116
0.0285116
0.0285116
0.0285116
0.0285116
0.0285116
0.0285116
0.0285116
0.0285116
0.0285116
0.0285116
0.0285116
0.0285116
0.0285116
0.0285116
0.0285116
0.0285116
0.0285116
0.0285116
0.0285116
0.0285116
0.0285116
0.0285116
0.0285116
0.0285116
0.0285116
0.0285116
0.0285116
0.0285116
0.0285116
0.0285116
0.0285116
0.0285116
0.0285116
0.0285116
0.0285116
0.0285116
0.0285116
0.0285116
0.0285116
0.0285116
0.0285116
0.0285116
0.0285116
0.0285116
0.0285116
0.0285116
0.0285116
0.0285116
0.0285116
0.0285116
0.0285116
0.0285116
0.0285116
0.0285116
0.0285116
0.0285116
0.0285116
0.0285116
0.0285116
0.0285116
0.0285116
0.0285116
0.0285116
0.0285116
0.0285116
0.0285116
0.0285116
0.0285116
0.0285116
0.0285116
0.0285116
0.0285116
0.0285116
0.0285116
0.0285116
0.0285116
0.0285116
0.0285116
0.0285116
0.0285116
0.0285116
0.0285116
0.0285116
0.0285116
0.0285116
0.0285116
0.0285116
0.0285116
0.0285116
0.0285116
0.0285116
0.0285116
0.0285116
0.0285116
0.0285116
0.0285116
0.0285116
0.0285116
0.0285116
0.0285116
0.0285116
0.0285116
0.0285116
0.0285116
0.0285116
0.0285116
0.0285116
0.0285116
0.0285116
0.0285116
0.0285116
0.0285116
0.0285116
0.0285116
0.0285116
0.0285116
0.0285116
0.0285116
0.0285116
0.0285116
0.0285116
0.0285116
0.0285116
0.0285116
0.0285116
0.0285116
0.0285116
0.0285116
0.0285116
0.0285116
0.0285116
0.0285116
0.0285116
0.0285116
0.0285116
0.0285116
0.0285116
0.0285116
0.0285116
0.0285116
0.0285116
0.0285116
0.0285116
0.0285116
0.0285116
0.0285116
0.0285116
0.0285116
0.0285116
0.0285116
0.0285116
0.0285116
0.0285116
0.0285116
0.0285116
0.0285116
0.0285116
0.0285116
0.0285116
0.0285116
0.0285116
0.0285116
0.0285116
0.0285116
0.0285116
0.0285116
0.0285116
0.0285116
0.0285116
0.0285116
0.0285116
0.0285116
0.0285116
0.0285116
0.0285116
0.0285116
0.0285116
0.0285116
0.0285116
0.0285116
0.0285116
0.0285116
0.0285116
0.0285116
0.0285116
0.0285116
0.0285116
0.0285116
0.0285116
0.0285116
0.0285116
0.0285116
0.0285116
0.0285116
0.0285116
0.0285116
0.0285116
0.0285116
0.0285116
0.0285116
0.0285116
0.0285116
0.0285116
0.0285115
0.0285115
0.0285114
0.0285111
0.0285106
0.0285096
0.0285074
0.0285029
0.0284935
0.0284738
0.0284331
0.0283489
0.0281759
0.0278287
0.0271652
0.0260106
0.0242466
0.0219485
0.0192817
0.0163302
0.0132646
0.0104322
0.00815815
0.00654034
0.0053903
0.00472027
0.0043062
0.00405095
0.00389147
0.00378871
0.00371912
0.00366876
0.00362947
0.0035965
0.00356713
0.00353982
0.00351371
0.00348834
0.00346346
0.00343896
0.00341478
0.00339091
0.00336736
0.00334413
0.00332124
0.00329869
0.0032765
0.00325466
0.00323319
0.00321209
0.00319199
0.00317268
0.00315365
0.00313488
0.00311636
0.00309811
0.0030801
0.00306235
0.00304484
0.00302757
0.00301055
0.00299375
0.00297719
0.00296085
0.00294474
0.00292884
0.00291316
0.00289769
0.00288243
0.00286737
0.00285251
0.00283784
0.00282337
0.00280908
0.00279497
0.00278104
0.00276729
0.00275372
0.00274031
0.00272706
0.00271398
0.00270105
0.00268829
0.00267567
0.0026632
0.00265088
0.0026387
0.00262666
0.00261476
0.00260299
0.00259135
0.00257984
0.00256846
0.0025572
0.00254606
0.00253504
0.00252414
0.00251335
0.00250268
0.00249211
0.00248166
0.0024713
0.00246106
0.00245091
0.00244087
0.00243093
0.00242108
0.00241133
0.00240167
0.00239211
0.00238264
0.00237326
0.00236397
0.00235477
0.00234565
0.00233662
0.00232768
0.00231881
0.00231004
0.00230134
0.00229273
0.0022842
0.00227575
0.00226738
0.00225909
0.00225088
0.00224275
0.0022347
0.00222672
0.00221882
0.002211
0.00220325
0.00219558
0.00218798
0.00218046
0.00217301
0.00216563
0.00215833
0.0021511
0.00214394
0.00213685
0.00212984
0.00212289
0.00211602
0.00210922
0.00210248
0.00209582
0.00208923
0.00208271
0.00207626
0.00206988
0.00206358
0.00205734
0.00205117
0.00204508
0.00203906
0.00203312
0.00202724
0.00202145
0.00201573
0.00201008
0.00200452
0.00199903
0.00199362
0.0019883
0.00198306
0.00197791
0.00197284
0.00196786
0.00196298
0.00195819
0.00195349
0.00194889
0.0019444
0.00194
0.00193572
0.00193154
0.00192748
0.00192353
0.00191971
0.00191601
0.00191244
0.00190902
0.00190575
0.00190263
0.00189934
0.00189653
0.00189384
0.00189128
0.00188887
0.00188662
0.00188452
0.00188259
0.00188083
0.00187924
0.00187783
0.00187659
0.00187554
0.00187467
0.00187398
0.00187347
0.00187316
0.00187303
0.00187308
0.00187332
0.00187375
0.00187435
0.00187513
0.00187608
0.00187721
0.00187849
0.00187993
0.00188152
0.00188325
0.00188511
0.00188708
0.00188917
0.00189135
0.00189361
0.00189594
0.00189833
0.00190075
0.0019032
0.00190566
0.00190811
0.00191054
0.00191294
0.0019153
0.0019176
0.00191985
0.00192204
0.00192418
0.00192625
0.00192826
0.00193019
0.00193196
0.00193345
0.00193439
)
;

boundaryField
{
    boundary
    {
        type            empty;
    }
    inlet
    {
        type            fixedValue;
        value           uniform 0.0285116;
    }
    outlet
    {
        type            zeroGradient;
    }
}


// ************************************************************************* //
