/*--------------------------------*- C++ -*----------------------------------*\
  =========                 |
  \\      /  F ield         | OpenFOAM: The Open Source CFD Toolbox
   \\    /   O peration     | Website:  https://openfoam.org
    \\  /    A nd           | Version:  7
     \\/     M anipulation  |
\*---------------------------------------------------------------------------*/
FoamFile
{
    version     2.0;
    format      ascii;
    class       volScalarField;
    location    "0.00062";
    object      H2O2;
}
// * * * * * * * * * * * * * * * * * * * * * * * * * * * * * * * * * * * * * //

dimensions      [0 0 0 0 0 0 0];

internalField   nonuniform List<scalar> 
500
(
1.98685e-52
6.37919e-52
1.26785e-51
2.08907e-51
3.10247e-51
4.30917e-51
5.71036e-51
7.30722e-51
9.10087e-51
1.10924e-50
1.32828e-50
1.56732e-50
1.8265e-50
2.10599e-50
2.40603e-50
2.72693e-50
3.06909e-50
3.43305e-50
3.81949e-50
4.22925e-50
4.66337e-50
5.1231e-50
5.6099e-50
6.12547e-50
6.67169e-50
7.25062e-50
7.86445e-50
8.51539e-50
9.2056e-50
9.93708e-50
1.07115e-49
1.15299e-49
1.2393e-49
1.33004e-49
1.42507e-49
1.52417e-49
1.62698e-49
1.73302e-49
1.84168e-49
1.95225e-49
2.06393e-49
2.17582e-49
2.28698e-49
2.39643e-49
2.50323e-49
2.60646e-49
2.70528e-49
2.79894e-49
2.88683e-49
2.96847e-49
3.04352e-49
3.1118e-49
3.1733e-49
3.22809e-49
3.27642e-49
3.3186e-49
3.35503e-49
3.38619e-49
3.41255e-49
3.43464e-49
3.45295e-49
3.468e-49
3.48023e-49
3.49008e-49
3.49793e-49
3.50414e-49
3.50899e-49
3.51276e-49
3.51566e-49
3.51786e-49
3.51953e-49
3.52078e-49
3.5217e-49
3.52239e-49
3.52289e-49
3.52326e-49
3.52352e-49
3.52372e-49
3.52386e-49
3.52397e-49
3.52404e-49
3.5241e-49
3.52415e-49
3.52419e-49
3.52423e-49
3.52426e-49
3.5243e-49
3.52433e-49
3.52436e-49
3.52439e-49
3.52443e-49
3.52447e-49
3.52451e-49
3.52455e-49
3.52459e-49
3.52464e-49
3.52469e-49
3.52474e-49
3.52479e-49
3.52485e-49
3.52491e-49
3.52498e-49
3.52505e-49
3.52512e-49
3.52519e-49
3.52527e-49
3.52535e-49
3.52544e-49
3.52553e-49
3.52562e-49
3.52572e-49
3.52582e-49
3.52592e-49
3.52603e-49
3.52615e-49
3.52627e-49
3.52639e-49
3.52652e-49
3.52665e-49
3.52678e-49
3.5269e-49
3.52695e-49
3.52673e-49
3.52539e-49
3.51965e-49
3.50813e-49
3.50829e-49
3.50845e-49
3.50862e-49
3.5088e-49
3.50901e-49
3.50925e-49
3.50955e-49
3.50991e-49
3.51035e-49
3.51089e-49
3.51155e-49
3.51233e-49
3.51324e-49
3.51428e-49
3.51545e-49
3.51672e-49
3.51806e-49
3.51944e-49
3.52082e-49
3.52215e-49
3.52339e-49
3.5245e-49
3.52544e-49
3.52621e-49
3.52678e-49
3.52717e-49
3.52739e-49
3.52747e-49
3.52745e-49
3.52735e-49
3.52722e-49
3.5271e-49
3.52702e-49
3.52702e-49
3.5271e-49
3.52729e-49
3.52761e-49
3.52804e-49
3.52859e-49
3.52925e-49
3.53e-49
3.53083e-49
3.53172e-49
3.53266e-49
3.53362e-49
3.53458e-49
3.53554e-49
3.53648e-49
3.53738e-49
3.53824e-49
3.53904e-49
3.53979e-49
3.54049e-49
3.54113e-49
3.54171e-49
3.54223e-49
3.5427e-49
3.54312e-49
3.54349e-49
3.54382e-49
3.54411e-49
3.54436e-49
3.54457e-49
3.54475e-49
3.5449e-49
3.54501e-49
3.5451e-49
3.54515e-49
3.54518e-49
3.54517e-49
3.54514e-49
3.54507e-49
3.54497e-49
3.54483e-49
3.54466e-49
3.54446e-49
3.54427e-49
3.5443e-49
3.54581e-49
3.55599e-49
3.61599e-49
3.95833e-49
5.88636e-49
1.66409e-48
7.6094e-48
4.01863e-47
2.17113e-46
1.16952e-45
6.25101e-45
3.31229e-44
1.73971e-43
9.05705e-43
4.6738e-42
2.3908e-41
1.21235e-40
6.09469e-40
3.03773e-39
1.50127e-38
7.35737e-38
3.57596e-37
1.72395e-36
8.24478e-36
3.91225e-35
1.84222e-34
8.61005e-34
3.99495e-33
1.84058e-32
8.42262e-32
3.82914e-31
1.72998e-30
7.76968e-30
3.46997e-29
1.54155e-28
6.81483e-28
2.99898e-27
1.31424e-26
5.73745e-26
2.49611e-25
1.08259e-24
4.6824e-24
2.02031e-23
8.6985e-23
3.73829e-22
1.60405e-21
6.87358e-21
2.95865e-20
1.2684e-19
5.42379e-19
2.31709e-18
9.89399e-18
4.22335e-17
1.80233e-16
7.68984e-16
3.28029e-15
1.39897e-14
5.96473e-14
2.54228e-13
1.08308e-12
4.61155e-12
1.96201e-11
8.33944e-11
3.54044e-10
1.50092e-09
6.35225e-09
2.68307e-08
1.1303e-07
4.73981e-07
1.96474e-06
7.85667e-06
2.80488e-05
7.35297e-05
0.000113852
0.000120846
8.10125e-05
3.79618e-05
1.52481e-05
6.8838e-06
4.62209e-06
4.51421e-06
5.04533e-06
5.7564e-06
6.24553e-06
6.56589e-06
6.7317e-06
6.77618e-06
6.73285e-06
6.62938e-06
6.48663e-06
6.31947e-06
6.13851e-06
5.951e-06
5.76187e-06
5.57445e-06
5.39094e-06
5.21274e-06
5.04072e-06
4.87535e-06
4.71687e-06
4.56531e-06
4.42059e-06
4.28255e-06
4.15098e-06
4.02562e-06
3.90624e-06
3.79259e-06
3.6845e-06
3.58487e-06
3.49116e-06
3.40123e-06
3.31489e-06
3.23197e-06
3.1523e-06
3.07571e-06
3.00207e-06
2.93123e-06
2.86306e-06
2.79742e-06
2.7342e-06
2.67328e-06
2.61455e-06
2.55791e-06
2.50326e-06
2.45052e-06
2.39958e-06
2.35037e-06
2.30281e-06
2.25683e-06
2.21236e-06
2.16932e-06
2.12766e-06
2.08732e-06
2.04824e-06
2.01036e-06
1.97365e-06
1.93804e-06
1.90349e-06
1.86996e-06
1.83741e-06
1.8058e-06
1.77509e-06
1.74524e-06
1.71623e-06
1.68802e-06
1.66058e-06
1.63388e-06
1.60789e-06
1.5826e-06
1.55796e-06
1.53396e-06
1.51058e-06
1.4878e-06
1.46558e-06
1.44392e-06
1.42279e-06
1.40218e-06
1.38207e-06
1.36244e-06
1.34328e-06
1.32457e-06
1.30629e-06
1.28844e-06
1.27099e-06
1.25394e-06
1.23728e-06
1.22099e-06
1.20506e-06
1.18948e-06
1.17424e-06
1.15933e-06
1.14475e-06
1.13047e-06
1.11647e-06
1.10277e-06
1.08934e-06
1.07619e-06
1.06331e-06
1.05068e-06
1.03831e-06
1.02617e-06
1.01428e-06
1.00261e-06
9.91169e-07
9.79944e-07
9.68931e-07
9.58123e-07
9.47516e-07
9.37105e-07
9.26883e-07
9.16846e-07
9.0699e-07
8.97309e-07
8.878e-07
8.78457e-07
8.69277e-07
8.60256e-07
8.51389e-07
8.42673e-07
8.34105e-07
8.25681e-07
8.17397e-07
8.0925e-07
8.01238e-07
7.93356e-07
7.85602e-07
7.77973e-07
7.70467e-07
7.63079e-07
7.55809e-07
7.48652e-07
7.41608e-07
7.34672e-07
7.27842e-07
7.21117e-07
7.14494e-07
7.0797e-07
7.01544e-07
6.95213e-07
6.88974e-07
6.82827e-07
6.76768e-07
6.70795e-07
6.64908e-07
6.59103e-07
6.53378e-07
6.47732e-07
6.42163e-07
6.36669e-07
6.31248e-07
6.25898e-07
6.20617e-07
6.15404e-07
6.10256e-07
6.05172e-07
6.0015e-07
5.95187e-07
5.90283e-07
5.85436e-07
5.80644e-07
5.75903e-07
5.71174e-07
5.66167e-07
5.60342e-07
5.55841e-07
5.51277e-07
5.46715e-07
5.42173e-07
5.37655e-07
5.33159e-07
5.28682e-07
5.24221e-07
5.19774e-07
5.15336e-07
5.10904e-07
5.06476e-07
5.02047e-07
4.97616e-07
4.93178e-07
4.88731e-07
4.84271e-07
4.79797e-07
4.75304e-07
4.70791e-07
4.66255e-07
4.61693e-07
4.57103e-07
4.52484e-07
4.47834e-07
4.43152e-07
4.38435e-07
4.33684e-07
4.28899e-07
4.24079e-07
4.19225e-07
4.14338e-07
4.09419e-07
4.0447e-07
3.99495e-07
3.94495e-07
3.89476e-07
3.84441e-07
3.79395e-07
3.74345e-07
3.69298e-07
3.64261e-07
3.59244e-07
3.54258e-07
3.49319e-07
3.44445e-07
3.39667e-07
3.35032e-07
3.30618e-07
3.26566e-07
3.23139e-07
3.20863e-07
)
;

boundaryField
{
    boundary
    {
        type            empty;
    }
    inlet
    {
        type            fixedValue;
        value           uniform 0;
    }
    outlet
    {
        type            zeroGradient;
    }
}


// ************************************************************************* //
