/*--------------------------------*- C++ -*----------------------------------*\
  =========                 |
  \\      /  F ield         | OpenFOAM: The Open Source CFD Toolbox
   \\    /   O peration     | Website:  https://openfoam.org
    \\  /    A nd           | Version:  7
     \\/     M anipulation  |
\*---------------------------------------------------------------------------*/
FoamFile
{
    version     2.0;
    format      ascii;
    class       volScalarField;
    location    "0.00062";
    object      HO2;
}
// * * * * * * * * * * * * * * * * * * * * * * * * * * * * * * * * * * * * * //

dimensions      [0 0 0 0 0 0 0];

internalField   nonuniform List<scalar> 
500
(
5.57929e-38
1.26842e-37
1.98085e-37
2.69389e-37
3.40776e-37
4.12295e-37
4.83988e-37
5.55881e-37
6.27988e-37
7.00311e-37
7.72846e-37
8.45589e-37
9.1854e-37
9.91706e-37
1.06511e-36
1.13877e-36
1.21276e-36
1.28714e-36
1.362e-36
1.43745e-36
1.51363e-36
1.59072e-36
1.6689e-36
1.74838e-36
1.82941e-36
1.91225e-36
1.99715e-36
2.0844e-36
2.17423e-36
2.26689e-36
2.36257e-36
2.46141e-36
2.56345e-36
2.66869e-36
2.77699e-36
2.88811e-36
3.00169e-36
3.11725e-36
3.23421e-36
3.35188e-36
3.46947e-36
3.58614e-36
3.70103e-36
3.81325e-36
3.92193e-36
4.02627e-36
4.12554e-36
4.21913e-36
4.30651e-36
4.38734e-36
4.46137e-36
4.52851e-36
4.58882e-36
4.64245e-36
4.68967e-36
4.73084e-36
4.76639e-36
4.79677e-36
4.82248e-36
4.84404e-36
4.86193e-36
4.87665e-36
4.88863e-36
4.8983e-36
4.90603e-36
4.91215e-36
4.91696e-36
4.9207e-36
4.92358e-36
4.92578e-36
4.92745e-36
4.92871e-36
4.92965e-36
4.93035e-36
4.93086e-36
4.93123e-36
4.93151e-36
4.93171e-36
4.93186e-36
4.93197e-36
4.93205e-36
4.93211e-36
4.93217e-36
4.93221e-36
4.93225e-36
4.93228e-36
4.93231e-36
4.93235e-36
4.93238e-36
4.93242e-36
4.93245e-36
4.93249e-36
4.93253e-36
4.93257e-36
4.93262e-36
4.93266e-36
4.93271e-36
4.93276e-36
4.93282e-36
4.93288e-36
4.93294e-36
4.933e-36
4.93307e-36
4.93314e-36
4.93322e-36
4.93329e-36
4.93337e-36
4.93346e-36
4.93355e-36
4.93364e-36
4.93374e-36
4.93384e-36
4.93394e-36
4.93405e-36
4.93417e-36
4.93429e-36
4.93441e-36
4.93453e-36
4.93467e-36
4.9348e-36
4.93492e-36
4.935e-36
4.93488e-36
4.93398e-36
4.92997e-36
4.92191e-36
4.92207e-36
4.92222e-36
4.92238e-36
4.92255e-36
4.92274e-36
4.92296e-36
4.92322e-36
4.92354e-36
4.92392e-36
4.92439e-36
4.92494e-36
4.92559e-36
4.92633e-36
4.92717e-36
4.92809e-36
4.92908e-36
4.93011e-36
4.93116e-36
4.93218e-36
4.93316e-36
4.93405e-36
4.93483e-36
4.93549e-36
4.936e-36
4.93637e-36
4.93661e-36
4.93674e-36
4.93677e-36
4.93674e-36
4.93668e-36
4.93661e-36
4.93656e-36
4.93657e-36
4.93664e-36
4.93681e-36
4.93706e-36
4.93742e-36
4.93787e-36
4.93842e-36
4.93904e-36
4.93974e-36
4.94049e-36
4.94129e-36
4.94211e-36
4.94294e-36
4.94377e-36
4.94459e-36
4.94539e-36
4.94615e-36
4.94687e-36
4.94755e-36
4.94819e-36
4.94878e-36
4.94932e-36
4.94981e-36
4.95026e-36
4.95067e-36
4.95104e-36
4.95136e-36
4.95165e-36
4.95191e-36
4.95213e-36
4.95233e-36
4.95249e-36
4.95263e-36
4.95273e-36
4.95281e-36
4.95286e-36
4.95288e-36
4.95288e-36
4.95284e-36
4.95277e-36
4.95268e-36
4.95254e-36
4.95238e-36
4.95218e-36
4.95194e-36
4.95166e-36
4.95135e-36
4.95099e-36
4.95059e-36
4.95014e-36
4.94965e-36
4.94911e-36
4.94853e-36
4.94789e-36
4.94721e-36
4.94653e-36
4.94595e-36
4.94591e-36
4.948e-36
4.95792e-36
4.9961e-36
5.13512e-36
5.63115e-36
7.38206e-36
1.35147e-35
3.48504e-35
1.08618e-34
3.62196e-34
1.22929e-33
4.18045e-33
1.4186e-32
4.80123e-32
1.62194e-31
5.47656e-31
1.8517e-30
6.28363e-30
2.14581e-29
7.39648e-29
2.58166e-28
9.15298e-28
3.30499e-27
1.21767e-26
4.58126e-26
1.75941e-25
6.88747e-25
2.74228e-24
1.10765e-23
4.52673e-23
1.86716e-22
7.75635e-22
3.23921e-21
1.35802e-20
5.70937e-20
2.41818e-19
1.02256e-18
4.32008e-18
1.82552e-17
7.71627e-17
3.26211e-16
1.37909e-15
5.8295e-15
2.46348e-14
1.0406e-13
4.39303e-13
1.85316e-12
7.80982e-12
3.28737e-11
1.38173e-10
5.79758e-10
2.42767e-09
1.01419e-08
4.22503e-08
1.75325e-07
7.2252e-07
2.93878e-06
1.16563e-05
4.37242e-05
0.000144601
0.000358417
0.000515145
0.000486774
0.000382281
0.000275297
0.000193548
0.000135542
9.46798e-05
6.66081e-05
4.82796e-05
3.41787e-05
2.64846e-05
2.14988e-05
1.81704e-05
1.58629e-05
1.41936e-05
1.29336e-05
1.1945e-05
1.11429e-05
1.04739e-05
9.90352e-06
9.40861e-06
8.97321e-06
8.58589e-06
8.23826e-06
7.92394e-06
7.63798e-06
7.37646e-06
7.1362e-06
6.91461e-06
6.70951e-06
6.5191e-06
6.34183e-06
6.17641e-06
6.02176e-06
5.87703e-06
5.74553e-06
5.62324e-06
5.50713e-06
5.39673e-06
5.29164e-06
5.19147e-06
5.09588e-06
5.00457e-06
4.91725e-06
4.83368e-06
4.75362e-06
4.67685e-06
4.60318e-06
4.53243e-06
4.46443e-06
4.39903e-06
4.33608e-06
4.27545e-06
4.21702e-06
4.16067e-06
4.1063e-06
4.05381e-06
4.00311e-06
3.9541e-06
3.90671e-06
3.86086e-06
3.81648e-06
3.77351e-06
3.73188e-06
3.69153e-06
3.6524e-06
3.61445e-06
3.57762e-06
3.54187e-06
3.50716e-06
3.47343e-06
3.44066e-06
3.40881e-06
3.37783e-06
3.34771e-06
3.31839e-06
3.28987e-06
3.2621e-06
3.23505e-06
3.20872e-06
3.18306e-06
3.15805e-06
3.13368e-06
3.10993e-06
3.08676e-06
3.06416e-06
3.04212e-06
3.02062e-06
2.99963e-06
2.97914e-06
2.95914e-06
2.93961e-06
2.92054e-06
2.90191e-06
2.88371e-06
2.86593e-06
2.84856e-06
2.8316e-06
2.81504e-06
2.79884e-06
2.78293e-06
2.76736e-06
2.75213e-06
2.73722e-06
2.72262e-06
2.70831e-06
2.6943e-06
2.68057e-06
2.66712e-06
2.65392e-06
2.64099e-06
2.6283e-06
2.61585e-06
2.60364e-06
2.59165e-06
2.57989e-06
2.56833e-06
2.55698e-06
2.54583e-06
2.53488e-06
2.52411e-06
2.51353e-06
2.50313e-06
2.4929e-06
2.48284e-06
2.47294e-06
2.4632e-06
2.45362e-06
2.44419e-06
2.43491e-06
2.42576e-06
2.41676e-06
2.40789e-06
2.39916e-06
2.39055e-06
2.38206e-06
2.3737e-06
2.36545e-06
2.35732e-06
2.34929e-06
2.34137e-06
2.33354e-06
2.32582e-06
2.31818e-06
2.31064e-06
2.30318e-06
2.29579e-06
2.28848e-06
2.28124e-06
2.27406e-06
2.26694e-06
2.25987e-06
2.25285e-06
2.24586e-06
2.23891e-06
2.23199e-06
2.22509e-06
2.21819e-06
2.21131e-06
2.20441e-06
2.19751e-06
2.19058e-06
2.18363e-06
2.17664e-06
2.1696e-06
2.16251e-06
2.15538e-06
2.14821e-06
2.14096e-06
2.13228e-06
2.12255e-06
2.11488e-06
2.10692e-06
2.09874e-06
2.09036e-06
2.08178e-06
2.07298e-06
2.06395e-06
2.05468e-06
2.04516e-06
2.03537e-06
2.02532e-06
2.01498e-06
2.00436e-06
1.99343e-06
1.98221e-06
1.97068e-06
1.95884e-06
1.94669e-06
1.93424e-06
1.92149e-06
1.90844e-06
1.89511e-06
1.8815e-06
1.86764e-06
1.85352e-06
1.83919e-06
1.82464e-06
1.80992e-06
1.79505e-06
1.78005e-06
1.76495e-06
1.7498e-06
1.73462e-06
1.71946e-06
1.70435e-06
1.68933e-06
1.67445e-06
1.65974e-06
1.64526e-06
1.63104e-06
1.61713e-06
1.60357e-06
1.59041e-06
1.5777e-06
1.56548e-06
1.5538e-06
1.54271e-06
1.5323e-06
1.52266e-06
1.51398e-06
1.50666e-06
1.50166e-06
)
;

boundaryField
{
    boundary
    {
        type            empty;
    }
    inlet
    {
        type            fixedValue;
        value           uniform 0;
    }
    outlet
    {
        type            zeroGradient;
    }
}


// ************************************************************************* //
