/*--------------------------------*- C++ -*----------------------------------*\
  =========                 |
  \\      /  F ield         | OpenFOAM: The Open Source CFD Toolbox
   \\    /   O peration     | Website:  https://openfoam.org
    \\  /    A nd           | Version:  7
     \\/     M anipulation  |
\*---------------------------------------------------------------------------*/
FoamFile
{
    version     2.0;
    format      ascii;
    class       volScalarField;
    location    "0.00062";
    object      O;
}
// * * * * * * * * * * * * * * * * * * * * * * * * * * * * * * * * * * * * * //

dimensions      [0 0 0 0 0 0 0];

internalField   nonuniform List<scalar> 
500
(
1.57155e-47
3.74474e-47
5.92773e-47
8.11196e-47
1.02975e-46
1.24861e-46
1.46793e-46
1.68781e-46
1.90831e-46
2.12946e-46
2.35128e-46
2.57376e-46
2.79695e-46
3.0209e-46
3.24573e-46
3.47161e-46
3.69879e-46
3.92759e-46
4.15842e-46
4.39176e-46
4.62823e-46
4.86849e-46
5.11335e-46
5.36366e-46
5.62039e-46
5.88453e-46
6.15711e-46
6.43919e-46
6.73175e-46
7.0357e-46
7.35183e-46
7.68072e-46
8.02272e-46
8.37789e-46
8.74595e-46
9.12624e-46
9.51773e-46
9.91897e-46
1.03281e-45
1.07429e-45
1.11609e-45
1.15792e-45
1.19948e-45
1.24047e-45
1.28058e-45
1.31949e-45
1.35693e-45
1.39265e-45
1.42641e-45
1.45805e-45
1.48742e-45
1.51443e-45
1.53905e-45
1.56128e-45
1.58116e-45
1.59877e-45
1.61422e-45
1.62766e-45
1.63923e-45
1.6491e-45
1.65745e-45
1.66444e-45
1.67025e-45
1.67502e-45
1.67891e-45
1.68205e-45
1.68457e-45
1.68656e-45
1.68814e-45
1.68936e-45
1.69031e-45
1.69104e-45
1.69159e-45
1.69201e-45
1.69233e-45
1.69256e-45
1.69274e-45
1.69287e-45
1.69296e-45
1.69303e-45
1.69309e-45
1.69313e-45
1.69316e-45
1.69318e-45
1.6932e-45
1.69322e-45
1.69324e-45
1.69325e-45
1.69327e-45
1.69329e-45
1.6933e-45
1.69332e-45
1.69334e-45
1.69336e-45
1.69337e-45
1.6934e-45
1.69342e-45
1.69344e-45
1.69346e-45
1.69349e-45
1.69352e-45
1.69355e-45
1.69358e-45
1.69361e-45
1.69364e-45
1.69367e-45
1.69371e-45
1.69375e-45
1.69379e-45
1.69383e-45
1.69387e-45
1.69391e-45
1.69396e-45
1.69401e-45
1.69406e-45
1.69411e-45
1.69417e-45
1.69422e-45
1.69428e-45
1.69433e-45
1.69436e-45
1.69435e-45
1.69419e-45
1.69361e-45
1.69177e-45
1.68908e-45
1.68917e-45
1.68927e-45
1.68939e-45
1.68953e-45
1.68971e-45
1.68992e-45
1.69018e-45
1.69049e-45
1.69085e-45
1.69126e-45
1.6917e-45
1.69219e-45
1.69269e-45
1.69321e-45
1.69371e-45
1.6942e-45
1.69466e-45
1.69508e-45
1.69546e-45
1.69579e-45
1.69608e-45
1.69632e-45
1.69653e-45
1.6967e-45
1.69685e-45
1.69698e-45
1.69709e-45
1.69719e-45
1.69728e-45
1.69737e-45
1.69746e-45
1.69755e-45
1.69764e-45
1.69773e-45
1.69783e-45
1.69794e-45
1.69805e-45
1.69818e-45
1.69831e-45
1.69846e-45
1.69861e-45
1.69877e-45
1.69895e-45
1.69912e-45
1.69931e-45
1.6995e-45
1.69969e-45
1.69989e-45
1.70008e-45
1.70027e-45
1.70046e-45
1.70064e-45
1.70082e-45
1.70099e-45
1.70115e-45
1.7013e-45
1.70145e-45
1.70158e-45
1.7017e-45
1.70181e-45
1.70191e-45
1.702e-45
1.70208e-45
1.70214e-45
1.7022e-45
1.70224e-45
1.70228e-45
1.7023e-45
1.70233e-45
1.70242e-45
1.70281e-45
1.70445e-45
1.7113e-45
1.73939e-45
1.85344e-45
2.31265e-45
4.14751e-45
1.14248e-44
4.00749e-44
1.5204e-43
5.8638e-43
2.25887e-42
8.65154e-42
3.29055e-41
1.24246e-40
4.65697e-40
1.73271e-39
6.39958e-39
2.34633e-38
8.53978e-38
3.0856e-37
1.10683e-36
3.94175e-36
1.39375e-35
4.89325e-35
1.70589e-34
5.90584e-34
2.0306e-33
6.93463e-33
2.35249e-32
7.9285e-32
2.65508e-31
8.83598e-31
2.92282e-30
9.61178e-30
3.14307e-29
1.02224e-28
3.30755e-28
1.06495e-27
3.41302e-27
1.08907e-26
3.46102e-26
1.09574e-25
3.45687e-25
1.08707e-24
3.40836e-24
1.06577e-23
3.32447e-23
1.03473e-22
3.21422e-22
9.96709e-22
3.08597e-21
9.54184e-21
2.9469e-20
9.09209e-20
2.81449e-19
8.69259e-19
2.67855e-18
8.24577e-18
2.53715e-17
7.8041e-17
2.39991e-16
7.37866e-16
2.26815e-15
6.97057e-15
2.14165e-14
6.57782e-14
2.01942e-13
6.19629e-13
1.89991e-12
5.82058e-12
1.7814e-11
5.44581e-11
1.66278e-10
5.07124e-10
1.54579e-09
4.72135e-09
1.46021e-08
4.75484e-08
1.82309e-07
9.66227e-07
6.6454e-06
3.96038e-05
0.0001763
0.00062222
0.00156926
0.00288691
0.00420966
0.0052499
0.00593269
0.00630531
0.00643631
0.00643325
0.00635003
0.00622162
0.00607001
0.00590857
0.00574519
0.00558437
0.00542856
0.00527898
0.00513615
0.00500016
0.00487086
0.00474798
0.00463119
0.00452015
0.00441448
0.00431385
0.00421794
0.00412643
0.00403904
0.00395551
0.00387561
0.00379913
0.0037259
0.00365789
0.00359366
0.0035316
0.00347159
0.00341352
0.00335729
0.00330281
0.00324999
0.00319877
0.00314906
0.00310079
0.00305392
0.00300836
0.00296407
0.002921
0.00287909
0.00283829
0.00279856
0.00275986
0.00272214
0.00268538
0.00264952
0.00261455
0.00258041
0.0025471
0.00251456
0.00248279
0.00245174
0.0024214
0.00239174
0.00236274
0.00233437
0.00230662
0.00227947
0.00225289
0.00222687
0.00220139
0.00217643
0.00215199
0.00212803
0.00210456
0.00208155
0.002059
0.00203688
0.00201519
0.00199391
0.00197304
0.00195256
0.00193246
0.00191274
0.00189337
0.00187436
0.0018557
0.00183737
0.00181936
0.00180168
0.0017843
0.00176723
0.00175046
0.00173397
0.00171777
0.00170185
0.00168621
0.00167084
0.00165572
0.00164079
0.00162611
0.00161165
0.00159743
0.00158343
0.00156964
0.00155606
0.00154269
0.00152952
0.00151654
0.00150376
0.00149116
0.00147874
0.0014665
0.00145443
0.00144253
0.00143079
0.00141922
0.00140781
0.00139655
0.00138544
0.00137449
0.00136367
0.001353
0.00134248
0.00133208
0.00132183
0.0013117
0.00130171
0.00129184
0.0012821
0.00127248
0.00126298
0.00125361
0.00124434
0.0012352
0.00122616
0.00121724
0.00120842
0.00119971
0.0011911
0.0011826
0.0011742
0.00116589
0.00115768
0.00114956
0.00114153
0.00113359
0.00112574
0.00111797
0.00111029
0.00110268
0.00109514
0.00108769
0.0010803
0.00107298
0.00106572
0.00105853
0.00105139
0.00104431
0.00103728
0.00103031
0.00102337
0.00101648
0.00100962
0.0010028
0.000996017
0.000989258
0.000982477
0.000975191
0.000966984
0.000960296
0.000953516
0.000946695
0.000939849
0.000932979
0.000926081
0.000919151
0.000912184
0.000905175
0.000898119
0.000891013
0.000883851
0.000876631
0.000869348
0.000862001
0.000854587
0.000847105
0.000839553
0.00083193
0.000824238
0.000816477
0.000808648
0.000800754
0.000792798
0.000784784
0.000776716
0.000768601
0.000760445
0.000752254
0.000744037
0.000735801
0.000727557
0.000719315
0.000711085
0.000702878
0.000694707
0.000686583
0.00067852
0.000670532
0.000662632
0.000654836
0.00064716
0.000639622
0.000632242
0.000625045
0.000618064
0.000611343
0.000604951
0.000598997
0.000593664
0.000589284
0.000586476
)
;

boundaryField
{
    boundary
    {
        type            empty;
    }
    inlet
    {
        type            fixedValue;
        value           uniform 0;
    }
    outlet
    {
        type            zeroGradient;
    }
}


// ************************************************************************* //
