/*--------------------------------*- C++ -*----------------------------------*\
  =========                 |
  \\      /  F ield         | OpenFOAM: The Open Source CFD Toolbox
   \\    /   O peration     | Website:  https://openfoam.org
    \\  /    A nd           | Version:  7
     \\/     M anipulation  |
\*---------------------------------------------------------------------------*/
FoamFile
{
    version     2.0;
    format      ascii;
    class       volScalarField;
    location    "0.00062";
    object      OH;
}
// * * * * * * * * * * * * * * * * * * * * * * * * * * * * * * * * * * * * * //

dimensions      [0 0 0 0 0 0 0];

internalField   nonuniform List<scalar> 
500
(
9.34874e-48
1.81816e-47
2.41906e-47
2.82379e-47
3.09604e-47
3.27978e-47
3.4047e-47
3.49068e-47
3.55097e-47
3.59435e-47
3.62662e-47
3.65164e-47
3.67194e-47
3.68921e-47
3.70461e-47
3.71895e-47
3.73281e-47
3.74668e-47
3.76094e-47
3.77596e-47
3.79211e-47
3.80975e-47
3.82927e-47
3.85108e-47
3.87562e-47
3.90333e-47
3.9347e-47
3.9702e-47
4.01031e-47
4.05549e-47
4.10619e-47
4.16278e-47
4.2256e-47
4.29488e-47
4.37076e-47
4.45326e-47
4.54226e-47
4.63752e-47
4.73862e-47
4.84499e-47
4.95591e-47
5.07052e-47
5.18783e-47
5.30675e-47
5.42612e-47
5.54476e-47
5.66146e-47
5.77509e-47
5.88457e-47
5.98896e-47
6.08744e-47
6.17938e-47
6.2643e-47
6.34191e-47
6.41211e-47
6.47494e-47
6.53061e-47
6.57942e-47
6.6218e-47
6.65822e-47
6.68922e-47
6.71535e-47
6.73717e-47
6.75522e-47
6.77001e-47
6.78202e-47
6.7917e-47
6.79942e-47
6.80552e-47
6.81032e-47
6.81405e-47
6.81693e-47
6.81914e-47
6.82082e-47
6.8221e-47
6.82306e-47
6.82378e-47
6.82431e-47
6.82472e-47
6.82502e-47
6.82526e-47
6.82544e-47
6.82558e-47
6.8257e-47
6.8258e-47
6.82589e-47
6.82598e-47
6.82605e-47
6.82613e-47
6.82621e-47
6.82629e-47
6.82638e-47
6.82646e-47
6.82655e-47
6.82664e-47
6.82674e-47
6.82685e-47
6.82695e-47
6.82707e-47
6.82718e-47
6.82731e-47
6.82744e-47
6.82757e-47
6.82771e-47
6.82786e-47
6.82801e-47
6.82817e-47
6.82834e-47
6.82851e-47
6.82869e-47
6.82888e-47
6.82907e-47
6.82927e-47
6.82948e-47
6.8297e-47
6.82993e-47
6.83016e-47
6.8304e-47
6.83065e-47
6.83091e-47
6.83118e-47
6.83148e-47
6.83182e-47
6.83232e-47
6.83325e-47
6.83444e-47
6.83449e-47
6.8345e-47
6.83448e-47
6.83445e-47
6.83442e-47
6.83442e-47
6.83449e-47
6.83463e-47
6.83487e-47
6.83519e-47
6.83559e-47
6.83606e-47
6.83658e-47
6.83713e-47
6.8377e-47
6.83827e-47
6.83885e-47
6.83942e-47
6.83997e-47
6.84052e-47
6.84106e-47
6.84159e-47
6.84211e-47
6.84262e-47
6.84313e-47
6.84364e-47
6.84415e-47
6.84467e-47
6.84518e-47
6.8457e-47
6.84623e-47
6.84676e-47
6.8473e-47
6.84784e-47
6.84839e-47
6.84895e-47
6.84952e-47
6.8501e-47
6.85069e-47
6.85128e-47
6.85188e-47
6.85249e-47
6.8531e-47
6.85372e-47
6.85433e-47
6.85495e-47
6.85556e-47
6.85617e-47
6.85677e-47
6.85736e-47
6.85794e-47
6.8585e-47
6.85905e-47
6.85958e-47
6.86009e-47
6.86057e-47
6.86104e-47
6.86148e-47
6.86189e-47
6.86227e-47
6.86262e-47
6.86294e-47
6.86323e-47
6.86348e-47
6.86369e-47
6.86387e-47
6.864e-47
6.86409e-47
6.86414e-47
6.86416e-47
6.86418e-47
6.86437e-47
6.86541e-47
6.8701e-47
6.8897e-47
6.96936e-47
7.28869e-47
8.55682e-47
1.35529e-46
3.30875e-46
1.08902e-45
4.00967e-45
1.51779e-44
5.75685e-44
2.17279e-43
8.14559e-43
3.03178e-42
1.12019e-41
4.10865e-41
1.49599e-40
5.40737e-40
1.9404e-39
6.91291e-39
2.44521e-38
8.58782e-38
2.99494e-37
1.03721e-36
3.56742e-36
1.2187e-35
4.13561e-35
1.39425e-34
4.67048e-34
1.5548e-33
5.14469e-33
1.6924e-32
5.53609e-32
1.80122e-31
5.83058e-31
1.8783e-30
6.02372e-30
1.92381e-29
6.12106e-29
1.94109e-28
6.13818e-28
1.93674e-27
6.10198e-27
1.92157e-26
6.05589e-26
1.91328e-25
6.07367e-25
1.94323e-24
6.29108e-24
2.07112e-23
6.97383e-23
2.41626e-22
8.702e-22
3.24547e-21
1.2556e-20
5.03468e-20
2.08368e-19
8.85061e-19
3.83585e-18
1.68739e-17
7.5018e-17
3.35946e-16
1.51171e-15
6.82351e-15
3.08575e-14
1.39692e-13
6.32711e-13
2.86623e-12
1.29837e-11
5.88079e-11
2.67515e-10
1.23238e-09
5.72757e-09
2.67967e-08
1.27667e-07
6.45575e-07
3.75607e-06
2.54183e-05
0.000154263
0.00049794
0.000774065
0.000926488
0.00124105
0.00195003
0.00307992
0.00444004
0.0057934
0.00715015
0.0081499
0.00893833
0.00955389
0.0100337
0.0104099
0.0107072
0.0109444
0.0111352
0.0112895
0.0114148
0.0115168
0.0115996
0.0116664
0.01172
0.0117623
0.011795
0.0118195
0.0118369
0.0118481
0.011854
0.0118553
0.0118524
0.0118459
0.0118363
0.0118238
0.0118095
0.0117935
0.0117758
0.0117566
0.0117359
0.0117139
0.0116908
0.0116665
0.0116414
0.0116154
0.0115885
0.011561
0.0115329
0.0115042
0.011475
0.0114453
0.0114153
0.0113849
0.0113541
0.0113231
0.0112919
0.0112604
0.0112288
0.011197
0.0111651
0.011133
0.0111009
0.0110687
0.0110365
0.0110042
0.0109719
0.0109396
0.0109074
0.0108751
0.0108429
0.0108107
0.0107786
0.0107466
0.0107146
0.0106827
0.0106509
0.0106193
0.0105877
0.0105562
0.0105249
0.0104936
0.0104625
0.0104316
0.0104008
0.0103701
0.0103396
0.0103092
0.010279
0.0102489
0.010219
0.0101892
0.0101597
0.0101302
0.010101
0.0100719
0.0100431
0.0100144
0.00998586
0.00995759
0.00992945
0.00990132
0.00987335
0.00984554
0.00981788
0.00979038
0.00976302
0.00973582
0.00970876
0.00968184
0.00965507
0.00962844
0.00960195
0.00957559
0.00954937
0.00952328
0.00949732
0.00947149
0.00944579
0.00942022
0.00939478
0.00936946
0.00934427
0.00931921
0.00929427
0.00926945
0.00924476
0.0092202
0.00919576
0.00917145
0.00914726
0.00912319
0.00909925
0.00907544
0.00905175
0.00902819
0.00900474
0.00898142
0.00895823
0.00893515
0.0089122
0.00888936
0.00886664
0.00884403
0.00882153
0.00879915
0.00877687
0.00875469
0.00873261
0.00871062
0.00868872
0.0086669
0.00864517
0.0086235
0.00860189
0.00858034
0.00855883
0.00853736
0.00851592
0.00849449
0.00847307
0.00845164
0.00843019
0.00840871
0.00838717
0.00836557
0.00834388
0.0083221
0.00830024
0.00827821
0.00825433
0.00822718
0.00820474
0.00818172
0.00815831
0.00813457
0.00811049
0.00808605
0.00806125
0.00803604
0.00801041
0.00798433
0.00795779
0.00793075
0.00790321
0.00787515
0.00784655
0.00781741
0.00778771
0.00775744
0.00772662
0.00769524
0.00766331
0.00763083
0.00759783
0.00756432
0.00753033
0.00749588
0.00746101
0.00742576
0.00739018
0.0073543
0.00731819
0.0072819
0.00724549
0.00720903
0.0071726
0.00713626
0.0071001
0.00706419
0.00702863
0.00699349
0.00695889
0.0069249
0.00689165
0.00685926
0.00682787
0.00679766
0.00676886
0.0067418
0.00671698
0.00669518
0.00667767
0.00666667
)
;

boundaryField
{
    boundary
    {
        type            empty;
    }
    inlet
    {
        type            fixedValue;
        value           uniform 0;
    }
    outlet
    {
        type            zeroGradient;
    }
}


// ************************************************************************* //
