/*--------------------------------*- C++ -*----------------------------------*\
  =========                 |
  \\      /  F ield         | OpenFOAM: The Open Source CFD Toolbox
   \\    /   O peration     | Website:  https://openfoam.org
    \\  /    A nd           | Version:  7
     \\/     M anipulation  |
\*---------------------------------------------------------------------------*/
FoamFile
{
    version     2.0;
    format      ascii;
    class       volScalarField;
    location    "0.00062";
    object      Qdot;
}
// * * * * * * * * * * * * * * * * * * * * * * * * * * * * * * * * * * * * * //

dimensions      [1 -1 -3 0 0 0 0];

internalField   nonuniform List<scalar> 
500
(
-2.44815e-27
-1.85387e-27
-1.72267e-27
-1.69183e-27
-1.68321e-27
-1.68001e-27
-1.67858e-27
-1.67809e-27
-1.67828e-27
-1.67904e-27
-1.68026e-27
-1.68185e-27
-1.68375e-27
-1.6859e-27
-1.68827e-27
-1.69086e-27
-1.69368e-27
-1.69676e-27
-1.70017e-27
-1.70397e-27
-1.70825e-27
-1.71311e-27
-1.71867e-27
-1.72507e-27
-1.73244e-27
-1.74093e-27
-1.75072e-27
-1.76194e-27
-1.77478e-27
-1.78937e-27
-1.80585e-27
-1.82436e-27
-1.84499e-27
-1.86781e-27
-1.89285e-27
-1.9201e-27
-1.94951e-27
-1.98097e-27
-2.01434e-27
-2.0494e-27
-2.08589e-27
-2.12353e-27
-2.16196e-27
-2.20083e-27
-2.23975e-27
-2.27832e-27
-2.31615e-27
-2.35288e-27
-2.38816e-27
-2.42171e-27
-2.45325e-27
-2.48262e-27
-2.50966e-27
-2.5343e-27
-2.55653e-27
-2.57637e-27
-2.5939e-27
-2.60923e-27
-2.6225e-27
-2.63389e-27
-2.64355e-27
-2.65169e-27
-2.65846e-27
-2.66406e-27
-2.66863e-27
-2.67234e-27
-2.67533e-27
-2.6777e-27
-2.67958e-27
-2.68105e-27
-2.6822e-27
-2.68308e-27
-2.68376e-27
-2.68428e-27
-2.68467e-27
-2.68496e-27
-2.68518e-27
-2.68535e-27
-2.68547e-27
-2.68557e-27
-2.68564e-27
-2.6857e-27
-2.68575e-27
-2.68579e-27
-2.68582e-27
-2.68585e-27
-2.68588e-27
-2.68591e-27
-2.68594e-27
-2.68597e-27
-2.68599e-27
-2.68602e-27
-2.68605e-27
-2.68609e-27
-2.68612e-27
-2.68615e-27
-2.68619e-27
-2.68623e-27
-2.68627e-27
-2.68631e-27
-2.68635e-27
-2.68639e-27
-2.68644e-27
-2.68649e-27
-2.68654e-27
-2.68659e-27
-2.68664e-27
-2.6867e-27
-2.68676e-27
-2.68682e-27
-2.68688e-27
-2.68695e-27
-2.68701e-27
-2.68708e-27
-2.68716e-27
-2.68723e-27
-2.68731e-27
-2.68739e-27
-2.68747e-27
-2.68756e-27
-2.68765e-27
-2.68775e-27
-2.68787e-27
-2.68805e-27
-2.68844e-27
-2.68907e-27
-2.68909e-27
-2.68909e-27
-2.68908e-27
-2.68907e-27
-2.68905e-27
-2.68903e-27
-2.68904e-27
-2.68907e-27
-2.68913e-27
-2.68922e-27
-2.68933e-27
-2.68946e-27
-2.68961e-27
-2.68977e-27
-2.68993e-27
-2.6901e-27
-2.69026e-27
-2.69043e-27
-2.6906e-27
-2.69076e-27
-2.69093e-27
-2.69109e-27
-2.69125e-27
-2.69142e-27
-2.69158e-27
-2.69175e-27
-2.69192e-27
-2.69208e-27
-2.69225e-27
-2.69243e-27
-2.6926e-27
-2.69277e-27
-2.69295e-27
-2.69313e-27
-2.69331e-27
-2.6935e-27
-2.69368e-27
-2.69387e-27
-2.69406e-27
-2.69425e-27
-2.69445e-27
-2.69465e-27
-2.69484e-27
-2.69504e-27
-2.69524e-27
-2.69544e-27
-2.69563e-27
-2.69583e-27
-2.69602e-27
-2.69621e-27
-2.69639e-27
-2.69657e-27
-2.69675e-27
-2.69692e-27
-2.69708e-27
-2.69724e-27
-2.69739e-27
-2.69753e-27
-2.69766e-27
-2.69779e-27
-2.6979e-27
-2.69801e-27
-2.69811e-27
-2.69819e-27
-2.69826e-27
-2.69832e-27
-2.69837e-27
-2.6984e-27
-2.69842e-27
-2.69843e-27
-2.69842e-27
-2.69839e-27
-2.69835e-27
-2.69829e-27
-2.69821e-27
-2.69811e-27
-2.69799e-27
-2.69785e-27
-2.69769e-27
-2.69751e-27
-2.6973e-27
-2.69706e-27
-2.69679e-27
-2.69646e-27
-2.69596e-27
-2.69492e-27
-2.69192e-27
-2.68185e-27
-2.64604e-27
-2.51718e-27
-2.05406e-27
-3.98812e-28
5.4778e-27
2.61958e-26
9.87231e-26
3.50843e-25
1.22119e-24
4.20519e-24
1.4367e-23
4.87431e-23
1.64279e-22
5.50131e-22
1.8308e-21
6.05605e-21
1.99158e-20
6.51272e-20
2.1183e-19
6.85465e-19
2.20738e-18
7.07603e-18
2.25873e-17
7.18199e-17
2.27559e-16
7.18763e-16
2.26424e-15
7.11765e-15
2.23417e-14
7.00849e-14
2.19954e-13
6.91627e-13
2.1832e-12
6.93649e-12
2.22602e-11
7.24766e-11
2.4071e-10
8.24128e-10
2.90543e-09
1.06031e-08
4.01948e-08
1.58209e-07
6.44385e-07
2.70176e-06
1.15928e-05
5.06254e-05
0.000223968
0.00100021
0.00449811
0.0203414
0.0924549
0.422559
1.9451
9.04442
43.5342
228.759
1414.34
10032.4
78279.3
695415
6.56351e+06
6.18133e+07
5.15566e+08
2.88181e+09
8.30773e+09
1.26656e+10
1.38166e+10
1.39149e+10
1.39003e+10
1.3351e+10
1.20011e+10
1.01184e+10
8.18206e+09
6.66042e+09
5.53878e+09
4.68192e+09
4.02592e+09
3.51519e+09
3.10962e+09
2.78115e+09
2.51023e+09
2.28322e+09
2.09033e+09
1.92447e+09
1.7804e+09
1.65415e+09
1.54266e+09
1.44355e+09
1.35491e+09
1.27522e+09
1.20323e+09
1.13794e+09
1.07847e+09
1.02412e+09
9.74289e+08
9.28472e+08
8.86252e+08
8.47326e+08
8.12305e+08
7.80251e+08
7.50109e+08
7.21826e+08
6.95217e+08
6.70148e+08
6.46483e+08
6.24119e+08
6.02958e+08
5.82909e+08
5.63892e+08
5.45834e+08
5.28669e+08
5.12335e+08
4.96778e+08
4.81946e+08
4.67793e+08
4.54278e+08
4.41358e+08
4.28999e+08
4.17168e+08
4.05833e+08
3.94966e+08
3.8454e+08
3.74531e+08
3.64916e+08
3.55673e+08
3.46783e+08
3.38227e+08
3.29988e+08
3.2205e+08
3.14398e+08
3.07017e+08
2.99895e+08
2.93018e+08
2.86377e+08
2.79959e+08
2.73754e+08
2.67752e+08
2.61945e+08
2.56323e+08
2.50879e+08
2.45606e+08
2.40494e+08
2.35539e+08
2.30733e+08
2.2607e+08
2.21545e+08
2.17152e+08
2.12885e+08
2.0874e+08
2.04712e+08
2.00797e+08
1.96989e+08
1.93286e+08
1.89683e+08
1.86177e+08
1.82764e+08
1.79441e+08
1.76204e+08
1.73051e+08
1.69979e+08
1.66988e+08
1.64073e+08
1.6123e+08
1.58453e+08
1.55741e+08
1.53095e+08
1.50512e+08
1.47991e+08
1.45529e+08
1.43123e+08
1.40773e+08
1.38477e+08
1.36233e+08
1.34039e+08
1.31894e+08
1.29796e+08
1.27744e+08
1.25736e+08
1.23772e+08
1.21849e+08
1.19968e+08
1.18126e+08
1.16322e+08
1.14556e+08
1.12826e+08
1.11131e+08
1.0947e+08
1.07843e+08
1.06249e+08
1.04686e+08
1.03154e+08
1.01652e+08
1.00179e+08
9.87352e+07
9.73189e+07
9.59297e+07
9.45669e+07
9.32299e+07
9.19179e+07
9.06307e+07
8.93674e+07
8.81276e+07
8.69105e+07
8.57158e+07
8.45429e+07
8.33913e+07
8.22605e+07
8.11501e+07
8.00595e+07
7.89884e+07
7.79363e+07
7.69027e+07
7.58873e+07
7.48897e+07
7.39095e+07
7.29468e+07
7.19999e+07
7.10696e+07
7.01553e+07
6.92566e+07
6.83732e+07
6.75048e+07
6.66511e+07
6.58118e+07
6.49865e+07
6.41752e+07
6.33778e+07
6.2595e+07
6.18297e+07
6.10891e+07
6.04166e+07
5.98487e+07
5.8538e+07
5.78458e+07
5.7197e+07
5.65221e+07
5.58419e+07
5.51658e+07
5.44956e+07
5.38325e+07
5.31769e+07
5.25281e+07
5.1887e+07
5.12525e+07
5.06244e+07
5.00023e+07
4.93857e+07
4.87742e+07
4.81675e+07
4.7565e+07
4.69663e+07
4.63709e+07
4.57785e+07
4.51886e+07
4.46006e+07
4.40142e+07
4.3429e+07
4.28444e+07
4.226e+07
4.16754e+07
4.10903e+07
4.05041e+07
3.99166e+07
3.93273e+07
3.87359e+07
3.81422e+07
3.75459e+07
3.69466e+07
3.63444e+07
3.57389e+07
3.51303e+07
3.45182e+07
3.39028e+07
3.32841e+07
3.26623e+07
3.20374e+07
3.14096e+07
3.07788e+07
3.0145e+07
2.95072e+07
2.88644e+07
2.82146e+07
2.75542e+07
2.68827e+07
2.62195e+07
2.56871e+07
)
;

boundaryField
{
    boundary
    {
        type            empty;
    }
    inlet
    {
        type            calculated;
        value           uniform 0;
    }
    outlet
    {
        type            calculated;
        value           uniform 0;
    }
}


// ************************************************************************* //
