/*--------------------------------*- C++ -*----------------------------------*\
  =========                 |
  \\      /  F ield         | OpenFOAM: The Open Source CFD Toolbox
   \\    /   O peration     | Website:  https://openfoam.org
    \\  /    A nd           | Version:  7
     \\/     M anipulation  |
\*---------------------------------------------------------------------------*/
FoamFile
{
    version     2.0;
    format      ascii;
    class       volVectorField;
    location    "0.00062";
    object      U;
}
// * * * * * * * * * * * * * * * * * * * * * * * * * * * * * * * * * * * * * //

dimensions      [0 1 -1 0 0 0 0];

internalField   nonuniform List<vector> 
500
(
(2.34897 0 0)
(2.34915 0 0)
(2.34936 0 0)
(2.34956 0 0)
(2.34974 0 0)
(2.34992 0 0)
(2.35011 0 0)
(2.3503 0 0)
(2.35048 0 0)
(2.35066 0 0)
(2.35084 0 0)
(2.35102 0 0)
(2.3512 0 0)
(2.35138 0 0)
(2.35156 0 0)
(2.35173 0 0)
(2.35191 0 0)
(2.35209 0 0)
(2.35227 0 0)
(2.35245 0 0)
(2.35263 0 0)
(2.35282 0 0)
(2.353 0 0)
(2.35319 0 0)
(2.35338 0 0)
(2.35358 0 0)
(2.35377 0 0)
(2.35397 0 0)
(2.35417 0 0)
(2.35437 0 0)
(2.35457 0 0)
(2.35477 0 0)
(2.35498 0 0)
(2.35518 0 0)
(2.35538 0 0)
(2.35558 0 0)
(2.35578 0 0)
(2.35598 0 0)
(2.35617 0 0)
(2.35636 0 0)
(2.35654 0 0)
(2.35672 0 0)
(2.35689 0 0)
(2.35706 0 0)
(2.35722 0 0)
(2.35738 0 0)
(2.35754 0 0)
(2.35769 0 0)
(2.35783 0 0)
(2.35798 0 0)
(2.35812 0 0)
(2.35827 0 0)
(2.35841 0 0)
(2.35855 0 0)
(2.3587 0 0)
(2.35884 0 0)
(2.35899 0 0)
(2.35914 0 0)
(2.35929 0 0)
(2.35944 0 0)
(2.35959 0 0)
(2.35975 0 0)
(2.35991 0 0)
(2.36007 0 0)
(2.36023 0 0)
(2.3604 0 0)
(2.36056 0 0)
(2.36073 0 0)
(2.3609 0 0)
(2.36107 0 0)
(2.36124 0 0)
(2.36141 0 0)
(2.36158 0 0)
(2.36175 0 0)
(2.36192 0 0)
(2.36209 0 0)
(2.36226 0 0)
(2.36244 0 0)
(2.36261 0 0)
(2.36278 0 0)
(2.36295 0 0)
(2.36313 0 0)
(2.3633 0 0)
(2.36347 0 0)
(2.36364 0 0)
(2.36382 0 0)
(2.36399 0 0)
(2.36416 0 0)
(2.36433 0 0)
(2.36451 0 0)
(2.36468 0 0)
(2.36485 0 0)
(2.36502 0 0)
(2.3652 0 0)
(2.36537 0 0)
(2.36554 0 0)
(2.36571 0 0)
(2.36589 0 0)
(2.36606 0 0)
(2.36623 0 0)
(2.3664 0 0)
(2.36657 0 0)
(2.36675 0 0)
(2.36692 0 0)
(2.36709 0 0)
(2.36726 0 0)
(2.36743 0 0)
(2.36761 0 0)
(2.36778 0 0)
(2.36795 0 0)
(2.36812 0 0)
(2.36829 0 0)
(2.36847 0 0)
(2.36864 0 0)
(2.36881 0 0)
(2.36898 0 0)
(2.36915 0 0)
(2.36933 0 0)
(2.3695 0 0)
(2.36967 0 0)
(2.36984 0 0)
(2.37001 0 0)
(2.37019 0 0)
(2.37036 0 0)
(2.37055 0 0)
(2.37073 0 0)
(2.37088 0 0)
(2.37104 0 0)
(2.37122 0 0)
(2.37139 0 0)
(2.37156 0 0)
(2.37173 0 0)
(2.3719 0 0)
(2.37207 0 0)
(2.37224 0 0)
(2.37241 0 0)
(2.37258 0 0)
(2.37275 0 0)
(2.37292 0 0)
(2.3731 0 0)
(2.37327 0 0)
(2.37344 0 0)
(2.37361 0 0)
(2.37378 0 0)
(2.37395 0 0)
(2.37412 0 0)
(2.37429 0 0)
(2.37446 0 0)
(2.37463 0 0)
(2.37479 0 0)
(2.37496 0 0)
(2.37513 0 0)
(2.3753 0 0)
(2.37547 0 0)
(2.37564 0 0)
(2.37581 0 0)
(2.37598 0 0)
(2.37615 0 0)
(2.37632 0 0)
(2.37649 0 0)
(2.37666 0 0)
(2.37683 0 0)
(2.377 0 0)
(2.37717 0 0)
(2.37734 0 0)
(2.37751 0 0)
(2.37768 0 0)
(2.37784 0 0)
(2.37801 0 0)
(2.37818 0 0)
(2.37835 0 0)
(2.37852 0 0)
(2.37869 0 0)
(2.37886 0 0)
(2.37903 0 0)
(2.37919 0 0)
(2.37936 0 0)
(2.37953 0 0)
(2.3797 0 0)
(2.37987 0 0)
(2.38004 0 0)
(2.3802 0 0)
(2.38037 0 0)
(2.38054 0 0)
(2.38071 0 0)
(2.38088 0 0)
(2.38104 0 0)
(2.38121 0 0)
(2.38138 0 0)
(2.38155 0 0)
(2.38172 0 0)
(2.38188 0 0)
(2.38205 0 0)
(2.38222 0 0)
(2.38239 0 0)
(2.38255 0 0)
(2.38272 0 0)
(2.38289 0 0)
(2.38305 0 0)
(2.38322 0 0)
(2.38339 0 0)
(2.38356 0 0)
(2.38372 0 0)
(2.38389 0 0)
(2.38406 0 0)
(2.38422 0 0)
(2.38439 0 0)
(2.38456 0 0)
(2.38472 0 0)
(2.38489 0 0)
(2.38505 0 0)
(2.38522 0 0)
(2.38539 0 0)
(2.38555 0 0)
(2.38572 0 0)
(2.38589 0 0)
(2.38605 0 0)
(2.38622 0 0)
(2.38638 0 0)
(2.38655 0 0)
(2.38671 0 0)
(2.38688 0 0)
(2.38705 0 0)
(2.38721 0 0)
(2.38738 0 0)
(2.38754 0 0)
(2.38771 0 0)
(2.38787 0 0)
(2.38804 0 0)
(2.3882 0 0)
(2.38837 0 0)
(2.38853 0 0)
(2.3887 0 0)
(2.38886 0 0)
(2.38903 0 0)
(2.38919 0 0)
(2.38936 0 0)
(2.38952 0 0)
(2.38969 0 0)
(2.38985 0 0)
(2.39001 0 0)
(2.39018 0 0)
(2.39034 0 0)
(2.39051 0 0)
(2.39067 0 0)
(2.39084 0 0)
(2.391 0 0)
(2.39117 0 0)
(2.39133 0 0)
(2.39149 0 0)
(2.39167 0 0)
(2.39184 0 0)
(2.39199 0 0)
(2.39214 0 0)
(2.39231 0 0)
(2.39248 0 0)
(2.39264 0 0)
(2.3928 0 0)
(2.39297 0 0)
(2.39313 0 0)
(2.39329 0 0)
(2.39345 0 0)
(2.39361 0 0)
(2.39378 0 0)
(2.39394 0 0)
(2.3941 0 0)
(2.39426 0 0)
(2.39443 0 0)
(2.39464 0 0)
(2.39496 0 0)
(2.39568 0 0)
(2.3976 0 0)
(2.40304 0 0)
(2.41811 0 0)
(2.45683 0 0)
(2.54962 0 0)
(2.76245 0 0)
(3.21617 0 0)
(4.07362 0 0)
(5.23686 0 0)
(6.47379 0 0)
(7.62353 0 0)
(8.63814 0 0)
(9.50672 0 0)
(10.2269 0 0)
(10.8208 0 0)
(11.3149 0 0)
(11.7161 0 0)
(12.0355 0 0)
(12.2986 0 0)
(12.525 0 0)
(12.7239 0 0)
(12.9003 0 0)
(13.0582 0 0)
(13.2006 0 0)
(13.33 0 0)
(13.4485 0 0)
(13.5575 0 0)
(13.6584 0 0)
(13.752 0 0)
(13.8392 0 0)
(13.9208 0 0)
(13.9973 0 0)
(14.0693 0 0)
(14.1372 0 0)
(14.2013 0 0)
(14.262 0 0)
(14.3196 0 0)
(14.3744 0 0)
(14.4265 0 0)
(14.4761 0 0)
(14.5234 0 0)
(14.5673 0 0)
(14.6084 0 0)
(14.6482 0 0)
(14.6867 0 0)
(14.7239 0 0)
(14.7599 0 0)
(14.7946 0 0)
(14.8283 0 0)
(14.861 0 0)
(14.8927 0 0)
(14.9234 0 0)
(14.9533 0 0)
(14.9823 0 0)
(15.0105 0 0)
(15.0379 0 0)
(15.0646 0 0)
(15.0907 0 0)
(15.116 0 0)
(15.1407 0 0)
(15.1648 0 0)
(15.1883 0 0)
(15.2113 0 0)
(15.2337 0 0)
(15.2556 0 0)
(15.277 0 0)
(15.2979 0 0)
(15.3184 0 0)
(15.3384 0 0)
(15.358 0 0)
(15.3772 0 0)
(15.3959 0 0)
(15.4143 0 0)
(15.4324 0 0)
(15.45 0 0)
(15.4674 0 0)
(15.4844 0 0)
(15.5011 0 0)
(15.5174 0 0)
(15.5335 0 0)
(15.5492 0 0)
(15.5647 0 0)
(15.58 0 0)
(15.5949 0 0)
(15.6096 0 0)
(15.624 0 0)
(15.6382 0 0)
(15.6522 0 0)
(15.6659 0 0)
(15.6794 0 0)
(15.6927 0 0)
(15.7058 0 0)
(15.7187 0 0)
(15.7313 0 0)
(15.7438 0 0)
(15.7561 0 0)
(15.7682 0 0)
(15.7801 0 0)
(15.7919 0 0)
(15.8035 0 0)
(15.8149 0 0)
(15.8261 0 0)
(15.8372 0 0)
(15.8481 0 0)
(15.8589 0 0)
(15.8695 0 0)
(15.8802 0 0)
(15.8907 0 0)
(15.9007 0 0)
(15.9108 0 0)
(15.9207 0 0)
(15.9306 0 0)
(15.9403 0 0)
(15.9499 0 0)
(15.9593 0 0)
(15.9687 0 0)
(15.9779 0 0)
(15.987 0 0)
(15.996 0 0)
(16.0049 0 0)
(16.0137 0 0)
(16.0224 0 0)
(16.0309 0 0)
(16.0394 0 0)
(16.0478 0 0)
(16.0561 0 0)
(16.0643 0 0)
(16.0724 0 0)
(16.0804 0 0)
(16.0883 0 0)
(16.0962 0 0)
(16.1039 0 0)
(16.1116 0 0)
(16.1192 0 0)
(16.1267 0 0)
(16.1341 0 0)
(16.1415 0 0)
(16.1488 0 0)
(16.156 0 0)
(16.1631 0 0)
(16.1702 0 0)
(16.1772 0 0)
(16.1841 0 0)
(16.1909 0 0)
(16.1977 0 0)
(16.2044 0 0)
(16.2111 0 0)
(16.2177 0 0)
(16.2242 0 0)
(16.2307 0 0)
(16.2371 0 0)
(16.2434 0 0)
(16.2497 0 0)
(16.2559 0 0)
(16.2621 0 0)
(16.2682 0 0)
(16.2743 0 0)
(16.2803 0 0)
(16.2862 0 0)
(16.2921 0 0)
(16.2979 0 0)
(16.3037 0 0)
(16.3095 0 0)
(16.3151 0 0)
(16.3208 0 0)
(16.3264 0 0)
(16.3319 0 0)
(16.3374 0 0)
(16.3428 0 0)
(16.3482 0 0)
(16.3535 0 0)
(16.3588 0 0)
(16.3641 0 0)
(16.3693 0 0)
(16.3749 0 0)
(16.3796 0 0)
(16.3841 0 0)
(16.3897 0 0)
(16.3948 0 0)
(16.3997 0 0)
(16.4046 0 0)
(16.4095 0 0)
(16.4143 0 0)
(16.4191 0 0)
(16.4238 0 0)
(16.4285 0 0)
(16.4332 0 0)
(16.4378 0 0)
(16.4424 0 0)
(16.4469 0 0)
(16.4515 0 0)
(16.456 0 0)
(16.4604 0 0)
(16.4649 0 0)
(16.4693 0 0)
(16.4737 0 0)
(16.4781 0 0)
(16.4824 0 0)
(16.4868 0 0)
(16.4911 0 0)
(16.4954 0 0)
(16.4996 0 0)
(16.5039 0 0)
(16.5082 0 0)
(16.5124 0 0)
(16.5166 0 0)
(16.5209 0 0)
(16.5251 0 0)
(16.5293 0 0)
(16.5335 0 0)
(16.5376 0 0)
(16.5418 0 0)
(16.546 0 0)
(16.5501 0 0)
(16.5542 0 0)
(16.5583 0 0)
(16.5624 0 0)
(16.5665 0 0)
(16.5705 0 0)
(16.5745 0 0)
(16.5785 0 0)
(16.5824 0 0)
(16.5862 0 0)
(16.59 0 0)
(16.5936 0 0)
(16.5968 0 0)
(16.5993 0 0)
(16.599 0 0)
(16.5941 0 0)
)
;

boundaryField
{
    boundary
    {
        type            empty;
    }
    inlet
    {
        type            fixedValue;
        value           uniform (2.34893 0 0);
    }
    outlet
    {
        type            zeroGradient;
    }
}


// ************************************************************************* //
