/*--------------------------------*- C++ -*----------------------------------*\
  =========                 |
  \\      /  F ield         | OpenFOAM: The Open Source CFD Toolbox
   \\    /   O peration     | Website:  https://openfoam.org
    \\  /    A nd           | Version:  7
     \\/     M anipulation  |
\*---------------------------------------------------------------------------*/
FoamFile
{
    version     2.0;
    format      ascii;
    class       volScalarField;
    location    "0.00063";
    object      H2O2;
}
// * * * * * * * * * * * * * * * * * * * * * * * * * * * * * * * * * * * * * //

dimensions      [0 0 0 0 0 0 0];

internalField   nonuniform List<scalar> 
125
(
1.98573e-52
6.37449e-52
1.26665e-51
2.08666e-51
3.09827e-51
4.30257e-51
5.70081e-51
7.29429e-51
9.08425e-51
1.10719e-50
1.32582e-50
1.56445e-50
1.8232e-50
2.10222e-50
2.40172e-50
2.72197e-50
3.06333e-50
3.42627e-50
3.81139e-50
4.21947e-50
4.65144e-50
5.10845e-50
5.59187e-50
6.10327e-50
6.64446e-50
7.21742e-50
7.82431e-50
8.46735e-50
9.14879e-50
9.87076e-50
1.06352e-49
1.14435e-49
1.22968e-49
1.31952e-49
1.41381e-49
1.51239e-49
1.61499e-49
1.72119e-49
1.83049e-49
1.94225e-49
2.0557e-49
2.17002e-49
2.28428e-49
2.39754e-49
2.5088e-49
2.61714e-49
2.72162e-49
2.82144e-49
2.91588e-49
3.00433e-49
3.08636e-49
3.16166e-49
3.23009e-49
3.29163e-49
3.34641e-49
3.39469e-49
3.4368e-49
3.47315e-49
3.50423e-49
3.53052e-49
3.55254e-49
3.57082e-49
3.58582e-49
3.59803e-49
3.60787e-49
3.61572e-49
3.62193e-49
3.6268e-49
3.63058e-49
3.63349e-49
3.63571e-49
3.63739e-49
3.63865e-49
3.63959e-49
3.64028e-49
3.64079e-49
3.64117e-49
3.64144e-49
3.64164e-49
3.64179e-49
3.64189e-49
3.64198e-49
3.64204e-49
3.64209e-49
3.64213e-49
3.64217e-49
3.64221e-49
3.64224e-49
3.64227e-49
3.64231e-49
3.64235e-49
3.64238e-49
3.64242e-49
3.64246e-49
3.64251e-49
3.64255e-49
3.6426e-49
3.64266e-49
3.64271e-49
3.64277e-49
3.64283e-49
3.64289e-49
3.64296e-49
3.64303e-49
3.64311e-49
3.64319e-49
3.64327e-49
3.64335e-49
3.64344e-49
3.64354e-49
3.64363e-49
3.64374e-49
3.64384e-49
3.64395e-49
3.64407e-49
3.64419e-49
3.64432e-49
3.64444e-49
3.64458e-49
3.64471e-49
3.64483e-49
3.64488e-49
3.64465e-49
3.6433e-49
3.63746e-49
)
;

boundaryField
{
    boundary
    {
        type            empty;
    }
    inlet
    {
        type            fixedValue;
        value           uniform 0;
    }
    outlet
    {
        type            zeroGradient;
    }
    procBoundary2to3
    {
        type            processor;
        value           uniform 3.62576e-49;
    }
}


// ************************************************************************* //
