/*--------------------------------*- C++ -*----------------------------------*\
  =========                 |
  \\      /  F ield         | OpenFOAM: The Open Source CFD Toolbox
   \\    /   O peration     | Website:  https://openfoam.org
    \\  /    A nd           | Version:  7
     \\/     M anipulation  |
\*---------------------------------------------------------------------------*/
FoamFile
{
    version     2.0;
    format      ascii;
    class       volScalarField;
    location    "0.00063";
    object      O;
}
// * * * * * * * * * * * * * * * * * * * * * * * * * * * * * * * * * * * * * //

dimensions      [0 0 0 0 0 0 0];

internalField   nonuniform List<scalar> 
125
(
1.57123e-47
3.74329e-47
5.92408e-47
8.10491e-47
1.02859e-46
1.2469e-46
1.46561e-46
1.68485e-46
1.90472e-46
2.12528e-46
2.34654e-46
2.56853e-46
2.79124e-46
3.01474e-46
3.2391e-46
3.46446e-46
3.69101e-46
3.91903e-46
4.14887e-46
4.38097e-46
4.61588e-46
4.85422e-46
5.09671e-46
5.34418e-46
5.59753e-46
5.85772e-46
6.12577e-46
6.40271e-46
6.68956e-46
6.98729e-46
7.29675e-46
7.61865e-46
7.95351e-46
8.30155e-46
8.66274e-46
9.03666e-46
9.42255e-46
9.81924e-46
1.02252e-45
1.06384e-45
1.10566e-45
1.14772e-45
1.18974e-45
1.23141e-45
1.27242e-45
1.31248e-45
1.35128e-45
1.38854e-45
1.42403e-45
1.45753e-45
1.48888e-45
1.51794e-45
1.54464e-45
1.56894e-45
1.59086e-45
1.61045e-45
1.6278e-45
1.64302e-45
1.65624e-45
1.66763e-45
1.67734e-45
1.68556e-45
1.69244e-45
1.69816e-45
1.70286e-45
1.70669e-45
1.70979e-45
1.71228e-45
1.71425e-45
1.71581e-45
1.71703e-45
1.71797e-45
1.71869e-45
1.71925e-45
1.71967e-45
1.71998e-45
1.72022e-45
1.72039e-45
1.72052e-45
1.72062e-45
1.72069e-45
1.72075e-45
1.72079e-45
1.72082e-45
1.72085e-45
1.72087e-45
1.72089e-45
1.7209e-45
1.72092e-45
1.72094e-45
1.72095e-45
1.72097e-45
1.72099e-45
1.72101e-45
1.72103e-45
1.72105e-45
1.72107e-45
1.72109e-45
1.72111e-45
1.72114e-45
1.72117e-45
1.72119e-45
1.72122e-45
1.72125e-45
1.72129e-45
1.72132e-45
1.72136e-45
1.72139e-45
1.72143e-45
1.72147e-45
1.72151e-45
1.72156e-45
1.72161e-45
1.72165e-45
1.7217e-45
1.72175e-45
1.72181e-45
1.72186e-45
1.72192e-45
1.72197e-45
1.72201e-45
1.72199e-45
1.72183e-45
1.72125e-45
1.71942e-45
)
;

boundaryField
{
    boundary
    {
        type            empty;
    }
    inlet
    {
        type            fixedValue;
        value           uniform 0;
    }
    outlet
    {
        type            zeroGradient;
    }
    procBoundary2to3
    {
        type            processor;
        value           uniform 1.71674e-45;
    }
}


// ************************************************************************* //
