/*--------------------------------*- C++ -*----------------------------------*\
  =========                 |
  \\      /  F ield         | OpenFOAM: The Open Source CFD Toolbox
   \\    /   O peration     | Website:  https://openfoam.org
    \\  /    A nd           | Version:  7
     \\/     M anipulation  |
\*---------------------------------------------------------------------------*/
FoamFile
{
    version     2.0;
    format      ascii;
    class       volScalarField;
    location    "5e-05";
    object      H;
}
// * * * * * * * * * * * * * * * * * * * * * * * * * * * * * * * * * * * * * //

dimensions      [0 0 0 0 0 0 0];

internalField   nonuniform List<scalar> 
126
(
3.02535e-41
3.02849e-41
3.02933e-41
3.02962e-41
3.02973e-41
3.02977e-41
3.02979e-41
3.02979e-41
3.02979e-41
3.02979e-41
3.0298e-41
3.02981e-41
3.02982e-41
3.02983e-41
3.02984e-41
3.02986e-41
3.02987e-41
3.02989e-41
3.0299e-41
3.02992e-41
3.02993e-41
3.02993e-41
3.02993e-41
3.02993e-41
3.02992e-41
3.02991e-41
3.02988e-41
3.02985e-41
3.02981e-41
3.02976e-41
3.02969e-41
3.02961e-41
3.02952e-41
3.02941e-41
3.02929e-41
3.02915e-41
3.02898e-41
3.0288e-41
3.0286e-41
3.02837e-41
3.02811e-41
3.02783e-41
3.02753e-41
3.02719e-41
3.02683e-41
3.02643e-41
3.02599e-41
3.02553e-41
3.02502e-41
3.02448e-41
3.0239e-41
3.02327e-41
3.02261e-41
3.0219e-41
3.02114e-41
3.02034e-41
3.01948e-41
3.01858e-41
3.01762e-41
3.01662e-41
3.01555e-41
3.01443e-41
3.01326e-41
3.01202e-41
3.01073e-41
3.00937e-41
3.00795e-41
3.00647e-41
3.00493e-41
3.00332e-41
3.00164e-41
2.9999e-41
2.99809e-41
2.99622e-41
2.99427e-41
2.99226e-41
2.99018e-41
2.98803e-41
2.98581e-41
2.98352e-41
2.98116e-41
2.97874e-41
2.97625e-41
2.97369e-41
2.97106e-41
2.96837e-41
2.96561e-41
2.96279e-41
2.9599e-41
2.95695e-41
2.95395e-41
2.95088e-41
2.94776e-41
2.94458e-41
2.94134e-41
2.93805e-41
2.93472e-41
2.93133e-41
2.92789e-41
2.92441e-41
2.92089e-41
2.91733e-41
2.91372e-41
2.91009e-41
2.90647e-41
2.9031e-41
2.90138e-41
2.90963e-41
2.97699e-41
3.39434e-41
5.88286e-41
2.06278e-40
1.07906e-39
6.24546e-39
3.68431e-38
2.18244e-37
1.29563e-36
7.71302e-36
4.61008e-35
2.77074e-34
1.67706e-33
1.02334e-32
6.29466e-32
3.89496e-31
2.4129e-30
1.48503e-29
)
;

boundaryField
{
    boundary
    {
        type            empty;
    }
    inlet
    {
        type            fixedValue;
        value           nonuniform 0();
    }
    outlet
    {
        type            zeroGradient;
    }
    procBoundary3to1
    {
        type            processor;
        value           uniform 6.53725e-29;
    }
    procBoundary3to2
    {
        type            processor;
        value           uniform 3.02671e-41;
    }
}


// ************************************************************************* //
