/*--------------------------------*- C++ -*----------------------------------*\
  =========                 |
  \\      /  F ield         | OpenFOAM: The Open Source CFD Toolbox
   \\    /   O peration     | Website:  https://openfoam.org
    \\  /    A nd           | Version:  7
     \\/     M anipulation  |
\*---------------------------------------------------------------------------*/
FoamFile
{
    version     2.0;
    format      ascii;
    class       volScalarField;
    location    "5e-05";
    object      H2O;
}
// * * * * * * * * * * * * * * * * * * * * * * * * * * * * * * * * * * * * * //

dimensions      [0 0 0 0 0 0 0];

internalField   nonuniform List<scalar> 
126
(
6.1756e-47
6.27356e-47
6.36757e-47
6.43645e-47
6.48063e-47
6.50678e-47
6.52156e-47
6.52982e-47
6.5346e-47
6.53764e-47
6.53987e-47
6.54175e-47
6.54348e-47
6.54515e-47
6.5468e-47
6.54844e-47
6.55008e-47
6.55172e-47
6.55334e-47
6.55497e-47
6.55659e-47
6.55819e-47
6.55979e-47
6.56138e-47
6.56296e-47
6.56452e-47
6.56606e-47
6.56759e-47
6.56909e-47
6.57058e-47
6.57204e-47
6.57348e-47
6.57489e-47
6.57627e-47
6.57762e-47
6.57893e-47
6.58021e-47
6.58145e-47
6.58265e-47
6.5838e-47
6.58491e-47
6.58597e-47
6.58698e-47
6.58794e-47
6.58884e-47
6.58968e-47
6.59046e-47
6.59117e-47
6.59182e-47
6.59239e-47
6.59289e-47
6.59332e-47
6.59367e-47
6.59393e-47
6.59411e-47
6.5942e-47
6.5942e-47
6.59411e-47
6.59392e-47
6.59363e-47
6.59324e-47
6.59275e-47
6.59215e-47
6.59143e-47
6.59061e-47
6.58967e-47
6.58862e-47
6.58744e-47
6.58615e-47
6.58473e-47
6.58319e-47
6.58152e-47
6.57972e-47
6.5778e-47
6.57574e-47
6.57355e-47
6.57123e-47
6.56877e-47
6.56618e-47
6.56346e-47
6.56061e-47
6.55762e-47
6.55449e-47
6.55124e-47
6.54785e-47
6.54432e-47
6.54067e-47
6.53689e-47
6.53299e-47
6.52895e-47
6.52479e-47
6.52051e-47
6.51611e-47
6.5116e-47
6.50697e-47
6.50222e-47
6.49737e-47
6.49241e-47
6.48734e-47
6.48218e-47
6.47691e-47
6.47155e-47
6.46611e-47
6.46065e-47
6.45551e-47
6.45289e-47
6.46659e-47
6.58375e-47
7.35644e-47
1.23108e-46
4.43365e-46
2.56741e-45
1.73489e-44
1.28546e-43
1.05854e-42
9.79018e-42
1.00338e-40
1.10568e-39
1.27027e-38
1.48679e-37
1.74617e-36
2.03737e-35
2.34591e-34
2.65631e-33
2.96138e-32
3.27522e-31
)
;

boundaryField
{
    boundary
    {
        type            empty;
    }
    inlet
    {
        type            fixedValue;
        value           nonuniform 0();
    }
    outlet
    {
        type            zeroGradient;
    }
    procBoundary3to1
    {
        type            processor;
        value           uniform 4.8778e-30;
    }
    procBoundary3to2
    {
        type            processor;
        value           uniform 6.34815e-47;
    }
}


// ************************************************************************* //
