/*--------------------------------*- C++ -*----------------------------------*\
  =========                 |
  \\      /  F ield         | OpenFOAM: The Open Source CFD Toolbox
   \\    /   O peration     | Website:  https://openfoam.org
    \\  /    A nd           | Version:  7
     \\/     M anipulation  |
\*---------------------------------------------------------------------------*/
FoamFile
{
    version     2.0;
    format      ascii;
    class       volScalarField;
    location    "5e-05";
    object      H2O2;
}
// * * * * * * * * * * * * * * * * * * * * * * * * * * * * * * * * * * * * * //

dimensions      [0 0 0 0 0 0 0];

internalField   nonuniform List<scalar> 
126
(
1.5434e-51
1.57561e-51
1.60579e-51
1.62683e-51
1.63947e-51
1.64641e-51
1.65006e-51
1.652e-51
1.65309e-51
1.6538e-51
1.65435e-51
1.65482e-51
1.65527e-51
1.65571e-51
1.65615e-51
1.65658e-51
1.65702e-51
1.65745e-51
1.65788e-51
1.6583e-51
1.65873e-51
1.65915e-51
1.65957e-51
1.65999e-51
1.6604e-51
1.66081e-51
1.66121e-51
1.66161e-51
1.662e-51
1.66238e-51
1.66276e-51
1.66313e-51
1.6635e-51
1.66385e-51
1.66419e-51
1.66453e-51
1.66485e-51
1.66517e-51
1.66547e-51
1.66575e-51
1.66603e-51
1.66629e-51
1.66654e-51
1.66677e-51
1.66698e-51
1.66718e-51
1.66736e-51
1.66752e-51
1.66766e-51
1.66779e-51
1.66789e-51
1.66797e-51
1.66802e-51
1.66806e-51
1.66807e-51
1.66805e-51
1.66801e-51
1.66794e-51
1.66784e-51
1.66772e-51
1.66757e-51
1.66739e-51
1.66717e-51
1.66693e-51
1.66666e-51
1.66635e-51
1.66601e-51
1.66563e-51
1.66523e-51
1.66478e-51
1.66431e-51
1.66379e-51
1.66324e-51
1.66266e-51
1.66203e-51
1.66138e-51
1.66068e-51
1.65994e-51
1.65917e-51
1.65836e-51
1.65752e-51
1.65663e-51
1.65571e-51
1.65475e-51
1.65376e-51
1.65273e-51
1.65166e-51
1.65055e-51
1.64941e-51
1.64824e-51
1.64703e-51
1.64579e-51
1.64451e-51
1.6432e-51
1.64186e-51
1.64049e-51
1.63909e-51
1.63766e-51
1.6362e-51
1.63471e-51
1.6332e-51
1.63166e-51
1.6301e-51
1.62851e-51
1.62691e-51
1.62538e-51
1.62435e-51
1.62657e-51
1.64922e-51
1.79947e-51
2.74742e-51
8.69128e-51
4.60985e-50
2.84881e-49
1.87242e-48
1.35776e-47
1.19665e-46
1.38327e-45
2.01117e-44
3.30667e-43
5.70397e-42
9.99288e-41
1.76096e-39
3.12171e-38
5.57871e-37
1.00009e-35
)
;

boundaryField
{
    boundary
    {
        type            empty;
    }
    inlet
    {
        type            fixedValue;
        value           nonuniform 0();
    }
    outlet
    {
        type            zeroGradient;
    }
    procBoundary3to1
    {
        type            processor;
        value           uniform 2.48343e-34;
    }
    procBoundary3to2
    {
        type            processor;
        value           uniform 1.60011e-51;
    }
}


// ************************************************************************* //
