/*--------------------------------*- C++ -*----------------------------------*\
  =========                 |
  \\      /  F ield         | OpenFOAM: The Open Source CFD Toolbox
   \\    /   O peration     | Website:  https://openfoam.org
    \\  /    A nd           | Version:  7
     \\/     M anipulation  |
\*---------------------------------------------------------------------------*/
FoamFile
{
    version     2.0;
    format      ascii;
    class       volScalarField;
    location    "5e-05";
    object      HO2;
}
// * * * * * * * * * * * * * * * * * * * * * * * * * * * * * * * * * * * * * //

dimensions      [0 0 0 0 0 0 0];

internalField   nonuniform List<scalar> 
126
(
2.87869e-37
2.91216e-37
2.94266e-37
2.96372e-37
2.97632e-37
2.98323e-37
2.98684e-37
2.98874e-37
2.98981e-37
2.9905e-37
2.99103e-37
2.99149e-37
2.99193e-37
2.99235e-37
2.99276e-37
2.99318e-37
2.99359e-37
2.99399e-37
2.9944e-37
2.9948e-37
2.99519e-37
2.99558e-37
2.99596e-37
2.99634e-37
2.99671e-37
2.99708e-37
2.99743e-37
2.99778e-37
2.99811e-37
2.99844e-37
2.99876e-37
2.99906e-37
2.99935e-37
2.99963e-37
2.9999e-37
3.00015e-37
3.00038e-37
3.0006e-37
3.0008e-37
3.00098e-37
3.00115e-37
3.00129e-37
3.00141e-37
3.00151e-37
3.00159e-37
3.00164e-37
3.00167e-37
3.00167e-37
3.00165e-37
3.0016e-37
3.00151e-37
3.0014e-37
3.00126e-37
3.00108e-37
3.00088e-37
3.00063e-37
3.00036e-37
3.00004e-37
2.99969e-37
2.9993e-37
2.99887e-37
2.9984e-37
2.99789e-37
2.99734e-37
2.99675e-37
2.99611e-37
2.99543e-37
2.9947e-37
2.99393e-37
2.99311e-37
2.99224e-37
2.99133e-37
2.99037e-37
2.98936e-37
2.9883e-37
2.9872e-37
2.98604e-37
2.98484e-37
2.98358e-37
2.98228e-37
2.98093e-37
2.97953e-37
2.97808e-37
2.97658e-37
2.97503e-37
2.97344e-37
2.9718e-37
2.97011e-37
2.96838e-37
2.9666e-37
2.96478e-37
2.96291e-37
2.96101e-37
2.95906e-37
2.95707e-37
2.95505e-37
2.95298e-37
2.95088e-37
2.94875e-37
2.94658e-37
2.94438e-37
2.94215e-37
2.93988e-37
2.93759e-37
2.9353e-37
2.93311e-37
2.93169e-37
2.93518e-37
2.96887e-37
3.1883e-37
4.55022e-37
1.2942e-36
6.45909e-36
3.82263e-35
2.33329e-34
1.42804e-33
8.70574e-33
5.26748e-32
3.15197e-31
1.85871e-30
1.0772e-29
6.12986e-29
3.43174e-28
1.90026e-27
1.04966e-26
5.84978e-26
)
;

boundaryField
{
    boundary
    {
        type            empty;
    }
    inlet
    {
        type            fixedValue;
        value           nonuniform 0();
    }
    outlet
    {
        type            zeroGradient;
    }
    procBoundary3to1
    {
        type            processor;
        value           uniform 3.52984e-25;
    }
    procBoundary3to2
    {
        type            processor;
        value           uniform 2.93591e-37;
    }
}


// ************************************************************************* //
