/*--------------------------------*- C++ -*----------------------------------*\
  =========                 |
  \\      /  F ield         | OpenFOAM: The Open Source CFD Toolbox
   \\    /   O peration     | Website:  https://openfoam.org
    \\  /    A nd           | Version:  7
     \\/     M anipulation  |
\*---------------------------------------------------------------------------*/
FoamFile
{
    version     2.0;
    format      ascii;
    class       volScalarField;
    location    "5e-05";
    object      O;
}
// * * * * * * * * * * * * * * * * * * * * * * * * * * * * * * * * * * * * * //

dimensions      [0 0 0 0 0 0 0];

internalField   nonuniform List<scalar> 
126
(
9.35049e-47
9.47569e-47
9.58153e-47
9.65184e-47
9.69354e-47
9.71708e-47
9.73029e-47
9.73791e-47
9.74257e-47
9.74569e-47
9.74803e-47
9.75e-47
9.75179e-47
9.7535e-47
9.75517e-47
9.75682e-47
9.75846e-47
9.76008e-47
9.76168e-47
9.76326e-47
9.76482e-47
9.76636e-47
9.76788e-47
9.76936e-47
9.77082e-47
9.77224e-47
9.77363e-47
9.77498e-47
9.77629e-47
9.77756e-47
9.77878e-47
9.77994e-47
9.78106e-47
9.78212e-47
9.78312e-47
9.78405e-47
9.78492e-47
9.78571e-47
9.78643e-47
9.78708e-47
9.78764e-47
9.78811e-47
9.78849e-47
9.78878e-47
9.78897e-47
9.78906e-47
9.78904e-47
9.78891e-47
9.78866e-47
9.78829e-47
9.7878e-47
9.78718e-47
9.78642e-47
9.78553e-47
9.7845e-47
9.78332e-47
9.78199e-47
9.7805e-47
9.77886e-47
9.77705e-47
9.77508e-47
9.77294e-47
9.77062e-47
9.76812e-47
9.76544e-47
9.76258e-47
9.75953e-47
9.75629e-47
9.75285e-47
9.74922e-47
9.74539e-47
9.74136e-47
9.73713e-47
9.73269e-47
9.72805e-47
9.7232e-47
9.71814e-47
9.71288e-47
9.70741e-47
9.70173e-47
9.69584e-47
9.68975e-47
9.68346e-47
9.67696e-47
9.67026e-47
9.66336e-47
9.65626e-47
9.64898e-47
9.6415e-47
9.63383e-47
9.62598e-47
9.61796e-47
9.60975e-47
9.60138e-47
9.59284e-47
9.58415e-47
9.5753e-47
9.56629e-47
9.55715e-47
9.54786e-47
9.53844e-47
9.5289e-47
9.51929e-47
9.50986e-47
9.50226e-47
9.50683e-47
9.58923e-47
1.01655e-46
1.38757e-46
3.75365e-46
1.89357e-45
1.18117e-44
7.89669e-44
5.62353e-43
4.36157e-42
3.74344e-41
3.53608e-40
3.58864e-39
3.80253e-38
4.11281e-37
4.47732e-36
4.87131e-35
5.28661e-34
5.73291e-33
6.23213e-32
6.77963e-31
)
;

boundaryField
{
    boundary
    {
        type            empty;
    }
    inlet
    {
        type            fixedValue;
        value           nonuniform 0();
    }
    outlet
    {
        type            zeroGradient;
    }
    procBoundary3to1
    {
        type            processor;
        value           uniform 9.65477e-30;
    }
    procBoundary3to2
    {
        type            processor;
        value           uniform 9.51339e-47;
    }
}


// ************************************************************************* //
