/*--------------------------------*- C++ -*----------------------------------*\
  =========                 |
  \\      /  F ield         | OpenFOAM: The Open Source CFD Toolbox
   \\    /   O peration     | Website:  https://openfoam.org
    \\  /    A nd           | Version:  7
     \\/     M anipulation  |
\*---------------------------------------------------------------------------*/
FoamFile
{
    version     2.0;
    format      ascii;
    class       volScalarField;
    location    "5e-05";
    object      OH;
}
// * * * * * * * * * * * * * * * * * * * * * * * * * * * * * * * * * * * * * //

dimensions      [0 0 0 0 0 0 0];

internalField   nonuniform List<scalar> 
126
(
4.1779e-47
4.19194e-47
4.20493e-47
4.21508e-47
4.22151e-47
4.22515e-47
4.22716e-47
4.22829e-47
4.22897e-47
4.22943e-47
4.22978e-47
4.23006e-47
4.23032e-47
4.23056e-47
4.23079e-47
4.23101e-47
4.23121e-47
4.2314e-47
4.23158e-47
4.23174e-47
4.23189e-47
4.23202e-47
4.23213e-47
4.23223e-47
4.2323e-47
4.23236e-47
4.23239e-47
4.2324e-47
4.23238e-47
4.23233e-47
4.23226e-47
4.23216e-47
4.23202e-47
4.23186e-47
4.23166e-47
4.23142e-47
4.23115e-47
4.23084e-47
4.23048e-47
4.23009e-47
4.22964e-47
4.22916e-47
4.22862e-47
4.22803e-47
4.2274e-47
4.2267e-47
4.22596e-47
4.22515e-47
4.22429e-47
4.22336e-47
4.22237e-47
4.22131e-47
4.22019e-47
4.219e-47
4.21774e-47
4.2164e-47
4.21499e-47
4.2135e-47
4.21193e-47
4.21029e-47
4.20856e-47
4.20675e-47
4.20485e-47
4.20287e-47
4.20079e-47
4.19863e-47
4.19638e-47
4.19404e-47
4.19161e-47
4.18908e-47
4.18646e-47
4.18374e-47
4.18093e-47
4.17802e-47
4.17502e-47
4.17192e-47
4.16873e-47
4.16544e-47
4.16205e-47
4.15857e-47
4.15499e-47
4.15133e-47
4.14757e-47
4.14371e-47
4.13977e-47
4.13574e-47
4.13163e-47
4.12743e-47
4.12314e-47
4.11878e-47
4.11434e-47
4.10982e-47
4.10523e-47
4.10056e-47
4.09583e-47
4.09104e-47
4.08618e-47
4.08127e-47
4.07629e-47
4.07127e-47
4.06619e-47
4.06107e-47
4.05591e-47
4.05078e-47
4.04596e-47
4.0434e-47
4.05513e-47
4.15751e-47
4.84398e-47
9.42134e-47
4.14795e-46
2.85812e-45
2.36666e-44
2.22543e-43
2.3115e-42
2.56671e-41
2.95891e-40
3.46916e-39
4.08333e-38
4.78496e-37
5.54826e-36
6.33093e-35
7.06545e-34
7.64703e-33
7.92351e-32
7.73732e-31
)
;

boundaryField
{
    boundary
    {
        type            empty;
    }
    inlet
    {
        type            fixedValue;
        value           nonuniform 0();
    }
    outlet
    {
        type            zeroGradient;
    }
    procBoundary3to1
    {
        type            processor;
        value           uniform 9.2317e-30;
    }
    procBoundary3to2
    {
        type            processor;
        value           uniform 4.19816e-47;
    }
}


// ************************************************************************* //
