/*--------------------------------*- C++ -*----------------------------------*\
  =========                 |
  \\      /  F ield         | OpenFOAM: The Open Source CFD Toolbox
   \\    /   O peration     | Website:  https://openfoam.org
    \\  /    A nd           | Version:  7
     \\/     M anipulation  |
\*---------------------------------------------------------------------------*/
FoamFile
{
    version     2.0;
    format      ascii;
    class       volScalarField;
    location    "5e-05";
    object      p;
}
// * * * * * * * * * * * * * * * * * * * * * * * * * * * * * * * * * * * * * //

dimensions      [1 -1 -2 0 0 0 0];

internalField   nonuniform List<scalar> 
126
(
102656
102655
102654
102654
102653
102652
102651
102650
102649
102648
102647
102646
102646
102645
102644
102643
102642
102641
102640
102639
102638
102637
102636
102636
102635
102634
102633
102632
102631
102630
102629
102628
102628
102627
102626
102625
102624
102623
102622
102621
102621
102620
102619
102618
102617
102616
102615
102615
102614
102613
102612
102611
102610
102610
102609
102608
102607
102606
102606
102605
102604
102603
102602
102602
102601
102600
102599
102598
102598
102597
102596
102595
102595
102594
102593
102592
102591
102591
102590
102589
102588
102588
102587
102586
102585
102585
102584
102583
102582
102581
102581
102580
102579
102578
102577
102577
102576
102575
102574
102573
102573
102572
102571
102570
102569
102568
102568
102567
102566
102565
102564
102563
102562
102562
102561
102560
102559
102558
102557
102556
102555
102554
102553
102552
102551
102550
)
;

boundaryField
{
    boundary
    {
        type            empty;
    }
    inlet
    {
        type            zeroGradient;
    }
    outlet
    {
        type            waveTransmissive;
        gamma           1.4;
        value           nonuniform 0();
    }
    procBoundary3to1
    {
        type            processor;
        value           uniform 102549;
    }
    procBoundary3to2
    {
        type            processor;
        value           uniform 102657;
    }
}


// ************************************************************************* //
