/*--------------------------------*- C++ -*----------------------------------*\
  =========                 |
  \\      /  F ield         | OpenFOAM: The Open Source CFD Toolbox
   \\    /   O peration     | Website:  https://openfoam.org
    \\  /    A nd           | Version:  7
     \\/     M anipulation  |
\*---------------------------------------------------------------------------*/
FoamFile
{
    version     2.0;
    format      ascii;
    class       surfaceScalarField;
    location    "5e-05";
    object      phi;
}
// * * * * * * * * * * * * * * * * * * * * * * * * * * * * * * * * * * * * * //

dimensions      [1 0 -1 0 0 0 0];

internalField   nonuniform List<scalar> 
125
(
4.92206e-06
4.90741e-06
4.89286e-06
4.87841e-06
4.86408e-06
4.84986e-06
4.83576e-06
4.82177e-06
4.80791e-06
4.79417e-06
4.78056e-06
4.76708e-06
4.75373e-06
4.74053e-06
4.72746e-06
4.71455e-06
4.70178e-06
4.68916e-06
4.67669e-06
4.66439e-06
4.65224e-06
4.64026e-06
4.62844e-06
4.61679e-06
4.60531e-06
4.59401e-06
4.58289e-06
4.57194e-06
4.56117e-06
4.55059e-06
4.5402e-06
4.52999e-06
4.51998e-06
4.51015e-06
4.50052e-06
4.49108e-06
4.48185e-06
4.47281e-06
4.46397e-06
4.45533e-06
4.44689e-06
4.43865e-06
4.43062e-06
4.4228e-06
4.41518e-06
4.40776e-06
4.40055e-06
4.39354e-06
4.38674e-06
4.38015e-06
4.37376e-06
4.36757e-06
4.36159e-06
4.35581e-06
4.35024e-06
4.34486e-06
4.33968e-06
4.33471e-06
4.32992e-06
4.32534e-06
4.32094e-06
4.31674e-06
4.31273e-06
4.3089e-06
4.30525e-06
4.30179e-06
4.2985e-06
4.29538e-06
4.29244e-06
4.28967e-06
4.28706e-06
4.2846e-06
4.28231e-06
4.28017e-06
4.27817e-06
4.27632e-06
4.2746e-06
4.27302e-06
4.27157e-06
4.27024e-06
4.26903e-06
4.26793e-06
4.26693e-06
4.26604e-06
4.26524e-06
4.26453e-06
4.2639e-06
4.26334e-06
4.26285e-06
4.26243e-06
4.26206e-06
4.26173e-06
4.26145e-06
4.2612e-06
4.26098e-06
4.26077e-06
4.26057e-06
4.26038e-06
4.26017e-06
4.25996e-06
4.25973e-06
4.25946e-06
4.25916e-06
4.25882e-06
4.25842e-06
4.25796e-06
4.25744e-06
4.25684e-06
4.25616e-06
4.25539e-06
4.25453e-06
4.25357e-06
4.2525e-06
4.25132e-06
4.25002e-06
4.24861e-06
4.24707e-06
4.2454e-06
4.24361e-06
4.2417e-06
4.23965e-06
4.23748e-06
4.23519e-06
4.23279e-06
4.23027e-06
)
;

boundaryField
{
    boundary
    {
        type            empty;
        value           nonuniform 0();
    }
    inlet
    {
        type            calculated;
        value           nonuniform 0();
    }
    outlet
    {
        type            calculated;
        value           nonuniform 0();
    }
    procBoundary3to1
    {
        type            processor;
        value           uniform 4.22765e-06;
    }
    procBoundary3to2
    {
        type            processor;
        value           uniform -4.93679e-06;
    }
}


// ************************************************************************* //
