/*--------------------------------*- C++ -*----------------------------------*\
  =========                 |
  \\      /  F ield         | OpenFOAM: The Open Source CFD Toolbox
   \\    /   O peration     | Website:  https://openfoam.org
    \\  /    A nd           | Version:  7
     \\/     M anipulation  |
\*---------------------------------------------------------------------------*/
FoamFile
{
    version     2.0;
    format      ascii;
    class       volScalarField;
    location    "5e-05";
    object      Qdot;
}
// * * * * * * * * * * * * * * * * * * * * * * * * * * * * * * * * * * * * * //

dimensions      [1 -1 -3 0 0 0 0];

internalField   nonuniform List<scalar> 
126
(
-2.36228e-27
-2.3589e-27
-2.35808e-27
-2.35765e-27
-2.35723e-27
-2.35679e-27
-2.35634e-27
-2.35588e-27
-2.35542e-27
-2.35496e-27
-2.3545e-27
-2.35404e-27
-2.35358e-27
-2.35312e-27
-2.35266e-27
-2.35221e-27
-2.35175e-27
-2.35129e-27
-2.35083e-27
-2.35037e-27
-2.3499e-27
-2.34944e-27
-2.34897e-27
-2.34851e-27
-2.34804e-27
-2.34757e-27
-2.34709e-27
-2.34661e-27
-2.34613e-27
-2.34564e-27
-2.34515e-27
-2.34465e-27
-2.34415e-27
-2.34363e-27
-2.34312e-27
-2.34259e-27
-2.34205e-27
-2.34151e-27
-2.34095e-27
-2.34039e-27
-2.33981e-27
-2.33922e-27
-2.33861e-27
-2.338e-27
-2.33736e-27
-2.33671e-27
-2.33605e-27
-2.33536e-27
-2.33466e-27
-2.33394e-27
-2.33319e-27
-2.33243e-27
-2.33164e-27
-2.33083e-27
-2.32999e-27
-2.32913e-27
-2.32824e-27
-2.32732e-27
-2.32638e-27
-2.3254e-27
-2.3244e-27
-2.32336e-27
-2.32229e-27
-2.32119e-27
-2.32005e-27
-2.31888e-27
-2.31767e-27
-2.31643e-27
-2.31515e-27
-2.31383e-27
-2.31247e-27
-2.31108e-27
-2.30964e-27
-2.30817e-27
-2.30665e-27
-2.3051e-27
-2.3035e-27
-2.30186e-27
-2.30018e-27
-2.29846e-27
-2.2967e-27
-2.2949e-27
-2.29306e-27
-2.29117e-27
-2.28925e-27
-2.28728e-27
-2.28528e-27
-2.28324e-27
-2.28116e-27
-2.27904e-27
-2.27689e-27
-2.2747e-27
-2.27247e-27
-2.27022e-27
-2.26793e-27
-2.2656e-27
-2.26325e-27
-2.26087e-27
-2.25846e-27
-2.25602e-27
-2.25356e-27
-2.25108e-27
-2.24856e-27
-2.24602e-27
-2.24337e-27
-2.24026e-27
-2.23449e-27
-2.21307e-27
-2.09909e-27
-1.43744e-27
2.46505e-27
2.55434e-26
1.62064e-25
9.69549e-25
5.74482e-24
3.39834e-23
2.01019e-22
1.18993e-21
7.05597e-21
4.19743e-20
2.5103e-19
1.51346e-18
9.22617e-18
5.70016e-17
3.56832e-16
2.24983e-15
)
;

boundaryField
{
    boundary
    {
        type            empty;
    }
    inlet
    {
        type            calculated;
        value           nonuniform 0();
    }
    outlet
    {
        type            calculated;
        value           nonuniform 0();
    }
    procBoundary3to1
    {
        type            processor;
        value           uniform 0;
    }
    procBoundary3to2
    {
        type            processor;
        value           uniform 0;
    }
}


// ************************************************************************* //
