/*--------------------------------*- C++ -*----------------------------------*\
  =========                 |
  \\      /  F ield         | OpenFOAM: The Open Source CFD Toolbox
   \\    /   O peration     | Website:  https://openfoam.org
    \\  /    A nd           | Version:  7
     \\/     M anipulation  |
\*---------------------------------------------------------------------------*/
FoamFile
{
    version     2.0;
    format      ascii;
    class       volScalarField;
    location    "5e-05";
    object      T;
}
// * * * * * * * * * * * * * * * * * * * * * * * * * * * * * * * * * * * * * //

dimensions      [0 0 0 1 0 0 0];

internalField   nonuniform List<scalar> 
126
(
301.103
301.103
301.103
301.103
301.103
301.103
301.102
301.102
301.102
301.101
301.101
301.101
301.1
301.1
301.1
301.099
301.099
301.099
301.098
301.098
301.098
301.097
301.097
301.097
301.096
301.096
301.095
301.095
301.095
301.094
301.094
301.093
301.093
301.092
301.092
301.091
301.091
301.09
301.09
301.089
301.088
301.088
301.087
301.086
301.086
301.085
301.084
301.083
301.082
301.082
301.081
301.08
301.079
301.078
301.076
301.075
301.074
301.073
301.072
301.07
301.069
301.067
301.066
301.064
301.063
301.061
301.059
301.057
301.056
301.054
301.052
301.05
301.047
301.045
301.043
301.041
301.038
301.036
301.033
301.031
301.028
301.025
301.023
301.02
301.017
301.014
301.011
301.008
301.005
301.001
300.998
300.995
300.991
300.988
300.984
300.981
300.977
300.973
300.97
300.966
300.962
300.958
300.954
300.951
300.947
300.943
300.939
300.935
300.931
300.926
300.922
300.918
300.914
300.91
300.906
300.901
300.897
300.893
300.888
300.884
300.88
300.875
300.871
300.866
300.861
300.856
)
;

boundaryField
{
    boundary
    {
        type            empty;
    }
    inlet
    {
        type            fixedValue;
        value           nonuniform 0();
    }
    outlet
    {
        type            zeroGradient;
    }
    procBoundary3to1
    {
        type            processor;
        value           uniform 300.851;
    }
    procBoundary3to2
    {
        type            processor;
        value           uniform 301.104;
    }
}


// ************************************************************************* //
