/*--------------------------------*- C++ -*----------------------------------*\
  =========                 |
  \\      /  F ield         | OpenFOAM: The Open Source CFD Toolbox
   \\    /   O peration     | Website:  https://openfoam.org
    \\  /    A nd           | Version:  7
     \\/     M anipulation  |
\*---------------------------------------------------------------------------*/
FoamFile
{
    version     2.0;
    format      ascii;
    class       volVectorField;
    location    "5e-05";
    object      U;
}
// * * * * * * * * * * * * * * * * * * * * * * * * * * * * * * * * * * * * * //

dimensions      [0 1 -1 0 0 0 0];

internalField   nonuniform List<vector> 
126
(
(1.68461 0 0)
(1.6797 0 0)
(1.6747 0 0)
(1.6697 0 0)
(1.66481 0 0)
(1.65996 0 0)
(1.65513 0 0)
(1.65034 0 0)
(1.64559 0 0)
(1.6409 0 0)
(1.63623 0 0)
(1.63162 0 0)
(1.62704 0 0)
(1.62252 0 0)
(1.61805 0 0)
(1.61362 0 0)
(1.60924 0 0)
(1.60492 0 0)
(1.60064 0 0)
(1.59642 0 0)
(1.59225 0 0)
(1.58814 0 0)
(1.58409 0 0)
(1.58009 0 0)
(1.57615 0 0)
(1.57227 0 0)
(1.56844 0 0)
(1.56468 0 0)
(1.56099 0 0)
(1.55737 0 0)
(1.55379 0 0)
(1.55026 0 0)
(1.54681 0 0)
(1.54344 0 0)
(1.54013 0 0)
(1.53688 0 0)
(1.5337 0 0)
(1.53059 0 0)
(1.52754 0 0)
(1.52456 0 0)
(1.52165 0 0)
(1.51881 0 0)
(1.51604 0 0)
(1.51333 0 0)
(1.51071 0 0)
(1.50816 0 0)
(1.50568 0 0)
(1.50322 0 0)
(1.50087 0 0)
(1.4986 0 0)
(1.49639 0 0)
(1.49425 0 0)
(1.49217 0 0)
(1.49017 0 0)
(1.48823 0 0)
(1.48637 0 0)
(1.48457 0 0)
(1.48284 0 0)
(1.48118 0 0)
(1.47958 0 0)
(1.47804 0 0)
(1.4766 0 0)
(1.4752 0 0)
(1.47383 0 0)
(1.47256 0 0)
(1.47136 0 0)
(1.47021 0 0)
(1.46912 0 0)
(1.46808 0 0)
(1.46711 0 0)
(1.46619 0 0)
(1.46532 0 0)
(1.46451 0 0)
(1.46375 0 0)
(1.46305 0 0)
(1.46237 0 0)
(1.46179 0 0)
(1.46122 0 0)
(1.46069 0 0)
(1.46021 0 0)
(1.45978 0 0)
(1.45938 0 0)
(1.45902 0 0)
(1.4587 0 0)
(1.4584 0 0)
(1.45814 0 0)
(1.45791 0 0)
(1.4577 0 0)
(1.45752 0 0)
(1.45735 0 0)
(1.45723 0 0)
(1.45709 0 0)
(1.45697 0 0)
(1.45688 0 0)
(1.4568 0 0)
(1.45672 0 0)
(1.45664 0 0)
(1.45657 0 0)
(1.45649 0 0)
(1.45641 0 0)
(1.45633 0 0)
(1.45624 0 0)
(1.45613 0 0)
(1.456 0 0)
(1.4559 0 0)
(1.45572 0 0)
(1.45553 0 0)
(1.45534 0 0)
(1.45512 0 0)
(1.45486 0 0)
(1.45457 0 0)
(1.45425 0 0)
(1.45389 0 0)
(1.4535 0 0)
(1.45307 0 0)
(1.4526 0 0)
(1.45207 0 0)
(1.45153 0 0)
(1.45095 0 0)
(1.45026 0 0)
(1.44957 0 0)
(1.44886 0 0)
(1.4481 0 0)
(1.44727 0 0)
(1.4464 0 0)
(1.44547 0 0)
)
;

boundaryField
{
    boundary
    {
        type            empty;
    }
    inlet
    {
        type            fixedValue;
        value           nonuniform 0();
    }
    outlet
    {
        type            zeroGradient;
    }
    procBoundary3to1
    {
        type            processor;
        value           uniform (1.44458 0 0);
    }
    procBoundary3to2
    {
        type            processor;
        value           uniform (1.68962 0 0);
    }
}


// ************************************************************************* //
