/*--------------------------------*- C++ -*----------------------------------*\
  =========                 |
  \\      /  F ield         | OpenFOAM: The Open Source CFD Toolbox
   \\    /   O peration     | Website:  https://openfoam.org
    \\  /    A nd           | Version:  7
     \\/     M anipulation  |
\*---------------------------------------------------------------------------*/
FoamFile
{
    version     2.0;
    format      ascii;
    class       volScalarField;
    location    "0.00012";
    object      p;
}
// * * * * * * * * * * * * * * * * * * * * * * * * * * * * * * * * * * * * * //

dimensions      [1 -1 -2 0 0 0 0];

internalField   nonuniform List<scalar> 
125
(
102958
102958
102958
102958
102958
102958
102959
102959
102959
102959
102959
102959
102959
102960
102960
102960
102960
102960
102960
102960
102960
102961
102961
102961
102961
102961
102961
102961
102961
102960
102958
102956
102954
102951
102949
102947
102946
102945
102944
102943
102942
102941
102941
102941
102940
102940
102940
102939
102939
102939
102939
102938
102938
102938
102938
102938
102938
102938
102938
102937
102937
102937
102937
102937
102937
102937
102937
102937
102937
102937
102937
102936
102936
102936
102936
102936
102936
102936
102936
102936
102936
102936
102936
102936
102936
102936
102936
102936
102936
102936
102936
102936
102935
102935
102935
102935
102935
102935
102935
102935
102935
102935
102935
102935
102935
102935
102935
102935
102935
102935
102935
102935
102935
102935
102935
102935
102934
102934
102934
102934
102934
102934
102934
102934
102934
)
;

boundaryField
{
    boundary
    {
        type            empty;
    }
    inlet
    {
        type            zeroGradient;
    }
    outlet
    {
        type            waveTransmissive;
        gamma           1.4;
        value           nonuniform 0();
    }
    procBoundary1to0
    {
        type            processor;
        value           uniform 102934;
    }
    procBoundary1to3
    {
        type            processor;
        value           uniform 102958;
    }
}


// ************************************************************************* //
