/*--------------------------------*- C++ -*----------------------------------*\
  =========                 |
  \\      /  F ield         | OpenFOAM: The Open Source CFD Toolbox
   \\    /   O peration     | Website:  https://openfoam.org
    \\  /    A nd           | Version:  7
     \\/     M anipulation  |
\*---------------------------------------------------------------------------*/
FoamFile
{
    version     2.0;
    format      ascii;
    class       surfaceScalarField;
    location    "0.00029";
    object      phi;
}
// * * * * * * * * * * * * * * * * * * * * * * * * * * * * * * * * * * * * * //

dimensions      [1 0 -1 0 0 0 0];

internalField   nonuniform List<scalar> 
124
(
6.82407e-06
6.82387e-06
6.82367e-06
6.82347e-06
6.82328e-06
6.82308e-06
6.82288e-06
6.82269e-06
6.8225e-06
6.8223e-06
6.82211e-06
6.82192e-06
6.82173e-06
6.82154e-06
6.82135e-06
6.82117e-06
6.82098e-06
6.8208e-06
6.82062e-06
6.82046e-06
6.82037e-06
6.82048e-06
6.82116e-06
6.82353e-06
6.83069e-06
6.85038e-06
6.89558e-06
6.96686e-06
7.03642e-06
7.08531e-06
7.11694e-06
7.13836e-06
7.15362e-06
7.16455e-06
7.17235e-06
7.17791e-06
7.18196e-06
7.18501e-06
7.18741e-06
7.18933e-06
7.19092e-06
7.19226e-06
7.1934e-06
7.19439e-06
7.19526e-06
7.19603e-06
7.19672e-06
7.19734e-06
7.1979e-06
7.19841e-06
7.19887e-06
7.1993e-06
7.19969e-06
7.20005e-06
7.20038e-06
7.20069e-06
7.20098e-06
7.20124e-06
7.20148e-06
7.20171e-06
7.20192e-06
7.2021e-06
7.20227e-06
7.20242e-06
7.20256e-06
7.20269e-06
7.20281e-06
7.20292e-06
7.20302e-06
7.20311e-06
7.20319e-06
7.20326e-06
7.20333e-06
7.20338e-06
7.20344e-06
7.20348e-06
7.20353e-06
7.20357e-06
7.2036e-06
7.20364e-06
7.20368e-06
7.20372e-06
7.20376e-06
7.20381e-06
7.20386e-06
7.20392e-06
7.20399e-06
7.20408e-06
7.20417e-06
7.20428e-06
7.20441e-06
7.20456e-06
7.20473e-06
7.20492e-06
7.20514e-06
7.20539e-06
7.20567e-06
7.20598e-06
7.20633e-06
7.20671e-06
7.20714e-06
7.2076e-06
7.20811e-06
7.20866e-06
7.20925e-06
7.20989e-06
7.21057e-06
7.21129e-06
7.21204e-06
7.21283e-06
7.21365e-06
7.2145e-06
7.21537e-06
7.21624e-06
7.21712e-06
7.21798e-06
7.21883e-06
7.21963e-06
7.22039e-06
7.22107e-06
7.22167e-06
7.22215e-06
7.22251e-06
7.22271e-06
)
;

boundaryField
{
    boundary
    {
        type            empty;
        value           nonuniform 0();
    }
    inlet
    {
        type            calculated;
        value           nonuniform 0();
    }
    outlet
    {
        type            calculated;
        value           nonuniform 0();
    }
    procBoundary1to0
    {
        type            processor;
        value           uniform 7.22273e-06;
    }
    procBoundary1to3
    {
        type            processor;
        value           uniform -6.82427e-06;
    }
}


// ************************************************************************* //
