/*--------------------------------*- C++ -*----------------------------------*\
  =========                 |
  \\      /  F ield         | OpenFOAM: The Open Source CFD Toolbox
   \\    /   O peration     | Website:  https://openfoam.org
    \\  /    A nd           | Version:  7
     \\/     M anipulation  |
\*---------------------------------------------------------------------------*/
FoamFile
{
    version     2.0;
    format      ascii;
    class       volScalarField;
    location    "0.00059";
    object      H2O2;
}
// * * * * * * * * * * * * * * * * * * * * * * * * * * * * * * * * * * * * * //

dimensions      [0 0 0 0 0 0 0];

internalField   nonuniform List<scalar> 
500
(
1.99139e-52
6.39763e-52
1.27227e-51
2.09749e-51
3.11635e-51
4.32981e-51
5.73877e-51
7.34408e-51
9.1466e-51
1.11472e-50
1.33471e-50
1.57477e-50
1.83509e-50
2.11594e-50
2.41766e-50
2.74071e-50
3.08567e-50
3.45328e-50
3.84448e-50
4.26037e-50
4.70229e-50
5.17181e-50
5.67066e-50
6.20081e-50
6.76432e-50
7.36333e-50
7.99995e-50
8.67611e-50
9.39345e-50
1.01532e-49
1.09558e-49
1.1801e-49
1.26876e-49
1.36132e-49
1.45744e-49
1.55663e-49
1.65829e-49
1.76172e-49
1.86611e-49
1.97057e-49
2.07416e-49
2.17595e-49
2.27499e-49
2.37041e-49
2.46139e-49
2.54724e-49
2.6274e-49
2.70144e-49
2.7691e-49
2.83025e-49
2.88492e-49
2.93326e-49
2.97554e-49
3.01213e-49
3.04344e-49
3.06996e-49
3.09217e-49
3.11058e-49
3.12569e-49
3.13795e-49
3.1478e-49
3.15563e-49
3.16181e-49
3.16662e-49
3.17034e-49
3.17318e-49
3.17534e-49
3.17696e-49
3.17816e-49
3.17905e-49
3.1797e-49
3.18018e-49
3.18052e-49
3.18077e-49
3.18095e-49
3.18108e-49
3.18117e-49
3.18124e-49
3.18129e-49
3.18133e-49
3.18137e-49
3.1814e-49
3.18143e-49
3.18145e-49
3.18148e-49
3.18151e-49
3.18154e-49
3.18156e-49
3.1816e-49
3.18163e-49
3.18166e-49
3.1817e-49
3.18174e-49
3.18178e-49
3.18183e-49
3.18187e-49
3.18192e-49
3.18197e-49
3.18203e-49
3.18209e-49
3.18215e-49
3.18221e-49
3.18228e-49
3.18235e-49
3.18242e-49
3.1825e-49
3.18258e-49
3.18266e-49
3.18275e-49
3.18284e-49
3.18294e-49
3.18304e-49
3.18314e-49
3.18325e-49
3.18336e-49
3.18348e-49
3.1836e-49
3.18372e-49
3.18385e-49
3.18398e-49
3.18409e-49
3.18414e-49
3.18393e-49
3.18266e-49
3.17718e-49
3.16619e-49
3.16634e-49
3.1665e-49
3.16669e-49
3.1669e-49
3.16716e-49
3.16748e-49
3.16787e-49
3.16837e-49
3.16897e-49
3.1697e-49
3.17057e-49
3.17158e-49
3.17273e-49
3.17398e-49
3.17532e-49
3.17671e-49
3.17809e-49
3.17942e-49
3.18064e-49
3.18172e-49
3.18262e-49
3.18332e-49
3.18381e-49
3.18412e-49
3.18424e-49
3.18422e-49
3.1841e-49
3.18392e-49
3.18371e-49
3.18352e-49
3.18339e-49
3.18333e-49
3.18339e-49
3.18356e-49
3.18385e-49
3.18427e-49
3.18481e-49
3.18546e-49
3.18619e-49
3.18701e-49
3.18788e-49
3.18878e-49
3.18971e-49
3.19064e-49
3.19155e-49
3.19243e-49
3.19328e-49
3.19408e-49
3.19483e-49
3.19552e-49
3.19615e-49
3.19673e-49
3.19725e-49
3.19772e-49
3.19814e-49
3.19851e-49
3.19884e-49
3.19912e-49
3.19937e-49
3.19959e-49
3.19977e-49
3.19993e-49
3.20006e-49
3.20015e-49
3.20023e-49
3.20027e-49
3.20029e-49
3.20028e-49
3.20024e-49
3.20017e-49
3.20008e-49
3.19995e-49
3.19979e-49
3.1996e-49
3.19938e-49
3.19912e-49
3.19884e-49
3.19859e-49
3.19878e-49
3.20171e-49
3.22108e-49
3.33711e-49
4.01494e-49
7.92823e-49
3.0305e-48
1.57087e-47
8.68837e-47
4.82794e-46
2.66476e-45
1.4579e-44
7.90311e-44
4.24461e-43
2.25859e-42
1.19069e-41
6.21909e-41
3.21839e-40
1.65026e-39
8.38483e-39
4.22178e-38
2.10666e-37
1.04192e-36
5.10819e-36
2.48284e-35
1.19658e-34
5.71898e-34
2.71116e-33
1.27507e-32
5.95045e-32
2.75615e-31
1.26737e-30
5.78727e-30
2.62506e-29
1.18316e-28
5.30069e-28
2.36138e-27
1.04642e-26
4.61451e-26
2.02581e-25
8.8572e-25
3.85828e-24
1.67516e-23
7.25183e-23
3.13125e-22
1.34899e-21
5.80031e-21
2.50383e-20
1.07582e-19
4.60817e-19
1.97129e-18
8.4263e-18
3.59989e-17
1.53734e-16
6.56336e-16
2.80147e-15
1.19555e-14
5.10135e-14
2.17637e-13
9.28321e-13
3.95877e-12
1.68765e-11
7.19136e-11
3.0625e-10
1.30312e-09
5.53864e-09
2.35045e-08
9.95132e-08
4.19462e-07
1.74863e-06
7.04869e-06
2.55753e-05
6.94248e-05
0.000111668
0.000122232
8.48208e-05
4.05858e-05
1.63597e-05
7.23792e-06
4.69241e-06
4.49019e-06
4.99849e-06
5.71373e-06
6.2156e-06
6.54893e-06
6.72536e-06
6.77765e-06
6.73967e-06
6.6397e-06
6.49907e-06
6.33309e-06
6.15265e-06
5.96521e-06
5.77587e-06
5.58804e-06
5.404e-06
5.22521e-06
5.05256e-06
4.88655e-06
4.72743e-06
4.57525e-06
4.42993e-06
4.29132e-06
4.1592e-06
4.03332e-06
3.91345e-06
3.79934e-06
3.69082e-06
3.5908e-06
3.49673e-06
3.40646e-06
3.3198e-06
3.23658e-06
3.15662e-06
3.07977e-06
3.00587e-06
2.9348e-06
2.8664e-06
2.80055e-06
2.73714e-06
2.67604e-06
2.61714e-06
2.56034e-06
2.50554e-06
2.45265e-06
2.40158e-06
2.35225e-06
2.30457e-06
2.25848e-06
2.21391e-06
2.17078e-06
2.12903e-06
2.08861e-06
2.04945e-06
2.0115e-06
1.97472e-06
1.93905e-06
1.90445e-06
1.87087e-06
1.83827e-06
1.80661e-06
1.77586e-06
1.74599e-06
1.71694e-06
1.6887e-06
1.66124e-06
1.63452e-06
1.60852e-06
1.5832e-06
1.55856e-06
1.53455e-06
1.51116e-06
1.48837e-06
1.46615e-06
1.44449e-06
1.42337e-06
1.40276e-06
1.38265e-06
1.36302e-06
1.34386e-06
1.32515e-06
1.30688e-06
1.28903e-06
1.27159e-06
1.25455e-06
1.23789e-06
1.2216e-06
1.20567e-06
1.19009e-06
1.17485e-06
1.15994e-06
1.14535e-06
1.13107e-06
1.11706e-06
1.10334e-06
1.0899e-06
1.07674e-06
1.06383e-06
1.05118e-06
1.03879e-06
1.02663e-06
1.01471e-06
1.00302e-06
9.91545e-07
9.80292e-07
9.69249e-07
9.58412e-07
9.47775e-07
9.37333e-07
9.2708e-07
9.17013e-07
9.07125e-07
8.97414e-07
8.87875e-07
8.78502e-07
8.69293e-07
8.60244e-07
8.5135e-07
8.42607e-07
8.34013e-07
8.25564e-07
8.17256e-07
8.09085e-07
8.01049e-07
7.93145e-07
7.85369e-07
7.77718e-07
7.70189e-07
7.62779e-07
7.55486e-07
7.48307e-07
7.41239e-07
7.34279e-07
7.27425e-07
7.20673e-07
7.14023e-07
7.07471e-07
7.01014e-07
6.94651e-07
6.88379e-07
6.82196e-07
6.761e-07
6.70088e-07
6.64159e-07
6.58309e-07
6.52538e-07
6.46842e-07
6.4122e-07
6.35669e-07
6.30187e-07
6.24775e-07
6.19444e-07
6.14111e-07
6.08618e-07
6.02056e-07
5.96979e-07
5.91856e-07
5.86753e-07
5.81684e-07
5.76651e-07
5.7165e-07
5.66678e-07
5.61731e-07
5.56805e-07
5.51897e-07
5.47003e-07
5.4212e-07
5.37244e-07
5.32371e-07
5.27499e-07
5.22624e-07
5.17742e-07
5.12851e-07
5.07946e-07
5.03026e-07
4.98086e-07
4.93126e-07
4.8814e-07
4.83128e-07
4.78087e-07
4.73015e-07
4.67911e-07
4.62772e-07
4.57599e-07
4.5239e-07
4.47145e-07
4.41864e-07
4.36549e-07
4.312e-07
4.2582e-07
4.2041e-07
4.14973e-07
4.09514e-07
4.04035e-07
3.98541e-07
3.93039e-07
3.87532e-07
3.82028e-07
3.76533e-07
3.71055e-07
3.65601e-07
3.60179e-07
3.54798e-07
3.49468e-07
3.44197e-07
3.38997e-07
3.33879e-07
3.28855e-07
3.23943e-07
3.1916e-07
3.14534e-07
3.10107e-07
3.05946e-07
3.02172e-07
2.9901e-07
2.96921e-07
)
;

boundaryField
{
    boundary
    {
        type            empty;
    }
    inlet
    {
        type            fixedValue;
        value           uniform 0;
    }
    outlet
    {
        type            zeroGradient;
    }
}


// ************************************************************************* //
