/*--------------------------------*- C++ -*----------------------------------*\
  =========                 |
  \\      /  F ield         | OpenFOAM: The Open Source CFD Toolbox
   \\    /   O peration     | Website:  https://openfoam.org
    \\  /    A nd           | Version:  7
     \\/     M anipulation  |
\*---------------------------------------------------------------------------*/
FoamFile
{
    version     2.0;
    format      ascii;
    class       volScalarField;
    location    "0.00059";
    object      OH;
}
// * * * * * * * * * * * * * * * * * * * * * * * * * * * * * * * * * * * * * //

dimensions      [0 0 0 0 0 0 0];

internalField   nonuniform List<scalar> 
500
(
9.35571e-48
1.82073e-47
2.42455e-47
2.83304e-47
3.10957e-47
3.29777e-47
3.42701e-47
3.51694e-47
3.58066e-47
3.62689e-47
3.66148e-47
3.68834e-47
3.71013e-47
3.72867e-47
3.74525e-47
3.76081e-47
3.77607e-47
3.79161e-47
3.80794e-47
3.82555e-47
3.84488e-47
3.86642e-47
3.89066e-47
3.91809e-47
3.94923e-47
3.98462e-47
4.02477e-47
4.07021e-47
4.1214e-47
4.17878e-47
4.24271e-47
4.31346e-47
4.39119e-47
4.47593e-47
4.56756e-47
4.66579e-47
4.77017e-47
4.88008e-47
4.99472e-47
5.11313e-47
5.23423e-47
5.35682e-47
5.47964e-47
5.60138e-47
5.72077e-47
5.83658e-47
5.9477e-47
6.05312e-47
6.15205e-47
6.24385e-47
6.3281e-47
6.40456e-47
6.47319e-47
6.53414e-47
6.58768e-47
6.6342e-47
6.67422e-47
6.70828e-47
6.73697e-47
6.7609e-47
6.78067e-47
6.79683e-47
6.80993e-47
6.82043e-47
6.82879e-47
6.83537e-47
6.84051e-47
6.84449e-47
6.84755e-47
6.84987e-47
6.85163e-47
6.85295e-47
6.85394e-47
6.85467e-47
6.85521e-47
6.85561e-47
6.85591e-47
6.85613e-47
6.8563e-47
6.85643e-47
6.85653e-47
6.85662e-47
6.8567e-47
6.85677e-47
6.85684e-47
6.8569e-47
6.85697e-47
6.85703e-47
6.8571e-47
6.85718e-47
6.85725e-47
6.85733e-47
6.85742e-47
6.85751e-47
6.8576e-47
6.8577e-47
6.8578e-47
6.85791e-47
6.85802e-47
6.85814e-47
6.85827e-47
6.8584e-47
6.85854e-47
6.85868e-47
6.85883e-47
6.85899e-47
6.85915e-47
6.85932e-47
6.8595e-47
6.85968e-47
6.85987e-47
6.86007e-47
6.86028e-47
6.8605e-47
6.86072e-47
6.86095e-47
6.86119e-47
6.86144e-47
6.86169e-47
6.86196e-47
6.86223e-47
6.86251e-47
6.86282e-47
6.86323e-47
6.86395e-47
6.86483e-47
6.86475e-47
6.86464e-47
6.86454e-47
6.8645e-47
6.86455e-47
6.86471e-47
6.86497e-47
6.86534e-47
6.86579e-47
6.8663e-47
6.86686e-47
6.86744e-47
6.86803e-47
6.86862e-47
6.86919e-47
6.86975e-47
6.8703e-47
6.87083e-47
6.87134e-47
6.87185e-47
6.87235e-47
6.87284e-47
6.87333e-47
6.87383e-47
6.87432e-47
6.87482e-47
6.87532e-47
6.87582e-47
6.87633e-47
6.87685e-47
6.87737e-47
6.8779e-47
6.87844e-47
6.87899e-47
6.87954e-47
6.88011e-47
6.88068e-47
6.88126e-47
6.88185e-47
6.88245e-47
6.88305e-47
6.88365e-47
6.88426e-47
6.88486e-47
6.88547e-47
6.88606e-47
6.88665e-47
6.88723e-47
6.88779e-47
6.88834e-47
6.88887e-47
6.88939e-47
6.88988e-47
6.89035e-47
6.8908e-47
6.89121e-47
6.89161e-47
6.89197e-47
6.8923e-47
6.8926e-47
6.89286e-47
6.89309e-47
6.89328e-47
6.89343e-47
6.89354e-47
6.89361e-47
6.89363e-47
6.89361e-47
6.89353e-47
6.89341e-47
6.89325e-47
6.89311e-47
6.89321e-47
6.89455e-47
6.90124e-47
6.93025e-47
7.05115e-47
7.54678e-47
9.55845e-47
1.76557e-46
4.99939e-46
1.78148e-45
6.82102e-45
2.6486e-44
1.02629e-43
3.95181e-43
1.51051e-42
5.72973e-42
2.15674e-41
8.05581e-41
2.98589e-40
1.09824e-39
4.00861e-39
1.45203e-38
5.21983e-38
1.86235e-37
6.59497e-37
2.31813e-36
8.08848e-36
2.80181e-35
9.63593e-35
3.29063e-34
1.11597e-33
3.759e-33
1.25781e-32
4.18175e-32
1.38165e-31
4.53777e-31
1.48187e-30
4.81321e-30
1.5555e-29
5.00362e-29
1.60279e-28
5.11533e-28
1.6276e-27
5.16695e-27
1.63816e-26
5.19355e-26
1.64926e-25
5.25786e-25
1.68779e-24
5.47657e-24
1.80505e-23
6.07767e-23
2.10325e-22
7.55792e-22
2.81071e-21
1.0841e-20
4.33531e-20
1.7907e-19
7.59817e-19
3.29279e-18
1.44971e-17
6.45568e-17
2.89766e-16
1.3076e-15
5.92117e-15
2.68692e-14
1.22067e-13
5.54819e-13
2.52186e-12
1.14601e-11
5.2056e-11
2.36975e-10
1.09237e-09
5.0804e-09
2.37706e-08
1.13013e-07
5.67276e-07
3.25526e-06
2.18852e-05
0.000136291
0.000468832
0.000759983
0.000912883
0.00120498
0.00187972
0.00298175
0.00433254
0.00569317
0.00706594
0.00808273
0.00888608
0.00951358
0.0100026
0.0103857
0.0106884
0.0109296
0.0111235
0.0112803
0.0114077
0.0115112
0.0115953
0.0116633
0.0117177
0.0117608
0.0117942
0.0118192
0.011837
0.0118487
0.0118549
0.0118564
0.0118538
0.0118475
0.011838
0.0118257
0.0118114
0.0117955
0.0117779
0.0117587
0.011738
0.011716
0.0116928
0.0116686
0.0116434
0.0116173
0.0115904
0.0115629
0.0115346
0.0115059
0.0114766
0.0114468
0.0114166
0.0113861
0.0113553
0.0113242
0.0112928
0.0112613
0.0112295
0.0111976
0.0111656
0.0111335
0.0111013
0.011069
0.0110367
0.0110044
0.0109721
0.0109398
0.0109075
0.0108753
0.0108431
0.010811
0.010779
0.010747
0.0107151
0.0106834
0.0106517
0.0106202
0.0105888
0.0105575
0.0105264
0.0104953
0.0104645
0.0104337
0.0104032
0.0103727
0.0103424
0.0103123
0.0102823
0.0102525
0.0102228
0.0101933
0.0101639
0.0101347
0.0101056
0.0100767
0.010048
0.0100194
0.00999097
0.00996277
0.00993467
0.00990652
0.00987851
0.00985064
0.00982289
0.00979528
0.00976779
0.00974044
0.00971322
0.00968612
0.00965916
0.00963232
0.00960562
0.00957904
0.0095526
0.00952628
0.0095001
0.00947405
0.00944813
0.00942235
0.0093967
0.00937119
0.00934581
0.00932056
0.00929545
0.00927047
0.00924563
0.00922093
0.00919635
0.00917191
0.0091476
0.00912342
0.00909937
0.00907545
0.00905165
0.00902797
0.00900441
0.00898097
0.00895764
0.00893442
0.0089113
0.00888828
0.00886535
0.00884251
0.00881975
0.00879706
0.00877444
0.00875187
0.00872935
0.00870687
0.00868442
0.00866199
0.00863956
0.00861711
0.00859465
0.00857215
0.00854959
0.00852696
0.00850426
0.0084815
0.00845867
0.00843431
0.00840614
0.00838278
0.00835888
0.00833464
0.0083101
0.00828524
0.00826005
0.0082345
0.00820855
0.00818218
0.00815538
0.0081281
0.00810035
0.00807208
0.0080433
0.00801397
0.0079841
0.00795365
0.00792264
0.00789106
0.0078589
0.00782616
0.00779287
0.00775902
0.00772463
0.00768973
0.00765434
0.00761849
0.00758222
0.00754556
0.00750856
0.00747128
0.00743375
0.00739605
0.00735824
0.00732038
0.00728254
0.00724479
0.00720721
0.00716988
0.00713287
0.00709626
0.00706013
0.00702457
0.00698964
0.00695543
0.00692202
0.00688947
0.00685787
0.00682729
0.00679779
0.00676947
0.0067424
0.00671667
0.00669238
0.00666967
0.00664871
0.00662972
0.00661302
0.00659906
0.00658844
0.00658213
)
;

boundaryField
{
    boundary
    {
        type            empty;
    }
    inlet
    {
        type            fixedValue;
        value           uniform 0;
    }
    outlet
    {
        type            zeroGradient;
    }
}


// ************************************************************************* //
