/*--------------------------------*- C++ -*----------------------------------*\
  =========                 |
  \\      /  F ield         | OpenFOAM: The Open Source CFD Toolbox
   \\    /   O peration     | Website:  https://openfoam.org
    \\  /    A nd           | Version:  7
     \\/     M anipulation  |
\*---------------------------------------------------------------------------*/
FoamFile
{
    version     2.0;
    format      ascii;
    class       surfaceScalarField;
    location    "0.00059";
    object      phi;
}
// * * * * * * * * * * * * * * * * * * * * * * * * * * * * * * * * * * * * * //

dimensions      [1 0 -1 0 0 0 0];

internalField   nonuniform List<scalar> 
499
(
6.93423e-06
6.93501e-06
6.93576e-06
6.93646e-06
6.93712e-06
6.93774e-06
6.93832e-06
6.93888e-06
6.93941e-06
6.93993e-06
6.94044e-06
6.94093e-06
6.94142e-06
6.9419e-06
6.94237e-06
6.94284e-06
6.94329e-06
6.94373e-06
6.94415e-06
6.94455e-06
6.94492e-06
6.94526e-06
6.94557e-06
6.94582e-06
6.94603e-06
6.94617e-06
6.94626e-06
6.94627e-06
6.9462e-06
6.94605e-06
6.94582e-06
6.9455e-06
6.94509e-06
6.94461e-06
6.94404e-06
6.9434e-06
6.9427e-06
6.94195e-06
6.94116e-06
6.94034e-06
6.9395e-06
6.93867e-06
6.93786e-06
6.93708e-06
6.93635e-06
6.93566e-06
6.93505e-06
6.93451e-06
6.93405e-06
6.93367e-06
6.93338e-06
6.93318e-06
6.93306e-06
6.93302e-06
6.93306e-06
6.93318e-06
6.93336e-06
6.9336e-06
6.93389e-06
6.93424e-06
6.93462e-06
6.93505e-06
6.9355e-06
6.93598e-06
6.93648e-06
6.937e-06
6.93753e-06
6.93808e-06
6.93863e-06
6.9392e-06
6.93977e-06
6.94034e-06
6.94091e-06
6.94149e-06
6.94207e-06
6.94265e-06
6.94324e-06
6.94382e-06
6.94441e-06
6.94499e-06
6.94557e-06
6.94616e-06
6.94674e-06
6.94733e-06
6.94791e-06
6.9485e-06
6.94908e-06
6.94967e-06
6.95025e-06
6.95083e-06
6.95142e-06
6.952e-06
6.95258e-06
6.95317e-06
6.95375e-06
6.95433e-06
6.95492e-06
6.9555e-06
6.95608e-06
6.95666e-06
6.95725e-06
6.95783e-06
6.95841e-06
6.95899e-06
6.95957e-06
6.96015e-06
6.96074e-06
6.96132e-06
6.9619e-06
6.96248e-06
6.96306e-06
6.96364e-06
6.96422e-06
6.9648e-06
6.96538e-06
6.96596e-06
6.96654e-06
6.96712e-06
6.9677e-06
6.96828e-06
6.96885e-06
6.96943e-06
6.97001e-06
6.97059e-06
6.97116e-06
6.97171e-06
6.97229e-06
6.97287e-06
6.97346e-06
6.97404e-06
6.97462e-06
6.9752e-06
6.97578e-06
6.97635e-06
6.97693e-06
6.9775e-06
6.97808e-06
6.97865e-06
6.97922e-06
6.9798e-06
6.98037e-06
6.98094e-06
6.98151e-06
6.98208e-06
6.98265e-06
6.98323e-06
6.9838e-06
6.98437e-06
6.98494e-06
6.98551e-06
6.98608e-06
6.98665e-06
6.98722e-06
6.98779e-06
6.98836e-06
6.98892e-06
6.98949e-06
6.99006e-06
6.99063e-06
6.9912e-06
6.99176e-06
6.99233e-06
6.9929e-06
6.99346e-06
6.99403e-06
6.9946e-06
6.99516e-06
6.99573e-06
6.99629e-06
6.99686e-06
6.99742e-06
6.99799e-06
6.99855e-06
6.99911e-06
6.99968e-06
7.00024e-06
7.00081e-06
7.00137e-06
7.00193e-06
7.0025e-06
7.00306e-06
7.00362e-06
7.00419e-06
7.00475e-06
7.00531e-06
7.00588e-06
7.00644e-06
7.007e-06
7.00757e-06
7.00813e-06
7.0087e-06
7.00926e-06
7.00982e-06
7.01039e-06
7.01095e-06
7.01152e-06
7.01208e-06
7.01265e-06
7.01321e-06
7.01378e-06
7.01434e-06
7.01491e-06
7.01548e-06
7.01604e-06
7.01661e-06
7.01718e-06
7.01775e-06
7.01832e-06
7.01889e-06
7.01946e-06
7.02003e-06
7.0206e-06
7.02117e-06
7.02174e-06
7.02231e-06
7.02289e-06
7.02346e-06
7.02404e-06
7.02461e-06
7.02519e-06
7.02577e-06
7.02634e-06
7.02692e-06
7.0275e-06
7.02808e-06
7.02867e-06
7.02925e-06
7.02983e-06
7.03042e-06
7.031e-06
7.03159e-06
7.03217e-06
7.03276e-06
7.03335e-06
7.03394e-06
7.03453e-06
7.03513e-06
7.03572e-06
7.03631e-06
7.03691e-06
7.03751e-06
7.03811e-06
7.0387e-06
7.0393e-06
7.0399e-06
7.04051e-06
7.04111e-06
7.04171e-06
7.04232e-06
7.04293e-06
7.04353e-06
7.04412e-06
7.04473e-06
7.04534e-06
7.04596e-06
7.04657e-06
7.04719e-06
7.0478e-06
7.04841e-06
7.04903e-06
7.04964e-06
7.05025e-06
7.05086e-06
7.05148e-06
7.05209e-06
7.0527e-06
7.05332e-06
7.05393e-06
7.05455e-06
7.05519e-06
7.05589e-06
7.05675e-06
7.05809e-06
7.06077e-06
7.06706e-06
7.082e-06
7.11152e-06
7.15058e-06
7.18388e-06
7.20609e-06
7.22053e-06
7.23048e-06
7.2376e-06
7.2427e-06
7.24637e-06
7.24904e-06
7.25102e-06
7.25255e-06
7.25379e-06
7.25481e-06
7.25567e-06
7.25642e-06
7.25708e-06
7.25766e-06
7.25818e-06
7.25866e-06
7.25909e-06
7.25949e-06
7.25986e-06
7.26021e-06
7.26053e-06
7.26083e-06
7.26112e-06
7.26138e-06
7.26164e-06
7.26188e-06
7.26211e-06
7.26234e-06
7.26255e-06
7.26275e-06
7.26295e-06
7.26314e-06
7.26331e-06
7.26348e-06
7.26365e-06
7.26381e-06
7.26397e-06
7.26413e-06
7.26428e-06
7.26443e-06
7.26458e-06
7.26472e-06
7.26487e-06
7.26501e-06
7.26515e-06
7.26529e-06
7.26543e-06
7.26557e-06
7.26571e-06
7.26584e-06
7.26598e-06
7.26612e-06
7.26625e-06
7.26639e-06
7.26652e-06
7.26665e-06
7.26679e-06
7.26692e-06
7.26705e-06
7.26719e-06
7.26732e-06
7.26745e-06
7.26758e-06
7.26771e-06
7.26784e-06
7.26797e-06
7.2681e-06
7.26822e-06
7.26835e-06
7.26847e-06
7.26859e-06
7.26872e-06
7.26884e-06
7.26895e-06
7.26907e-06
7.26919e-06
7.2693e-06
7.26941e-06
7.26953e-06
7.26964e-06
7.26974e-06
7.26985e-06
7.26996e-06
7.27006e-06
7.27017e-06
7.27027e-06
7.27037e-06
7.27047e-06
7.27057e-06
7.27067e-06
7.27077e-06
7.27087e-06
7.27097e-06
7.27107e-06
7.27116e-06
7.27124e-06
7.2713e-06
7.27139e-06
7.27148e-06
7.27159e-06
7.27169e-06
7.27179e-06
7.2719e-06
7.27201e-06
7.27212e-06
7.27222e-06
7.27233e-06
7.27244e-06
7.27255e-06
7.27265e-06
7.27276e-06
7.27287e-06
7.27297e-06
7.27308e-06
7.27318e-06
7.27329e-06
7.27339e-06
7.27349e-06
7.27359e-06
7.27369e-06
7.27379e-06
7.27388e-06
7.27397e-06
7.27407e-06
7.27415e-06
7.27424e-06
7.27433e-06
7.27441e-06
7.27449e-06
7.27457e-06
7.27464e-06
7.27471e-06
7.27478e-06
7.27485e-06
7.27492e-06
7.27498e-06
7.27504e-06
7.2751e-06
7.27516e-06
7.27521e-06
7.27527e-06
7.27532e-06
7.27537e-06
7.27543e-06
7.27548e-06
7.27554e-06
7.27559e-06
7.27565e-06
7.27572e-06
7.27579e-06
7.27587e-06
7.27595e-06
7.27605e-06
7.27615e-06
7.27626e-06
7.27637e-06
7.27671e-06
7.27561e-06
7.27588e-06
7.27604e-06
7.27619e-06
7.27635e-06
7.27652e-06
7.27672e-06
7.27693e-06
7.27717e-06
7.27742e-06
7.27769e-06
7.27799e-06
7.2783e-06
7.27864e-06
7.27899e-06
7.27937e-06
7.27975e-06
7.28016e-06
7.28057e-06
7.281e-06
7.28143e-06
7.28187e-06
7.2823e-06
7.28272e-06
7.28313e-06
7.28353e-06
7.28389e-06
7.28422e-06
7.28451e-06
7.28474e-06
7.28491e-06
7.285e-06
7.28501e-06
7.28493e-06
7.28473e-06
7.28441e-06
7.28396e-06
7.28337e-06
7.28261e-06
7.28169e-06
7.28058e-06
7.27928e-06
7.27777e-06
7.27605e-06
7.2741e-06
7.27192e-06
7.2695e-06
7.26684e-06
7.26394e-06
7.26078e-06
7.25738e-06
7.25373e-06
7.24984e-06
7.24572e-06
7.24136e-06
7.23679e-06
7.23202e-06
7.22704e-06
7.22189e-06
7.21658e-06
7.21112e-06
7.20553e-06
)
;

boundaryField
{
    boundary
    {
        type            empty;
        value           nonuniform 0();
    }
    inlet
    {
        type            calculated;
        value           uniform -6.93342e-06;
    }
    outlet
    {
        type            calculated;
        value           uniform 7.19986e-06;
    }
}


// ************************************************************************* //
