/*--------------------------------*- C++ -*----------------------------------*\
  =========                 |
  \\      /  F ield         | OpenFOAM: The Open Source CFD Toolbox
   \\    /   O peration     | Website:  https://openfoam.org
    \\  /    A nd           | Version:  7
     \\/     M anipulation  |
\*---------------------------------------------------------------------------*/
FoamFile
{
    version     2.0;
    format      ascii;
    class       volScalarField;
    location    "0.00059";
    object      Qdot;
}
// * * * * * * * * * * * * * * * * * * * * * * * * * * * * * * * * * * * * * //

dimensions      [1 -1 -3 0 0 0 0];

internalField   nonuniform List<scalar> 
500
(
-2.44905e-27
-1.85557e-27
-1.72572e-27
-1.69654e-27
-1.68974e-27
-1.68838e-27
-1.68868e-27
-1.68974e-27
-1.69126e-27
-1.69311e-27
-1.69519e-27
-1.69747e-27
-1.69991e-27
-1.70252e-27
-1.70531e-27
-1.70834e-27
-1.71166e-27
-1.71534e-27
-1.71949e-27
-1.72421e-27
-1.72963e-27
-1.73588e-27
-1.74311e-27
-1.7515e-27
-1.76121e-27
-1.77241e-27
-1.78528e-27
-1.79998e-27
-1.81668e-27
-1.8355e-27
-1.85657e-27
-1.87995e-27
-1.90568e-27
-1.93376e-27
-1.96413e-27
-1.99668e-27
-2.03123e-27
-2.06756e-27
-2.10538e-27
-2.14437e-27
-2.18415e-27
-2.22431e-27
-2.26444e-27
-2.3041e-27
-2.34288e-27
-2.38039e-27
-2.41626e-27
-2.45019e-27
-2.48193e-27
-2.51129e-27
-2.53815e-27
-2.56246e-27
-2.58421e-27
-2.60348e-27
-2.62035e-27
-2.63497e-27
-2.64752e-27
-2.65817e-27
-2.66712e-27
-2.67457e-27
-2.68071e-27
-2.68572e-27
-2.68978e-27
-2.69302e-27
-2.6956e-27
-2.69763e-27
-2.69921e-27
-2.70043e-27
-2.70137e-27
-2.70208e-27
-2.70262e-27
-2.70302e-27
-2.70332e-27
-2.70355e-27
-2.70372e-27
-2.70384e-27
-2.70393e-27
-2.704e-27
-2.70405e-27
-2.7041e-27
-2.70413e-27
-2.70416e-27
-2.70419e-27
-2.70421e-27
-2.70423e-27
-2.70426e-27
-2.70428e-27
-2.7043e-27
-2.70433e-27
-2.70435e-27
-2.70438e-27
-2.70441e-27
-2.70444e-27
-2.70447e-27
-2.7045e-27
-2.70453e-27
-2.70457e-27
-2.70461e-27
-2.70465e-27
-2.70469e-27
-2.70473e-27
-2.70477e-27
-2.70482e-27
-2.70487e-27
-2.70492e-27
-2.70497e-27
-2.70503e-27
-2.70508e-27
-2.70514e-27
-2.7052e-27
-2.70527e-27
-2.70533e-27
-2.7054e-27
-2.70547e-27
-2.70555e-27
-2.70562e-27
-2.7057e-27
-2.70579e-27
-2.70587e-27
-2.70596e-27
-2.70605e-27
-2.70614e-27
-2.70625e-27
-2.70642e-27
-2.70679e-27
-2.7074e-27
-2.70733e-27
-2.70725e-27
-2.70718e-27
-2.70714e-27
-2.70713e-27
-2.70716e-27
-2.70723e-27
-2.70732e-27
-2.70745e-27
-2.70759e-27
-2.70775e-27
-2.70791e-27
-2.70808e-27
-2.70825e-27
-2.70841e-27
-2.70858e-27
-2.70874e-27
-2.7089e-27
-2.70905e-27
-2.70921e-27
-2.70937e-27
-2.70953e-27
-2.70969e-27
-2.70985e-27
-2.71001e-27
-2.71017e-27
-2.71034e-27
-2.71051e-27
-2.71067e-27
-2.71084e-27
-2.71102e-27
-2.71119e-27
-2.71137e-27
-2.71155e-27
-2.71173e-27
-2.71191e-27
-2.7121e-27
-2.71229e-27
-2.71248e-27
-2.71267e-27
-2.71286e-27
-2.71306e-27
-2.71325e-27
-2.71344e-27
-2.71363e-27
-2.71382e-27
-2.71401e-27
-2.7142e-27
-2.71438e-27
-2.71455e-27
-2.71472e-27
-2.71489e-27
-2.71504e-27
-2.71519e-27
-2.71534e-27
-2.71547e-27
-2.7156e-27
-2.71572e-27
-2.71583e-27
-2.71592e-27
-2.71601e-27
-2.71609e-27
-2.71615e-27
-2.7162e-27
-2.71624e-27
-2.71627e-27
-2.71628e-27
-2.71628e-27
-2.71626e-27
-2.71622e-27
-2.71617e-27
-2.7161e-27
-2.71601e-27
-2.7159e-27
-2.71577e-27
-2.71562e-27
-2.71545e-27
-2.71525e-27
-2.71503e-27
-2.71479e-27
-2.71452e-27
-2.71422e-27
-2.71389e-27
-2.71352e-27
-2.71304e-27
-2.71228e-27
-2.71052e-27
-2.70503e-27
-2.68572e-27
-2.6152e-27
-2.3561e-27
-1.40782e-27
2.04012e-27
1.44855e-26
5.90717e-26
2.17608e-25
7.77116e-25
2.73716e-24
9.55322e-24
3.30848e-23
1.13745e-22
3.88291e-22
1.31633e-21
4.43225e-21
1.48253e-20
4.92706e-20
1.62729e-19
5.3424e-19
1.74388e-18
5.66152e-18
1.82861e-17
5.87805e-17
1.88121e-16
5.99679e-16
1.90497e-15
6.03382e-15
1.90689e-14
6.01808e-14
1.89873e-13
5.99746e-13
1.90023e-12
6.05486e-12
1.94688e-11
6.34471e-11
2.10688e-10
7.2043e-10
2.53412e-09
9.22109e-09
3.48476e-08
1.36785e-07
5.56008e-07
2.32881e-06
9.99246e-06
4.36781e-05
0.000193568
0.000866447
0.00390705
0.0177185
0.0807534
0.369967
1.70625
7.94462
38.0277
199.366
1224.59
9033.05
66454
585181
5.50991e+06
5.20912e+07
4.41913e+08
2.58089e+09
7.85465e+09
1.24711e+10
1.37978e+10
1.39188e+10
1.3919e+10
1.34317e+10
1.21392e+10
1.02674e+10
8.31034e+09
6.76039e+09
5.61484e+09
4.7397e+09
4.07039e+09
3.55007e+09
3.13751e+09
2.80389e+09
2.52907e+09
2.29906e+09
2.10382e+09
1.93609e+09
1.7905e+09
1.66299e+09
1.55046e+09
1.45046e+09
1.36108e+09
1.28075e+09
1.20821e+09
1.14244e+09
1.08255e+09
1.02783e+09
9.77679e+08
9.31575e+08
8.89101e+08
8.49948e+08
8.14729e+08
7.825e+08
7.522e+08
7.23771e+08
6.9703e+08
6.7184e+08
6.48063e+08
6.25597e+08
6.04343e+08
5.84207e+08
5.65111e+08
5.46978e+08
5.29745e+08
5.13348e+08
4.97732e+08
4.82846e+08
4.68642e+08
4.55079e+08
4.42116e+08
4.29716e+08
4.17847e+08
4.06476e+08
3.95576e+08
3.85119e+08
3.75081e+08
3.65439e+08
3.56171e+08
3.47257e+08
3.38679e+08
3.3042e+08
3.22463e+08
3.14793e+08
3.07396e+08
3.00259e+08
2.93368e+08
2.86713e+08
2.80283e+08
2.74067e+08
2.68056e+08
2.62239e+08
2.56609e+08
2.51158e+08
2.45877e+08
2.4076e+08
2.35799e+08
2.30988e+08
2.2632e+08
2.21791e+08
2.17394e+08
2.13123e+08
2.08975e+08
2.04944e+08
2.01026e+08
1.97217e+08
1.93511e+08
1.89906e+08
1.86398e+08
1.82983e+08
1.79658e+08
1.76419e+08
1.73264e+08
1.70191e+08
1.67198e+08
1.64282e+08
1.61436e+08
1.58657e+08
1.55941e+08
1.53292e+08
1.50705e+08
1.4818e+08
1.45713e+08
1.43304e+08
1.4095e+08
1.3865e+08
1.36401e+08
1.34203e+08
1.32054e+08
1.29952e+08
1.27896e+08
1.25885e+08
1.23917e+08
1.21991e+08
1.20106e+08
1.18261e+08
1.16454e+08
1.14685e+08
1.12953e+08
1.11256e+08
1.09594e+08
1.07966e+08
1.0637e+08
1.04807e+08
1.03274e+08
1.01772e+08
1.003e+08
9.8856e+07
9.74404e+07
9.60521e+07
9.46905e+07
9.3355e+07
9.20449e+07
9.07593e+07
8.94981e+07
8.82605e+07
8.70459e+07
8.58538e+07
8.46837e+07
8.3535e+07
8.24072e+07
8.12999e+07
8.02127e+07
7.91449e+07
7.80964e+07
7.70665e+07
7.60549e+07
7.50612e+07
7.40849e+07
7.31263e+07
7.21841e+07
7.12588e+07
7.03506e+07
6.94619e+07
6.8601e+07
6.78326e+07
6.70946e+07
6.57593e+07
6.48954e+07
6.41263e+07
6.33442e+07
6.25643e+07
6.17897e+07
6.10224e+07
6.02636e+07
5.95126e+07
5.87716e+07
5.80392e+07
5.7315e+07
5.65987e+07
5.58899e+07
5.51881e+07
5.44928e+07
5.38037e+07
5.31197e+07
5.24413e+07
5.17674e+07
5.10976e+07
5.04313e+07
4.97682e+07
4.91077e+07
4.84493e+07
4.77925e+07
4.71368e+07
4.64817e+07
4.58269e+07
4.51717e+07
4.45158e+07
4.38587e+07
4.32001e+07
4.25396e+07
4.18768e+07
4.12115e+07
4.05434e+07
3.98723e+07
3.91979e+07
3.85202e+07
3.7839e+07
3.71544e+07
3.64664e+07
3.57749e+07
3.50801e+07
3.43822e+07
3.36815e+07
3.29779e+07
3.22721e+07
3.15642e+07
3.08547e+07
3.01441e+07
2.94327e+07
2.8721e+07
2.80095e+07
2.72981e+07
2.65872e+07
2.58758e+07
2.51635e+07
2.44467e+07
2.37278e+07
2.30276e+07
2.24676e+07
)
;

boundaryField
{
    boundary
    {
        type            empty;
    }
    inlet
    {
        type            calculated;
        value           uniform 0;
    }
    outlet
    {
        type            calculated;
        value           uniform 0;
    }
}


// ************************************************************************* //
