/*--------------------------------*- C++ -*----------------------------------*\
  =========                 |
  \\      /  F ield         | OpenFOAM: The Open Source CFD Toolbox
   \\    /   O peration     | Website:  https://openfoam.org
    \\  /    A nd           | Version:  7
     \\/     M anipulation  |
\*---------------------------------------------------------------------------*/
FoamFile
{
    version     2.0;
    format      ascii;
    class       volScalarField;
    location    "0.00059";
    object      rho;
}
// * * * * * * * * * * * * * * * * * * * * * * * * * * * * * * * * * * * * * //

dimensions      [1 -3 0 0 0 0 0];

internalField   nonuniform List<scalar> 
500
(
0.865101
0.865122
0.865138
0.865148
0.865154
0.865155
0.865152
0.865146
0.865137
0.865127
0.865115
0.865103
0.865089
0.865074
0.865059
0.865042
0.865023
0.865002
0.864979
0.864953
0.864923
0.864888
0.864848
0.864803
0.86475
0.864689
0.86462
0.864542
0.864454
0.864355
0.864246
0.864127
0.863997
0.863857
0.863708
0.863551
0.863387
0.863218
0.863044
0.862869
0.862693
0.862518
0.862347
0.86218
0.86202
0.861867
0.861723
0.861589
0.861464
0.861351
0.861248
0.861156
0.861074
0.861002
0.860939
0.860884
0.860838
0.860799
0.860766
0.860739
0.860716
0.860698
0.860683
0.860671
0.860661
0.860654
0.860648
0.860644
0.86064
0.860637
0.860635
0.860634
0.860633
0.860632
0.860631
0.860631
0.86063
0.86063
0.86063
0.86063
0.86063
0.86063
0.860629
0.860629
0.860629
0.860629
0.860629
0.860629
0.860629
0.860629
0.860629
0.860629
0.860629
0.860628
0.860628
0.860628
0.860628
0.860628
0.860628
0.860628
0.860627
0.860627
0.860627
0.860627
0.860627
0.860627
0.860626
0.860626
0.860626
0.860626
0.860625
0.860625
0.860625
0.860625
0.860624
0.860624
0.860624
0.860624
0.860623
0.860623
0.860623
0.860622
0.860622
0.860621
0.86062
0.860618
0.860618
0.860618
0.860618
0.860619
0.860619
0.860619
0.860618
0.860618
0.860618
0.860617
0.860616
0.860616
0.860615
0.860615
0.860614
0.860613
0.860613
0.860612
0.860612
0.860611
0.860611
0.86061
0.860609
0.860609
0.860608
0.860608
0.860607
0.860607
0.860606
0.860605
0.860605
0.860604
0.860603
0.860603
0.860602
0.860601
0.860601
0.8606
0.860599
0.860599
0.860598
0.860597
0.860597
0.860596
0.860595
0.860595
0.860594
0.860593
0.860593
0.860592
0.860591
0.860591
0.86059
0.86059
0.860589
0.860589
0.860588
0.860588
0.860587
0.860587
0.860587
0.860586
0.860586
0.860586
0.860586
0.860586
0.860586
0.860586
0.860586
0.860586
0.860586
0.860586
0.860587
0.860587
0.860587
0.860588
0.860589
0.860589
0.86059
0.860591
0.860592
0.860593
0.860594
0.860595
0.860596
0.860598
0.860599
0.860601
0.860603
0.860605
0.860607
0.860609
0.860611
0.860614
0.860616
0.860619
0.860622
0.860625
0.860628
0.860631
0.860634
0.860638
0.860642
0.860645
0.860649
0.860654
0.860658
0.860662
0.860667
0.860672
0.860677
0.860682
0.860687
0.860693
0.860698
0.860704
0.86071
0.860716
0.860722
0.860729
0.860735
0.860742
0.860749
0.860756
0.860762
0.860769
0.860777
0.860785
0.860793
0.860801
0.860809
0.860818
0.860826
0.860834
0.860843
0.860851
0.86086
0.860868
0.860877
0.860887
0.860896
0.860904
0.860904
0.860875
0.860751
0.860327
0.858993
0.854975
0.843296
0.811443
0.737318
0.613654
0.481657
0.382801
0.318222
0.27507
0.244695
0.223028
0.20791
0.196683
0.187909
0.181564
0.176842
0.173018
0.169859
0.167194
0.164905
0.162912
0.161155
0.159591
0.158186
0.156916
0.15576
0.154702
0.153729
0.152831
0.151998
0.151223
0.1505
0.149823
0.149187
0.14859
0.148026
0.147494
0.146991
0.146516
0.146077
0.145668
0.145273
0.144895
0.144532
0.144182
0.143845
0.143521
0.143207
0.142905
0.142613
0.14233
0.142057
0.141792
0.141536
0.141287
0.141046
0.140811
0.140584
0.140363
0.140147
0.139938
0.139735
0.139536
0.139343
0.139155
0.138971
0.138792
0.138617
0.138446
0.138279
0.138116
0.137957
0.137801
0.137649
0.1375
0.137354
0.137211
0.137071
0.136934
0.1368
0.136668
0.136539
0.136413
0.136288
0.136166
0.136047
0.135929
0.135814
0.1357
0.135589
0.13548
0.135372
0.135266
0.135163
0.13506
0.13496
0.134861
0.134764
0.134668
0.134574
0.134481
0.13439
0.1343
0.134211
0.134124
0.134038
0.133953
0.13387
0.133788
0.133707
0.133628
0.133549
0.133472
0.133395
0.13332
0.133245
0.133172
0.1331
0.133028
0.132958
0.132888
0.13282
0.132752
0.132685
0.132619
0.132553
0.132489
0.132425
0.132362
0.1323
0.132238
0.132177
0.132117
0.132057
0.131998
0.13194
0.131882
0.131825
0.131768
0.131712
0.131657
0.131602
0.131548
0.131494
0.131441
0.131388
0.131336
0.131284
0.131233
0.131183
0.131133
0.131083
0.131034
0.130986
0.130938
0.13089
0.130843
0.130797
0.130752
0.130707
0.130662
0.130618
0.130576
0.13053
0.130487
0.130432
0.130391
0.130351
0.130311
0.130271
0.130233
0.130195
0.130158
0.130122
0.130086
0.130051
0.130017
0.129983
0.12995
0.129918
0.129886
0.129855
0.129825
0.129795
0.129765
0.129736
0.129706
0.129677
0.129648
0.129619
0.12959
0.12956
0.129529
0.129498
0.129466
0.129433
0.129399
0.129363
0.129325
0.129286
0.129244
0.1292
0.129154
0.129104
0.129052
0.128997
0.128938
0.128876
0.128811
0.128741
0.128668
0.128591
0.128511
0.128426
0.128337
0.128245
0.128149
0.128049
0.127946
0.12784
0.12773
0.127619
0.127506
0.127393
0.127284
0.127188
0.127122
)
;

boundaryField
{
    boundary
    {
        type            empty;
    }
    inlet
    {
        type            calculated;
        value           uniform 0.865083;
    }
    outlet
    {
        type            calculated;
        value           uniform 0.127122;
    }
}


// ************************************************************************* //
