/*--------------------------------*- C++ -*----------------------------------*\
  =========                 |
  \\      /  F ield         | OpenFOAM: The Open Source CFD Toolbox
   \\    /   O peration     | Website:  https://openfoam.org
    \\  /    A nd           | Version:  7
     \\/     M anipulation  |
\*---------------------------------------------------------------------------*/
FoamFile
{
    version     2.0;
    format      ascii;
    class       volScalarField;
    location    "0.00059";
    object      T;
}
// * * * * * * * * * * * * * * * * * * * * * * * * * * * * * * * * * * * * * //

dimensions      [0 0 0 1 0 0 0];

internalField   nonuniform List<scalar> 
500
(
299.994
299.986
299.981
299.977
299.975
299.975
299.976
299.978
299.981
299.985
299.989
299.993
299.998
300.003
300.008
300.014
300.021
300.028
300.036
300.045
300.056
300.067
300.081
300.097
300.116
300.137
300.161
300.188
300.218
300.253
300.29
300.332
300.377
300.426
300.477
300.532
300.589
300.648
300.709
300.77
300.831
300.892
300.952
301.01
301.066
301.119
301.17
301.217
301.26
301.3
301.336
301.368
301.397
301.422
301.444
301.463
301.479
301.493
301.505
301.514
301.522
301.528
301.534
301.538
301.541
301.544
301.546
301.547
301.549
301.55
301.55
301.551
301.551
301.551
301.552
301.552
301.552
301.552
301.552
301.552
301.552
301.552
301.552
301.552
301.552
301.552
301.552
301.552
301.552
301.552
301.553
301.553
301.553
301.553
301.553
301.553
301.553
301.553
301.553
301.553
301.553
301.553
301.553
301.553
301.553
301.553
301.553
301.553
301.553
301.554
301.554
301.554
301.554
301.554
301.554
301.554
301.554
301.554
301.554
301.554
301.555
301.555
301.555
301.555
301.556
301.556
301.556
301.556
301.556
301.556
301.556
301.556
301.556
301.556
301.556
301.556
301.557
301.557
301.557
301.557
301.558
301.558
301.558
301.558
301.558
301.559
301.559
301.559
301.559
301.559
301.559
301.56
301.56
301.56
301.56
301.561
301.561
301.561
301.561
301.561
301.562
301.562
301.562
301.562
301.563
301.563
301.563
301.563
301.564
301.564
301.564
301.564
301.564
301.565
301.565
301.565
301.565
301.566
301.566
301.566
301.566
301.566
301.566
301.567
301.567
301.567
301.567
301.567
301.567
301.567
301.567
301.567
301.567
301.567
301.567
301.567
301.567
301.567
301.567
301.567
301.567
301.566
301.566
301.566
301.566
301.565
301.565
301.565
301.564
301.564
301.563
301.563
301.562
301.562
301.561
301.56
301.56
301.559
301.558
301.557
301.556
301.556
301.555
301.554
301.552
301.551
301.55
301.549
301.548
301.546
301.545
301.543
301.542
301.54
301.539
301.537
301.535
301.533
301.531
301.53
301.528
301.526
301.523
301.521
301.519
301.517
301.515
301.512
301.51
301.507
301.505
301.503
301.5
301.497
301.494
301.492
301.489
301.486
301.483
301.48
301.477
301.474
301.471
301.468
301.465
301.463
301.461
301.461
301.467
301.489
301.558
301.761
302.34
303.99
308.67
321.743
355.997
431.342
555.555
707.461
861.313
1007.52
1143.05
1262.77
1361.38
1444.64
1515.61
1572.21
1617.5
1656.31
1689.97
1719.58
1745.95
1769.66
1791.16
1810.8
1828.85
1845.51
1860.97
1875.37
1888.83
1901.45
1913.32
1924.51
1935.09
1945.1
1954.6
1963.64
1972.24
1980.44
1988.26
1995.73
2002.67
2009.2
2015.52
2021.62
2027.53
2033.25
2038.8
2044.17
2049.38
2054.45
2059.37
2064.15
2068.8
2073.32
2077.73
2082.02
2086.21
2090.29
2094.27
2098.15
2101.94
2105.65
2109.27
2112.81
2116.27
2119.65
2122.96
2126.21
2129.38
2132.49
2135.54
2138.53
2141.46
2144.33
2147.15
2149.91
2152.63
2155.29
2157.91
2160.48
2163.01
2165.5
2167.94
2170.34
2172.7
2175.02
2177.31
2179.56
2181.77
2183.95
2186.1
2188.21
2190.29
2192.34
2194.36
2196.35
2198.31
2200.24
2202.15
2204.03
2205.88
2207.7
2209.5
2211.28
2213.03
2214.76
2216.46
2218.14
2219.8
2221.44
2223.05
2224.65
2226.22
2227.77
2229.3
2230.82
2232.31
2233.79
2235.25
2236.69
2238.11
2239.52
2240.91
2242.29
2243.64
2244.99
2246.31
2247.63
2248.93
2250.21
2251.48
2252.73
2253.98
2255.21
2256.42
2257.62
2258.81
2259.99
2261.16
2262.31
2263.45
2264.58
2265.7
2266.8
2267.9
2268.98
2270.05
2271.11
2272.15
2273.19
2274.21
2275.22
2276.22
2277.21
2278.18
2279.15
2280.09
2281.03
2281.95
2282.85
2283.74
2284.62
2285.48
2286.31
2287.2
2288.03
2289.06
2289.84
2290.62
2291.38
2292.12
2292.84
2293.54
2294.22
2294.89
2295.53
2296.16
2296.76
2297.35
2297.92
2298.47
2299.01
2299.52
2300.03
2300.51
2300.98
2301.45
2301.9
2302.34
2302.78
2303.21
2303.64
2304.07
2304.51
2304.96
2305.42
2305.89
2306.39
2306.91
2307.46
2308.04
2308.66
2309.32
2310.03
2310.78
2311.6
2312.47
2313.4
2314.4
2315.47
2316.62
2317.84
2319.13
2320.51
2321.96
2323.49
2325.1
2326.79
2328.56
2330.4
2332.31
2334.28
2336.3
2338.35
2340.4
2342.38
2344.12
2345.31
)
;

boundaryField
{
    boundary
    {
        type            empty;
    }
    inlet
    {
        type            fixedValue;
        value           uniform 300;
    }
    outlet
    {
        type            zeroGradient;
    }
}


// ************************************************************************* //
