/*--------------------------------*- C++ -*----------------------------------*\
  =========                 |
  \\      /  F ield         | OpenFOAM: The Open Source CFD Toolbox
   \\    /   O peration     | Website:  https://openfoam.org
    \\  /    A nd           | Version:  7
     \\/     M anipulation  |
\*---------------------------------------------------------------------------*/
FoamFile
{
    version     2.0;
    format      ascii;
    class       volVectorField;
    location    "0.00059";
    object      U;
}
// * * * * * * * * * * * * * * * * * * * * * * * * * * * * * * * * * * * * * //

dimensions      [0 1 -1 0 0 0 0];

internalField   nonuniform List<vector> 
500
(
(2.34898 0 0)
(2.3492 0 0)
(2.34945 0 0)
(2.34968 0 0)
(2.34989 0 0)
(2.3501 0 0)
(2.35031 0 0)
(2.35052 0 0)
(2.35073 0 0)
(2.35093 0 0)
(2.35114 0 0)
(2.35134 0 0)
(2.35155 0 0)
(2.35175 0 0)
(2.35195 0 0)
(2.35216 0 0)
(2.35237 0 0)
(2.35257 0 0)
(2.35278 0 0)
(2.35299 0 0)
(2.35321 0 0)
(2.35342 0 0)
(2.35364 0 0)
(2.35386 0 0)
(2.35408 0 0)
(2.35431 0 0)
(2.35453 0 0)
(2.35476 0 0)
(2.35499 0 0)
(2.35523 0 0)
(2.35546 0 0)
(2.35569 0 0)
(2.35592 0 0)
(2.35615 0 0)
(2.35638 0 0)
(2.3566 0 0)
(2.35682 0 0)
(2.35704 0 0)
(2.35725 0 0)
(2.35745 0 0)
(2.35765 0 0)
(2.35784 0 0)
(2.35803 0 0)
(2.35822 0 0)
(2.3584 0 0)
(2.35857 0 0)
(2.35875 0 0)
(2.35892 0 0)
(2.35909 0 0)
(2.35925 0 0)
(2.35942 0 0)
(2.35959 0 0)
(2.35976 0 0)
(2.35993 0 0)
(2.36011 0 0)
(2.36028 0 0)
(2.36046 0 0)
(2.36064 0 0)
(2.36082 0 0)
(2.36101 0 0)
(2.36119 0 0)
(2.36138 0 0)
(2.36157 0 0)
(2.36176 0 0)
(2.36196 0 0)
(2.36215 0 0)
(2.36235 0 0)
(2.36254 0 0)
(2.36274 0 0)
(2.36294 0 0)
(2.36314 0 0)
(2.36334 0 0)
(2.36353 0 0)
(2.36373 0 0)
(2.36393 0 0)
(2.36413 0 0)
(2.36433 0 0)
(2.36453 0 0)
(2.36473 0 0)
(2.36493 0 0)
(2.36513 0 0)
(2.36533 0 0)
(2.36553 0 0)
(2.36573 0 0)
(2.36593 0 0)
(2.36613 0 0)
(2.36632 0 0)
(2.36652 0 0)
(2.36672 0 0)
(2.36692 0 0)
(2.36712 0 0)
(2.36732 0 0)
(2.36752 0 0)
(2.36772 0 0)
(2.36792 0 0)
(2.36812 0 0)
(2.36832 0 0)
(2.36851 0 0)
(2.36871 0 0)
(2.36891 0 0)
(2.36911 0 0)
(2.36931 0 0)
(2.36951 0 0)
(2.36971 0 0)
(2.36991 0 0)
(2.3701 0 0)
(2.3703 0 0)
(2.3705 0 0)
(2.3707 0 0)
(2.3709 0 0)
(2.3711 0 0)
(2.3713 0 0)
(2.37149 0 0)
(2.37169 0 0)
(2.37189 0 0)
(2.37209 0 0)
(2.37229 0 0)
(2.37249 0 0)
(2.37269 0 0)
(2.37288 0 0)
(2.37308 0 0)
(2.37328 0 0)
(2.37348 0 0)
(2.37368 0 0)
(2.37389 0 0)
(2.37409 0 0)
(2.37427 0 0)
(2.37445 0 0)
(2.37466 0 0)
(2.37486 0 0)
(2.37506 0 0)
(2.37525 0 0)
(2.37545 0 0)
(2.37565 0 0)
(2.37585 0 0)
(2.37604 0 0)
(2.37624 0 0)
(2.37644 0 0)
(2.37663 0 0)
(2.37683 0 0)
(2.37702 0 0)
(2.37722 0 0)
(2.37742 0 0)
(2.37761 0 0)
(2.37781 0 0)
(2.378 0 0)
(2.3782 0 0)
(2.3784 0 0)
(2.37859 0 0)
(2.37879 0 0)
(2.37898 0 0)
(2.37918 0 0)
(2.37938 0 0)
(2.37957 0 0)
(2.37977 0 0)
(2.37996 0 0)
(2.38016 0 0)
(2.38035 0 0)
(2.38055 0 0)
(2.38074 0 0)
(2.38094 0 0)
(2.38113 0 0)
(2.38133 0 0)
(2.38152 0 0)
(2.38172 0 0)
(2.38191 0 0)
(2.38211 0 0)
(2.3823 0 0)
(2.38249 0 0)
(2.38269 0 0)
(2.38288 0 0)
(2.38308 0 0)
(2.38327 0 0)
(2.38346 0 0)
(2.38366 0 0)
(2.38385 0 0)
(2.38405 0 0)
(2.38424 0 0)
(2.38443 0 0)
(2.38463 0 0)
(2.38482 0 0)
(2.38501 0 0)
(2.38521 0 0)
(2.3854 0 0)
(2.38559 0 0)
(2.38579 0 0)
(2.38598 0 0)
(2.38617 0 0)
(2.38636 0 0)
(2.38656 0 0)
(2.38675 0 0)
(2.38694 0 0)
(2.38713 0 0)
(2.38733 0 0)
(2.38752 0 0)
(2.38771 0 0)
(2.3879 0 0)
(2.38809 0 0)
(2.38828 0 0)
(2.38848 0 0)
(2.38867 0 0)
(2.38886 0 0)
(2.38905 0 0)
(2.38924 0 0)
(2.38943 0 0)
(2.38962 0 0)
(2.38981 0 0)
(2.39001 0 0)
(2.3902 0 0)
(2.39039 0 0)
(2.39058 0 0)
(2.39077 0 0)
(2.39096 0 0)
(2.39115 0 0)
(2.39134 0 0)
(2.39153 0 0)
(2.39172 0 0)
(2.39191 0 0)
(2.3921 0 0)
(2.39229 0 0)
(2.39248 0 0)
(2.39267 0 0)
(2.39285 0 0)
(2.39304 0 0)
(2.39323 0 0)
(2.39342 0 0)
(2.39361 0 0)
(2.3938 0 0)
(2.39399 0 0)
(2.39418 0 0)
(2.39436 0 0)
(2.39455 0 0)
(2.39474 0 0)
(2.39493 0 0)
(2.39512 0 0)
(2.39531 0 0)
(2.39549 0 0)
(2.39568 0 0)
(2.39587 0 0)
(2.39606 0 0)
(2.39624 0 0)
(2.39643 0 0)
(2.39662 0 0)
(2.39681 0 0)
(2.397 0 0)
(2.39718 0 0)
(2.39737 0 0)
(2.39756 0 0)
(2.39774 0 0)
(2.39793 0 0)
(2.39813 0 0)
(2.39832 0 0)
(2.39848 0 0)
(2.39866 0 0)
(2.39886 0 0)
(2.39905 0 0)
(2.39923 0 0)
(2.39942 0 0)
(2.3996 0 0)
(2.39979 0 0)
(2.39997 0 0)
(2.40016 0 0)
(2.40034 0 0)
(2.40052 0 0)
(2.40071 0 0)
(2.40089 0 0)
(2.40107 0 0)
(2.40127 0 0)
(2.40149 0 0)
(2.40181 0 0)
(2.4025 0 0)
(2.40428 0 0)
(2.40931 0 0)
(2.42327 0 0)
(2.45944 0 0)
(2.54652 0 0)
(2.74691 0 0)
(3.175 0 0)
(4.00212 0 0)
(5.15025 0 0)
(6.38954 0 0)
(7.54894 0 0)
(8.57424 0 0)
(9.45373 0 0)
(10.1849 0 0)
(10.7889 0 0)
(11.2913 0 0)
(11.6985 0 0)
(12.0223 0 0)
(12.2886 0 0)
(12.5174 0 0)
(12.7183 0 0)
(12.8963 0 0)
(13.0554 0 0)
(13.1989 0 0)
(13.3292 0 0)
(13.4485 0 0)
(13.5581 0 0)
(13.6595 0 0)
(13.7536 0 0)
(13.8413 0 0)
(13.9233 0 0)
(14.0002 0 0)
(14.0725 0 0)
(14.1406 0 0)
(14.205 0 0)
(14.266 0 0)
(14.3239 0 0)
(14.3788 0 0)
(14.4311 0 0)
(14.4809 0 0)
(14.5283 0 0)
(14.5723 0 0)
(14.6136 0 0)
(14.6535 0 0)
(14.6922 0 0)
(14.7294 0 0)
(14.7655 0 0)
(14.8004 0 0)
(14.8342 0 0)
(14.8669 0 0)
(14.8987 0 0)
(14.9295 0 0)
(14.9594 0 0)
(14.9885 0 0)
(15.0168 0 0)
(15.0443 0 0)
(15.0711 0 0)
(15.0971 0 0)
(15.1225 0 0)
(15.1473 0 0)
(15.1715 0 0)
(15.195 0 0)
(15.218 0 0)
(15.2405 0 0)
(15.2625 0 0)
(15.2839 0 0)
(15.3049 0 0)
(15.3254 0 0)
(15.3454 0 0)
(15.3651 0 0)
(15.3843 0 0)
(15.4031 0 0)
(15.4216 0 0)
(15.4397 0 0)
(15.4574 0 0)
(15.4748 0 0)
(15.4918 0 0)
(15.5085 0 0)
(15.5249 0 0)
(15.5411 0 0)
(15.5569 0 0)
(15.5724 0 0)
(15.5877 0 0)
(15.6027 0 0)
(15.6174 0 0)
(15.6319 0 0)
(15.6461 0 0)
(15.6601 0 0)
(15.6739 0 0)
(15.6874 0 0)
(15.7008 0 0)
(15.7139 0 0)
(15.7268 0 0)
(15.7395 0 0)
(15.752 0 0)
(15.7644 0 0)
(15.7765 0 0)
(15.7885 0 0)
(15.8003 0 0)
(15.8119 0 0)
(15.8233 0 0)
(15.8346 0 0)
(15.8457 0 0)
(15.8567 0 0)
(15.8674 0 0)
(15.878 0 0)
(15.8888 0 0)
(15.8992 0 0)
(15.9093 0 0)
(15.9194 0 0)
(15.9294 0 0)
(15.9393 0 0)
(15.949 0 0)
(15.9586 0 0)
(15.9682 0 0)
(15.9775 0 0)
(15.9868 0 0)
(15.996 0 0)
(16.005 0 0)
(16.0139 0 0)
(16.0228 0 0)
(16.0315 0 0)
(16.0401 0 0)
(16.0487 0 0)
(16.0571 0 0)
(16.0654 0 0)
(16.0737 0 0)
(16.0818 0 0)
(16.0899 0 0)
(16.0979 0 0)
(16.1057 0 0)
(16.1136 0 0)
(16.1213 0 0)
(16.1289 0 0)
(16.1365 0 0)
(16.1439 0 0)
(16.1513 0 0)
(16.1587 0 0)
(16.1659 0 0)
(16.1731 0 0)
(16.1802 0 0)
(16.1872 0 0)
(16.1942 0 0)
(16.2011 0 0)
(16.2079 0 0)
(16.2147 0 0)
(16.2214 0 0)
(16.228 0 0)
(16.2346 0 0)
(16.2411 0 0)
(16.2475 0 0)
(16.2539 0 0)
(16.2603 0 0)
(16.2665 0 0)
(16.2727 0 0)
(16.2789 0 0)
(16.285 0 0)
(16.291 0 0)
(16.297 0 0)
(16.3029 0 0)
(16.3088 0 0)
(16.3146 0 0)
(16.3204 0 0)
(16.326 0 0)
(16.3317 0 0)
(16.3377 0 0)
(16.3428 0 0)
(16.3479 0 0)
(16.3539 0 0)
(16.3595 0 0)
(16.3648 0 0)
(16.3701 0 0)
(16.3753 0 0)
(16.3805 0 0)
(16.3857 0 0)
(16.3908 0 0)
(16.3959 0 0)
(16.401 0 0)
(16.406 0 0)
(16.4109 0 0)
(16.4159 0 0)
(16.4208 0 0)
(16.4256 0 0)
(16.4305 0 0)
(16.4353 0 0)
(16.44 0 0)
(16.4448 0 0)
(16.4495 0 0)
(16.4542 0 0)
(16.4588 0 0)
(16.4635 0 0)
(16.4681 0 0)
(16.4727 0 0)
(16.4773 0 0)
(16.4818 0 0)
(16.4864 0 0)
(16.4909 0 0)
(16.4954 0 0)
(16.4999 0 0)
(16.5044 0 0)
(16.5089 0 0)
(16.5134 0 0)
(16.5179 0 0)
(16.5223 0 0)
(16.5267 0 0)
(16.5311 0 0)
(16.5355 0 0)
(16.5399 0 0)
(16.5442 0 0)
(16.5485 0 0)
(16.5527 0 0)
(16.557 0 0)
(16.5611 0 0)
(16.5652 0 0)
(16.5693 0 0)
(16.5733 0 0)
(16.5773 0 0)
(16.5811 0 0)
(16.5849 0 0)
(16.5887 0 0)
(16.5923 0 0)
(16.5959 0 0)
(16.5994 0 0)
(16.6027 0 0)
(16.6058 0 0)
(16.6086 0 0)
(16.6102 0 0)
(16.6089 0 0)
(16.6011 0 0)
)
;

boundaryField
{
    boundary
    {
        type            empty;
    }
    inlet
    {
        type            fixedValue;
        value           uniform (2.34893 0 0);
    }
    outlet
    {
        type            zeroGradient;
    }
}


// ************************************************************************* //
