/*--------------------------------*- C++ -*----------------------------------*\
  =========                 |
  \\      /  F ield         | OpenFOAM: The Open Source CFD Toolbox
   \\    /   O peration     | Website:  https://openfoam.org
    \\  /    A nd           | Version:  7
     \\/     M anipulation  |
\*---------------------------------------------------------------------------*/
FoamFile
{
    version     2.0;
    format      ascii;
    class       volScalarField;
    location    "0.00099";
    object      H2;
}
// * * * * * * * * * * * * * * * * * * * * * * * * * * * * * * * * * * * * * //

dimensions      [0 0 0 0 0 0 0];

internalField   nonuniform List<scalar> 
500
(
0.0285116
0.0285116
0.0285116
0.0285116
0.0285116
0.0285116
0.0285116
0.0285116
0.0285116
0.0285116
0.0285116
0.0285116
0.0285116
0.0285116
0.0285116
0.0285116
0.0285116
0.0285116
0.0285116
0.0285116
0.0285116
0.0285116
0.0285116
0.0285116
0.0285116
0.0285116
0.0285116
0.0285116
0.0285116
0.0285116
0.0285116
0.0285116
0.0285116
0.0285116
0.0285116
0.0285116
0.0285116
0.0285116
0.0285116
0.0285116
0.0285116
0.0285116
0.0285116
0.0285116
0.0285116
0.0285116
0.0285116
0.0285116
0.0285116
0.0285116
0.0285116
0.0285116
0.0285116
0.0285116
0.0285116
0.0285116
0.0285116
0.0285116
0.0285116
0.0285116
0.0285116
0.0285116
0.0285116
0.0285116
0.0285116
0.0285116
0.0285116
0.0285116
0.0285116
0.0285116
0.0285116
0.0285116
0.0285116
0.0285116
0.0285116
0.0285116
0.0285116
0.0285116
0.0285116
0.0285116
0.0285116
0.0285116
0.0285116
0.0285116
0.0285116
0.0285116
0.0285116
0.0285116
0.0285116
0.0285116
0.0285116
0.0285116
0.0285116
0.0285116
0.0285116
0.0285116
0.0285116
0.0285116
0.0285116
0.0285116
0.0285116
0.0285116
0.0285116
0.0285116
0.0285116
0.0285116
0.0285116
0.0285116
0.0285116
0.0285116
0.0285116
0.0285116
0.0285116
0.0285116
0.0285116
0.0285116
0.0285116
0.0285116
0.0285116
0.0285116
0.0285116
0.0285116
0.0285116
0.0285116
0.0285116
0.0285116
0.0285116
0.0285116
0.0285116
0.0285116
0.0285116
0.0285116
0.0285116
0.0285116
0.0285116
0.0285116
0.0285116
0.0285116
0.0285116
0.0285116
0.0285116
0.0285116
0.0285116
0.0285116
0.0285116
0.0285116
0.0285116
0.0285116
0.0285116
0.0285116
0.0285116
0.0285116
0.0285116
0.0285116
0.0285116
0.0285116
0.0285116
0.0285116
0.0285116
0.0285116
0.0285116
0.0285116
0.0285116
0.0285116
0.0285116
0.0285116
0.0285116
0.0285116
0.0285116
0.0285116
0.0285116
0.0285116
0.0285116
0.0285116
0.0285116
0.0285116
0.0285116
0.0285116
0.0285116
0.0285116
0.0285116
0.0285116
0.0285116
0.0285116
0.0285116
0.0285116
0.0285116
0.0285116
0.0285116
0.0285116
0.0285116
0.0285116
0.0285116
0.0285116
0.0285116
0.0285116
0.0285116
0.0285116
0.0285116
0.0285116
0.0285116
0.0285116
0.0285116
0.0285116
0.0285116
0.0285116
0.0285116
0.0285116
0.0285116
0.0285116
0.0285116
0.0285116
0.0285116
0.0285116
0.0285116
0.0285116
0.0285116
0.0285116
0.0285116
0.0285116
0.0285116
0.0285116
0.0285116
0.0285116
0.0285116
0.0285116
0.0285116
0.0285116
0.0285116
0.0285116
0.0285116
0.0285116
0.0285116
0.0285116
0.0285116
0.0285116
0.0285116
0.0285116
0.0285116
0.0285116
0.0285116
0.0285116
0.0285116
0.0285116
0.0285116
0.0285116
0.0285116
0.0285116
0.0285116
0.0285116
0.0285116
0.0285116
0.0285116
0.0285116
0.0285116
0.0285116
0.0285116
0.0285116
0.0285116
0.0285116
0.0285115
0.0285115
0.0285114
0.0285113
0.0285109
0.0285102
0.0285087
0.0285057
0.0284992
0.0284858
0.0284578
0.0283996
0.0282792
0.0280335
0.0275484
0.0266571
0.0251972
0.0231359
0.0206338
0.0178106
0.0147675
0.0117729
0.00919937
0.00726787
0.00585225
0.00500853
0.00448367
0.00416063
0.00396071
0.00383422
0.0037509
0.00369268
0.00364895
0.00361351
0.00358279
0.00355476
0.00352826
0.00350268
0.00347767
0.00345306
0.00342877
0.00340478
0.00338109
0.00335769
0.0033346
0.00331184
0.00328941
0.00326732
0.00324558
0.00322419
0.00320315
0.00318247
0.00316276
0.00314382
0.00312515
0.00310672
0.00308855
0.00307062
0.00305293
0.00303549
0.00301828
0.00300131
0.00298458
0.00296807
0.0029518
0.00293575
0.00291992
0.00290431
0.00288891
0.00287373
0.00285875
0.00284398
0.00282941
0.00281504
0.00280086
0.00278687
0.00277307
0.00275945
0.002746
0.00273273
0.00271963
0.00270669
0.00269391
0.0026813
0.00266883
0.00265652
0.00264435
0.00263233
0.00262045
0.0026087
0.00259709
0.00258561
0.00257426
0.00256303
0.00255192
0.00254094
0.00253007
0.00251932
0.00250868
0.00249815
0.00248773
0.00247742
0.00246722
0.00245712
0.00244712
0.00243723
0.00242743
0.00241773
0.00240813
0.00239863
0.00238923
0.00237992
0.00237071
0.00236159
0.00235257
0.00234366
0.00233479
0.00232596
0.00231721
0.00230855
0.00229996
0.00229145
0.00228301
0.00227465
0.00226637
0.00225815
0.00225001
0.00224193
0.00223393
0.00222599
0.00221812
0.00221032
0.00220258
0.0021949
0.00218729
0.00217974
0.00217225
0.00216482
0.00215745
0.00215013
0.00214288
0.00213568
0.00212853
0.00212145
0.00211441
0.00210743
0.0021005
0.00209363
0.00208681
0.00208003
0.00207331
0.00206664
0.00206002
0.00205345
0.00204693
0.00204046
0.00203404
0.00202766
0.00202133
0.00201505
0.00200882
0.00200263
0.00199649
0.00199039
0.00198435
0.00197834
0.00197239
0.00196647
0.00196061
0.00195478
0.00194901
0.00194327
0.00193758
0.00193193
0.00192633
0.00192077
0.00191525
0.00190977
0.00190434
0.00189894
0.00189359
0.00188828
0.00188301
0.00187778
0.00187258
0.00186743
0.00186232
0.00185724
0.0018522
0.0018472
0.00184224
0.00183731
0.00183242
0.00182757
0.00182275
0.00181796
0.00181321
0.0018085
0.00180382
0.00179917
0.00179455
0.00178997
0.00178542
0.00178091
0.00177642
0.00177197
0.00176755
0.00176316
0.0017588
0.00175448
0.00175018
0.00174591
0.00174168
0.00173747
0.0017333
0.00172916
0.00172504
0.00172096
0.00171691
0.00171289
0.0017089
0.00170494
0.00170102
0.00169713
0.00169328
0.00168947
0.00168571
0.00168199
0.00167833
0.00167474
0.00167123
0.00166781
0.00166451
0.00166136
0.00165841
0.0016557
0.00165331
0.00165132
0.00164984
0.00164901
)
;

boundaryField
{
    boundary
    {
        type            empty;
    }
    inlet
    {
        type            fixedValue;
        value           uniform 0.0285116;
    }
    outlet
    {
        type            zeroGradient;
    }
}


// ************************************************************************* //
