/*--------------------------------*- C++ -*----------------------------------*\
  =========                 |
  \\      /  F ield         | OpenFOAM: The Open Source CFD Toolbox
   \\    /   O peration     | Website:  https://openfoam.org
    \\  /    A nd           | Version:  7
     \\/     M anipulation  |
\*---------------------------------------------------------------------------*/
FoamFile
{
    version     2.0;
    format      ascii;
    class       volScalarField;
    location    "0.00099";
    object      HO2;
}
// * * * * * * * * * * * * * * * * * * * * * * * * * * * * * * * * * * * * * //

dimensions      [0 0 0 0 0 0 0];

internalField   nonuniform List<scalar> 
500
(
5.59267e-38
1.27277e-37
1.98896e-37
2.7059e-37
3.4232e-37
4.14079e-37
4.85862e-37
5.57661e-37
6.29468e-37
7.0127e-37
7.73057e-37
8.44812e-37
9.1652e-37
9.8816e-37
1.05971e-36
1.13115e-36
1.20246e-36
1.27361e-36
1.34459e-36
1.41539e-36
1.48601e-36
1.55645e-36
1.62672e-36
1.69686e-36
1.76689e-36
1.83686e-36
1.90683e-36
1.97686e-36
2.047e-36
2.11734e-36
2.18793e-36
2.25884e-36
2.33015e-36
2.40192e-36
2.47421e-36
2.54709e-36
2.62063e-36
2.6949e-36
2.76996e-36
2.8459e-36
2.92281e-36
3.0008e-36
3.07997e-36
3.16047e-36
3.24244e-36
3.32606e-36
3.41149e-36
3.49893e-36
3.58858e-36
3.68066e-36
3.77536e-36
3.87289e-36
3.97343e-36
4.07715e-36
4.18419e-36
4.29464e-36
4.40856e-36
4.52595e-36
4.64673e-36
4.77078e-36
4.89791e-36
5.02784e-36
5.16022e-36
5.29464e-36
5.43062e-36
5.56761e-36
5.70501e-36
5.84218e-36
5.97847e-36
6.11318e-36
6.24564e-36
6.37518e-36
6.50114e-36
6.62293e-36
6.74e-36
6.85187e-36
6.95812e-36
7.05842e-36
7.15252e-36
7.24026e-36
7.32156e-36
7.39642e-36
7.46491e-36
7.52719e-36
7.58345e-36
7.63397e-36
7.67903e-36
7.71899e-36
7.75418e-36
7.785e-36
7.81181e-36
7.83499e-36
7.85491e-36
7.87193e-36
7.88637e-36
7.89856e-36
7.90879e-36
7.91731e-36
7.92438e-36
7.93021e-36
7.93499e-36
7.93889e-36
7.94205e-36
7.9446e-36
7.94665e-36
7.94829e-36
7.94959e-36
7.95063e-36
7.95145e-36
7.9521e-36
7.95262e-36
7.95303e-36
7.95336e-36
7.95363e-36
7.95384e-36
7.95403e-36
7.95418e-36
7.95432e-36
7.95444e-36
7.95455e-36
7.95463e-36
7.95467e-36
7.9545e-36
7.95353e-36
7.94944e-36
7.94137e-36
7.94148e-36
7.94159e-36
7.94171e-36
7.94183e-36
7.94196e-36
7.94209e-36
7.94224e-36
7.94239e-36
7.94255e-36
7.94272e-36
7.94291e-36
7.9431e-36
7.9433e-36
7.94352e-36
7.94374e-36
7.94398e-36
7.94422e-36
7.94448e-36
7.94475e-36
7.94502e-36
7.9453e-36
7.94558e-36
7.94587e-36
7.94617e-36
7.94647e-36
7.94678e-36
7.94711e-36
7.94744e-36
7.9478e-36
7.94818e-36
7.94858e-36
7.94902e-36
7.94949e-36
7.95e-36
7.95055e-36
7.95114e-36
7.95178e-36
7.95246e-36
7.95318e-36
7.95393e-36
7.9547e-36
7.9555e-36
7.95632e-36
7.95713e-36
7.95795e-36
7.95875e-36
7.95953e-36
7.96028e-36
7.961e-36
7.96169e-36
7.96234e-36
7.96296e-36
7.96354e-36
7.96409e-36
7.96462e-36
7.96513e-36
7.96563e-36
7.96613e-36
7.96663e-36
7.96715e-36
7.96768e-36
7.96825e-36
7.96884e-36
7.96946e-36
7.97012e-36
7.97081e-36
7.97153e-36
7.97229e-36
7.97307e-36
7.97387e-36
7.97469e-36
7.97551e-36
7.97635e-36
7.97718e-36
7.978e-36
7.97881e-36
7.9796e-36
7.98037e-36
7.9811e-36
7.98181e-36
7.98248e-36
7.98312e-36
7.98373e-36
7.98434e-36
7.98502e-36
7.98604e-36
7.98819e-36
7.99398e-36
8.01126e-36
8.06452e-36
8.22998e-36
8.74472e-36
1.0345e-35
1.53153e-35
3.07375e-35
7.85541e-35
2.26733e-34
6.85832e-34
2.10851e-33
6.52014e-33
2.0218e-32
6.28379e-32
1.95861e-31
6.12889e-31
1.92827e-30
6.11122e-30
1.95552e-29
6.33492e-29
2.08382e-28
6.98144e-28
2.38897e-27
8.36758e-27
3.00347e-26
1.10478e-25
4.15942e-25
1.59942e-24
6.26431e-24
2.4916e-23
1.00354e-22
4.08257e-22
1.67389e-21
6.90472e-21
2.86143e-20
1.19005e-19
4.96289e-19
2.08631e-18
8.75666e-18
3.67278e-17
1.54133e-16
6.47271e-16
2.71969e-15
1.14324e-14
4.8071e-14
2.02167e-13
8.503e-13
3.57626e-12
1.50396e-11
6.32334e-11
2.65763e-10
1.11636e-09
4.68568e-09
1.96458e-08
8.22096e-08
3.42755e-07
1.41697e-06
5.75558e-06
2.25252e-05
8.10003e-05
0.00024004
0.000464763
0.000516629
0.000437949
0.000325395
0.000230283
0.000161456
0.000112972
7.92304e-05
5.66937e-05
3.93779e-05
2.98042e-05
2.36564e-05
1.9617e-05
1.68719e-05
1.49279e-05
1.34906e-05
1.23835e-05
1.14991e-05
1.07708e-05
1.0156e-05
9.62693e-06
9.16438e-06
8.75503e-06
8.38917e-06
8.05954e-06
7.76057e-06
7.48787e-06
7.23793e-06
7.0079e-06
6.7954e-06
6.59845e-06
6.41537e-06
6.24475e-06
6.08535e-06
5.93614e-06
5.79624e-06
5.66497e-06
5.5454e-06
5.43398e-06
5.32798e-06
5.227e-06
5.1307e-06
5.03874e-06
4.95085e-06
4.86675e-06
4.7862e-06
4.70899e-06
4.6349e-06
4.56376e-06
4.49538e-06
4.42962e-06
4.36631e-06
4.30533e-06
4.24656e-06
4.18986e-06
4.13514e-06
4.08229e-06
4.03122e-06
3.98184e-06
3.93407e-06
3.88784e-06
3.84307e-06
3.7997e-06
3.75766e-06
3.7169e-06
3.67736e-06
3.639e-06
3.60176e-06
3.56559e-06
3.53046e-06
3.49633e-06
3.46316e-06
3.4309e-06
3.39953e-06
3.36901e-06
3.33932e-06
3.31042e-06
3.28228e-06
3.25488e-06
3.22819e-06
3.20218e-06
3.17684e-06
3.15213e-06
3.12804e-06
3.10455e-06
3.08163e-06
3.05926e-06
3.03744e-06
3.01613e-06
2.99532e-06
2.975e-06
2.95515e-06
2.93576e-06
2.9168e-06
2.89827e-06
2.88016e-06
2.86244e-06
2.84512e-06
2.82817e-06
2.8116e-06
2.7954e-06
2.77953e-06
2.76396e-06
2.74871e-06
2.73377e-06
2.71914e-06
2.70481e-06
2.69076e-06
2.677e-06
2.66351e-06
2.65028e-06
2.63732e-06
2.62461e-06
2.61215e-06
2.59993e-06
2.58794e-06
2.57618e-06
2.56465e-06
2.55334e-06
2.54224e-06
2.53134e-06
2.52066e-06
2.51017e-06
2.49987e-06
2.48977e-06
2.47985e-06
2.47012e-06
2.46056e-06
2.45118e-06
2.44196e-06
2.43292e-06
2.42403e-06
2.4153e-06
2.40673e-06
2.39831e-06
2.39003e-06
2.3819e-06
2.37391e-06
2.36605e-06
2.35833e-06
2.35074e-06
2.34328e-06
2.33594e-06
2.32871e-06
2.32161e-06
2.31462e-06
2.30774e-06
2.30096e-06
2.2943e-06
2.28773e-06
2.28126e-06
2.27489e-06
2.26861e-06
2.26242e-06
2.25632e-06
2.25031e-06
2.24438e-06
2.23853e-06
2.23277e-06
2.22708e-06
2.22146e-06
2.21592e-06
2.21045e-06
2.20506e-06
2.19973e-06
2.19447e-06
2.18928e-06
2.18415e-06
2.17909e-06
2.17409e-06
2.16915e-06
2.16428e-06
2.15946e-06
2.15471e-06
2.15001e-06
2.14537e-06
2.14079e-06
2.13626e-06
2.13179e-06
2.12737e-06
2.12301e-06
2.1187e-06
2.11444e-06
2.11024e-06
2.10609e-06
2.10198e-06
2.09793e-06
2.09393e-06
2.08997e-06
2.08607e-06
2.08221e-06
2.0784e-06
2.07464e-06
2.07092e-06
2.06724e-06
2.06361e-06
2.06003e-06
2.05649e-06
2.05299e-06
2.04953e-06
2.04612e-06
2.04274e-06
2.03941e-06
2.03612e-06
2.03286e-06
2.02964e-06
2.02647e-06
2.02333e-06
2.02022e-06
2.01715e-06
2.01412e-06
2.01112e-06
2.00816e-06
2.00522e-06
2.00233e-06
1.99946e-06
1.99663e-06
1.99384e-06
1.99108e-06
1.98838e-06
1.98574e-06
1.98319e-06
1.98081e-06
1.97873e-06
1.97726e-06
)
;

boundaryField
{
    boundary
    {
        type            empty;
    }
    inlet
    {
        type            fixedValue;
        value           uniform 0;
    }
    outlet
    {
        type            zeroGradient;
    }
}


// ************************************************************************* //
