/*--------------------------------*- C++ -*----------------------------------*\
  =========                 |
  \\      /  F ield         | OpenFOAM: The Open Source CFD Toolbox
   \\    /   O peration     | Website:  https://openfoam.org
    \\  /    A nd           | Version:  7
     \\/     M anipulation  |
\*---------------------------------------------------------------------------*/
FoamFile
{
    version     2.0;
    format      ascii;
    class       volScalarField;
    location    "0.00099";
    object      N2;
}
// * * * * * * * * * * * * * * * * * * * * * * * * * * * * * * * * * * * * * //

dimensions      [0 0 0 0 0 0 0];

internalField   nonuniform List<scalar> 
500
(
0.745219
0.745219
0.745219
0.745219
0.745219
0.745219
0.745219
0.745219
0.745219
0.745219
0.745219
0.745219
0.745219
0.745219
0.745219
0.745219
0.745219
0.745219
0.745219
0.745219
0.745219
0.745219
0.745219
0.745219
0.745219
0.745219
0.745219
0.745219
0.745219
0.745219
0.745219
0.745219
0.745219
0.745219
0.745219
0.745219
0.745219
0.745219
0.745219
0.745219
0.745219
0.745219
0.745219
0.745219
0.745219
0.745219
0.745219
0.745219
0.745219
0.745219
0.745219
0.745219
0.745219
0.745219
0.745219
0.745219
0.745219
0.745219
0.745219
0.745219
0.745219
0.745219
0.745219
0.745219
0.745219
0.745219
0.745219
0.74522
0.74522
0.74522
0.74522
0.74522
0.74522
0.74522
0.74522
0.74522
0.74522
0.74522
0.74522
0.74522
0.74522
0.74522
0.74522
0.74522
0.74522
0.74522
0.74522
0.74522
0.74522
0.74522
0.74522
0.74522
0.74522
0.74522
0.74522
0.74522
0.74522
0.74522
0.74522
0.74522
0.74522
0.74522
0.74522
0.74522
0.74522
0.74522
0.74522
0.74522
0.74522
0.74522
0.74522
0.74522
0.74522
0.74522
0.74522
0.74522
0.74522
0.74522
0.74522
0.74522
0.74522
0.74522
0.74522
0.74522
0.74522
0.74522
0.74522
0.74522
0.74522
0.74522
0.74522
0.74522
0.74522
0.74522
0.74522
0.74522
0.74522
0.74522
0.74522
0.74522
0.74522
0.74522
0.74522
0.74522
0.74522
0.74522
0.74522
0.74522
0.74522
0.74522
0.74522
0.74522
0.74522
0.74522
0.74522
0.74522
0.74522
0.74522
0.74522
0.74522
0.74522
0.74522
0.74522
0.74522
0.74522
0.74522
0.74522
0.74522
0.74522
0.74522
0.74522
0.74522
0.74522
0.74522
0.74522
0.74522
0.74522
0.74522
0.74522
0.74522
0.74522
0.74522
0.74522
0.74522
0.74522
0.74522
0.74522
0.74522
0.74522
0.74522
0.74522
0.74522
0.74522
0.74522
0.74522
0.74522
0.74522
0.74522
0.74522
0.74522
0.74522
0.74522
0.74522
0.74522
0.74522
0.74522
0.74522
0.74522
0.74522
0.74522
0.74522
0.74522
0.74522
0.74522
0.74522
0.74522
0.74522
0.74522
0.74522
0.74522
0.74522
0.74522
0.74522
0.74522
0.74522
0.74522
0.74522
0.74522
0.74522
0.74522
0.74522
0.74522
0.74522
0.74522
0.74522
0.74522
0.74522
0.74522
0.74522
0.74522
0.74522
0.74522
0.74522
0.74522
0.74522
0.74522
0.74522
0.74522
0.74522
0.74522
0.74522
0.74522
0.74522
0.74522
0.74522
0.74522
0.74522
0.74522
0.74522
0.74522
0.74522
0.74522
0.74522
0.74522
0.74522
0.745221
0.745222
0.745224
0.745229
0.745238
0.745257
0.745295
0.745364
0.745475
0.745598
0.745604
0.74538
0.744995
0.744474
0.743928
0.743624
0.743699
0.743989
0.744167
0.744757
0.74497
0.745119
0.745214
0.745273
0.745308
0.745329
0.74534
0.745345
0.745347
0.745348
0.745347
0.745345
0.745343
0.74534
0.745338
0.745335
0.745332
0.74533
0.745327
0.745325
0.745322
0.745319
0.745317
0.745314
0.745311
0.745309
0.745306
0.745304
0.745301
0.745299
0.745296
0.745294
0.745291
0.745289
0.745286
0.745284
0.745282
0.74528
0.745278
0.745276
0.745274
0.745272
0.74527
0.745269
0.745267
0.745266
0.745265
0.745264
0.745263
0.745262
0.745261
0.74526
0.745259
0.745259
0.745258
0.745258
0.745257
0.745257
0.745256
0.745256
0.745255
0.745255
0.745255
0.745254
0.745254
0.745254
0.745253
0.745253
0.745253
0.745252
0.745252
0.745251
0.745251
0.745251
0.74525
0.74525
0.745249
0.745249
0.745249
0.745248
0.745248
0.745247
0.745247
0.745247
0.745246
0.745246
0.745246
0.745245
0.745245
0.745245
0.745245
0.745244
0.745244
0.745244
0.745244
0.745244
0.745243
0.745243
0.745243
0.745243
0.745243
0.745243
0.745243
0.745243
0.745242
0.745242
0.745242
0.745242
0.745242
0.745242
0.745242
0.745241
0.745241
0.745241
0.745241
0.745241
0.74524
0.74524
0.74524
0.74524
0.745239
0.745239
0.745239
0.745238
0.745238
0.745238
0.745237
0.745237
0.745237
0.745236
0.745236
0.745235
0.745235
0.745234
0.745234
0.745234
0.745233
0.745233
0.745232
0.745232
0.745232
0.745231
0.745231
0.74523
0.74523
0.74523
0.74523
0.745229
0.745229
0.745229
0.745229
0.745228
0.745228
0.745228
0.745228
0.745228
0.745228
0.745228
0.745228
0.745228
0.745227
0.745227
0.745227
0.745227
0.745227
0.745227
0.745227
0.745227
0.745227
0.745227
0.745227
0.745227
0.745227
0.745227
0.745227
0.745227
0.745227
0.745227
0.745227
0.745227
0.745227
0.745227
0.745227
0.745227
0.745227
0.745227
0.745227
0.745227
0.745227
0.745227
0.745227
0.745227
0.745227
0.745227
0.745227
0.745227
0.745227
0.745226
0.745226
0.745226
0.745226
0.745226
0.745225
0.745225
0.745225
0.745224
0.745224
0.745223
0.745222
0.745221
0.74522
0.745219
0.745218
0.745217
0.745216
)
;

boundaryField
{
    boundary
    {
        type            empty;
    }
    inlet
    {
        type            fixedValue;
        value           uniform 0.74522;
    }
    outlet
    {
        type            zeroGradient;
    }
}


// ************************************************************************* //
