/*--------------------------------*- C++ -*----------------------------------*\
  =========                 |
  \\      /  F ield         | OpenFOAM: The Open Source CFD Toolbox
   \\    /   O peration     | Website:  https://openfoam.org
    \\  /    A nd           | Version:  7
     \\/     M anipulation  |
\*---------------------------------------------------------------------------*/
FoamFile
{
    version     2.0;
    format      ascii;
    class       volScalarField;
    location    "0.00099";
    object      O;
}
// * * * * * * * * * * * * * * * * * * * * * * * * * * * * * * * * * * * * * //

dimensions      [0 0 0 0 0 0 0];

internalField   nonuniform List<scalar> 
500
(
1.57738e-47
3.76336e-47
5.96177e-47
8.16166e-47
1.03608e-46
1.25587e-46
1.47552e-46
1.69499e-46
1.91424e-46
2.13322e-46
2.35189e-46
2.57019e-46
2.78804e-46
3.00538e-46
3.22214e-46
3.43823e-46
3.65358e-46
3.86813e-46
4.08184e-46
4.29468e-46
4.50664e-46
4.71777e-46
4.92813e-46
5.13783e-46
5.347e-46
5.55583e-46
5.7645e-46
5.97325e-46
6.18232e-46
6.39197e-46
6.60246e-46
6.81407e-46
7.02708e-46
7.24176e-46
7.45838e-46
7.67725e-46
7.89865e-46
8.12289e-46
8.35031e-46
8.58129e-46
8.81621e-46
9.05554e-46
9.29977e-46
9.54944e-46
9.80517e-46
1.00676e-45
1.03375e-45
1.06155e-45
1.09024e-45
1.1199e-45
1.15062e-45
1.18246e-45
1.21549e-45
1.24978e-45
1.28539e-45
1.32235e-45
1.36069e-45
1.40041e-45
1.44152e-45
1.48396e-45
1.5277e-45
1.57264e-45
1.61868e-45
1.66569e-45
1.71352e-45
1.76198e-45
1.8109e-45
1.86004e-45
1.90919e-45
1.95811e-45
2.00657e-45
2.05431e-45
2.10111e-45
2.14674e-45
2.19098e-45
2.23363e-45
2.27453e-45
2.31351e-45
2.35045e-45
2.38526e-45
2.41787e-45
2.44823e-45
2.47633e-45
2.50218e-45
2.52582e-45
2.54731e-45
2.56673e-45
2.58418e-45
2.59975e-45
2.61357e-45
2.62577e-45
2.63646e-45
2.64579e-45
2.65387e-45
2.66083e-45
2.6668e-45
2.67188e-45
2.67619e-45
2.67981e-45
2.68284e-45
2.68537e-45
2.68747e-45
2.68919e-45
2.69061e-45
2.69176e-45
2.6927e-45
2.69346e-45
2.69407e-45
2.69456e-45
2.69495e-45
2.69527e-45
2.69552e-45
2.69572e-45
2.69588e-45
2.69602e-45
2.69613e-45
2.69622e-45
2.69629e-45
2.69636e-45
2.69641e-45
2.69644e-45
2.69641e-45
2.69624e-45
2.69564e-45
2.69383e-45
2.6912e-45
2.69125e-45
2.6913e-45
2.69136e-45
2.69141e-45
2.69147e-45
2.69153e-45
2.69159e-45
2.69166e-45
2.69173e-45
2.69181e-45
2.69189e-45
2.69198e-45
2.69207e-45
2.69217e-45
2.69227e-45
2.69238e-45
2.69249e-45
2.69261e-45
2.69274e-45
2.69287e-45
2.69301e-45
2.69316e-45
2.69332e-45
2.69348e-45
2.69365e-45
2.69384e-45
2.69403e-45
2.69424e-45
2.69447e-45
2.6947e-45
2.69496e-45
2.69523e-45
2.69552e-45
2.69583e-45
2.69615e-45
2.69649e-45
2.69684e-45
2.69721e-45
2.69758e-45
2.69796e-45
2.69835e-45
2.69874e-45
2.69912e-45
2.6995e-45
2.69987e-45
2.70024e-45
2.70059e-45
2.70093e-45
2.70126e-45
2.70157e-45
2.70188e-45
2.70216e-45
2.70244e-45
2.7027e-45
2.70296e-45
2.7032e-45
2.70344e-45
2.70368e-45
2.70391e-45
2.70414e-45
2.70437e-45
2.70461e-45
2.70489e-45
2.7053e-45
2.70615e-45
2.70848e-45
2.71571e-45
2.73922e-45
2.81661e-45
3.07153e-45
3.90913e-45
6.65178e-45
1.55993e-44
4.46817e-44
1.38868e-43
4.42826e-43
1.42042e-42
4.55421e-42
1.45681e-41
4.64693e-41
1.47801e-40
4.68773e-40
1.48277e-39
4.67806e-39
1.4723e-38
4.62304e-38
1.44849e-37
4.52921e-37
1.41353e-36
4.40375e-36
1.36972e-35
4.25386e-35
1.31927e-34
4.08629e-34
1.26421e-33
3.90701e-33
1.20628e-32
3.72102e-32
1.14688e-31
3.53224e-31
1.08711e-30
3.34361e-30
1.02775e-29
3.15723e-29
9.69347e-29
2.97451e-28
9.12268e-28
2.79644e-27
8.56787e-27
2.62379e-26
8.03129e-26
2.45726e-25
7.51519e-25
2.29757e-24
7.02197e-24
2.14551e-23
6.55407e-23
2.00183e-22
6.11371e-22
1.86713e-21
5.70242e-21
1.74174e-20
5.3207e-20
1.62566e-19
4.96801e-19
1.52565e-18
4.67818e-18
1.43215e-17
4.38297e-17
1.3415e-16
4.10683e-16
1.25754e-15
3.85155e-15
1.17989e-14
3.61524e-14
1.10793e-13
3.39594e-13
1.04105e-12
3.19174e-12
9.78601e-12
3.00033e-11
9.1976e-11
2.819e-10
8.63957e-10
2.6505e-09
8.17973e-09
2.59056e-08
9.01612e-08
4.01909e-07
2.52056e-06
1.70835e-05
8.65862e-05
0.000346958
0.00104009
0.00221475
0.00358297
0.00478511
0.00564319
0.00616695
0.0063911
0.00644592
0.00639644
0.00628627
0.0061434
0.00598502
0.00582143
0.00565855
0.00549973
0.0053467
0.00520027
0.00506071
0.00492797
0.00480183
0.004682
0.00456812
0.00445984
0.0043568
0.00425867
0.00416514
0.0040759
0.00399068
0.00390922
0.00383129
0.00375668
0.00368521
0.00361671
0.00355305
0.00349288
0.0034347
0.0033784
0.00332387
0.00327103
0.0032198
0.00317009
0.00312183
0.00307496
0.00302941
0.00298512
0.00294204
0.00290011
0.00285929
0.00281953
0.00278078
0.002743
0.00270616
0.00267021
0.00263513
0.00260088
0.00256743
0.00253476
0.00250282
0.00247161
0.00244109
0.00241125
0.00238205
0.00235349
0.00232553
0.00229817
0.00227138
0.00224515
0.00221946
0.00219429
0.00216963
0.00214546
0.00212178
0.00209856
0.0020758
0.00205348
0.00203159
0.00201011
0.00198904
0.00196836
0.00194807
0.00192815
0.00190859
0.00188939
0.00187053
0.001852
0.0018338
0.00181591
0.00179834
0.00178106
0.00176408
0.00174739
0.00173097
0.00171483
0.00169896
0.00168335
0.001668
0.0016529
0.00163804
0.00162336
0.00160892
0.0015947
0.00158069
0.0015669
0.00155332
0.00153994
0.00152677
0.00151378
0.00150099
0.00148839
0.00147597
0.00146373
0.00145167
0.00143978
0.00142807
0.00141652
0.00140513
0.0013939
0.00138284
0.00137192
0.00136116
0.00135055
0.00134008
0.00132976
0.00131958
0.00130953
0.00129963
0.00128985
0.00128021
0.00127069
0.0012613
0.00125204
0.00124289
0.00123386
0.00122495
0.00121616
0.00120747
0.0011989
0.00119043
0.00118207
0.00117381
0.00116565
0.0011576
0.00114964
0.00114177
0.001134
0.00112632
0.00111873
0.00111123
0.00110382
0.00109649
0.00108924
0.00108208
0.00107499
0.00106799
0.00106106
0.00105421
0.00104744
0.00104074
0.00103411
0.00102755
0.00102106
0.00101465
0.0010083
0.00100202
0.000995808
0.000989661
0.00098358
0.000977562
0.000971609
0.000965718
0.000959889
0.000954122
0.000948415
0.000942768
0.000937181
0.000931651
0.00092618
0.000920766
0.000915409
0.000910108
0.000904862
0.000899671
0.000894534
0.00088945
0.00088442
0.000879441
0.000874515
0.000869639
0.000864814
0.000860039
0.000855313
0.000850637
0.000846008
0.000841428
0.000836894
0.000832408
0.000827968
0.000823574
0.000819225
0.000814922
0.000810663
0.000806448
0.000802278
0.000798152
0.00079407
0.000790033
0.000786041
0.000782094
0.000778195
0.000774345
0.000770547
0.000766808
0.000763133
0.000759533
0.000756025
0.000752633
0.000749397
0.000746376
0.000743673
0.000741461
0.000740051
)
;

boundaryField
{
    boundary
    {
        type            empty;
    }
    inlet
    {
        type            fixedValue;
        value           uniform 0;
    }
    outlet
    {
        type            zeroGradient;
    }
}


// ************************************************************************* //
