/*--------------------------------*- C++ -*----------------------------------*\
  =========                 |
  \\      /  F ield         | OpenFOAM: The Open Source CFD Toolbox
   \\    /   O peration     | Website:  https://openfoam.org
    \\  /    A nd           | Version:  7
     \\/     M anipulation  |
\*---------------------------------------------------------------------------*/
FoamFile
{
    version     2.0;
    format      ascii;
    class       volScalarField;
    location    "0.00099";
    object      O2;
}
// * * * * * * * * * * * * * * * * * * * * * * * * * * * * * * * * * * * * * //

dimensions      [0 0 0 0 0 0 0];

internalField   nonuniform List<scalar> 
500
(
0.226269
0.226269
0.226269
0.226269
0.226269
0.226269
0.226269
0.226269
0.226269
0.226269
0.226269
0.226269
0.226269
0.226269
0.226269
0.226269
0.226269
0.226269
0.226269
0.226269
0.226269
0.226269
0.226269
0.226269
0.226269
0.226269
0.226269
0.226269
0.226269
0.226269
0.226269
0.226269
0.226269
0.226269
0.226269
0.226269
0.226269
0.226269
0.226269
0.226269
0.226269
0.226269
0.226269
0.226269
0.226269
0.226269
0.226269
0.226269
0.226269
0.226269
0.226269
0.226269
0.226269
0.226269
0.226269
0.226269
0.226269
0.226269
0.226269
0.226269
0.226269
0.226269
0.226269
0.226269
0.226269
0.226269
0.226269
0.226269
0.226269
0.226269
0.226269
0.226269
0.226269
0.226269
0.226269
0.226269
0.226269
0.226269
0.226269
0.226269
0.226269
0.226269
0.226269
0.226269
0.226269
0.226269
0.226269
0.226269
0.226269
0.226269
0.226269
0.226269
0.226269
0.226269
0.226269
0.226269
0.226269
0.226269
0.226269
0.226269
0.226269
0.226269
0.226269
0.226269
0.226269
0.226269
0.226269
0.226269
0.226269
0.226269
0.226269
0.226269
0.226269
0.226269
0.226269
0.226269
0.226269
0.226269
0.226269
0.226269
0.226269
0.226269
0.226269
0.226269
0.226269
0.226269
0.226269
0.226269
0.226269
0.226269
0.226269
0.226269
0.226269
0.226269
0.226269
0.226269
0.226269
0.226269
0.226269
0.226269
0.226269
0.226269
0.226269
0.226269
0.226269
0.226269
0.226269
0.226269
0.226269
0.226269
0.226269
0.226269
0.226269
0.226269
0.226269
0.226269
0.226269
0.226269
0.226269
0.226269
0.226269
0.226269
0.226269
0.226269
0.226269
0.226269
0.226269
0.226269
0.226269
0.226269
0.226269
0.226269
0.226269
0.226269
0.226269
0.226269
0.226269
0.226269
0.226269
0.226269
0.226269
0.226269
0.226269
0.226269
0.226269
0.226269
0.226269
0.226269
0.226269
0.226269
0.226269
0.226269
0.226269
0.226269
0.226269
0.226269
0.226269
0.226269
0.226269
0.226269
0.226269
0.226269
0.226269
0.226269
0.226269
0.226269
0.226269
0.226269
0.226269
0.226269
0.226269
0.226269
0.226269
0.226269
0.226269
0.226269
0.226269
0.226269
0.226269
0.226269
0.226269
0.226269
0.226269
0.226269
0.226269
0.226269
0.226269
0.226269
0.226269
0.226269
0.226269
0.226269
0.226269
0.226269
0.226269
0.226269
0.226269
0.226269
0.226269
0.226269
0.226269
0.226269
0.226269
0.226269
0.226269
0.226269
0.226269
0.226269
0.226269
0.226269
0.226269
0.226269
0.226269
0.226269
0.226269
0.226269
0.226269
0.226269
0.226269
0.226269
0.226269
0.226269
0.226269
0.226269
0.226269
0.226269
0.22627
0.22627
0.226272
0.226274
0.226277
0.226276
0.226241
0.226054
0.225306
0.222956
0.217133
0.206652
0.192723
0.175085
0.152685
0.127031
0.102428
0.0827795
0.064991
0.0544858
0.0473774
0.0425618
0.0392373
0.0368681
0.0351107
0.0337497
0.0326504
0.0317289
0.0309323
0.0302268
0.0295902
0.0290081
0.0284702
0.0279695
0.0275005
0.0270595
0.0266431
0.026249
0.0258749
0.0255191
0.0251802
0.0248567
0.0245476
0.0242518
0.0239687
0.0236976
0.0234461
0.0232071
0.0229756
0.0227512
0.0225336
0.0223222
0.0221168
0.0219171
0.0217228
0.0215335
0.021349
0.0211691
0.0209935
0.020822
0.0206545
0.0204907
0.0203304
0.0201736
0.02002
0.0198696
0.0197221
0.0195775
0.0194357
0.0192965
0.0191599
0.0190258
0.0188941
0.0187648
0.0186377
0.0185128
0.0183901
0.0182695
0.0181509
0.0180343
0.0179196
0.0178068
0.0176959
0.0175867
0.0174794
0.0173737
0.0172697
0.0171674
0.0170667
0.0169675
0.0168699
0.0167737
0.016679
0.0165857
0.0164938
0.0164032
0.0163139
0.0162259
0.0161391
0.0160536
0.0159692
0.0158859
0.0158038
0.0157227
0.0156428
0.0155638
0.0154859
0.015409
0.015333
0.015258
0.015184
0.0151108
0.0150385
0.0149671
0.0148965
0.0148267
0.0147578
0.0146897
0.0146224
0.0145559
0.0144902
0.0144252
0.0143609
0.0142974
0.0142346
0.0141725
0.0141111
0.0140505
0.0139905
0.0139312
0.0138725
0.0138145
0.0137572
0.0137005
0.0136444
0.013589
0.0135341
0.0134799
0.0134263
0.0133732
0.0133207
0.0132688
0.0132175
0.0131667
0.0131164
0.0130666
0.0130174
0.0129687
0.0129204
0.0128727
0.0128254
0.0127786
0.0127322
0.0126863
0.0126407
0.0125957
0.012551
0.0125067
0.0124628
0.0124193
0.0123761
0.0123333
0.0122909
0.0122488
0.0122071
0.0121656
0.0121245
0.0120837
0.0120432
0.0120031
0.0119632
0.0119236
0.0118843
0.0118453
0.0118065
0.0117681
0.0117299
0.011692
0.0116544
0.011617
0.0115799
0.0115431
0.0115065
0.0114702
0.0114342
0.0113984
0.0113629
0.0113276
0.0112926
0.0112579
0.0112234
0.0111892
0.0111552
0.0111215
0.0110881
0.0110549
0.0110219
0.0109892
0.0109568
0.0109246
0.0108926
0.0108609
0.0108295
0.0107982
0.0107672
0.0107365
0.010706
0.0106757
0.0106457
0.0106159
0.0105863
0.0105569
0.0105278
0.0104989
0.0104702
0.0104417
0.0104134
0.0103853
0.0103574
0.0103298
0.0103023
0.010275
0.0102478
0.0102208
0.010194
0.0101673
0.0101408
0.0101145
0.0100883
0.0100625
0.0100373
0.0100135
0.00999243
0.0099777
)
;

boundaryField
{
    boundary
    {
        type            empty;
    }
    inlet
    {
        type            fixedValue;
        value           uniform 0.226269;
    }
    outlet
    {
        type            zeroGradient;
    }
}


// ************************************************************************* //
