/*--------------------------------*- C++ -*----------------------------------*\
  =========                 |
  \\      /  F ield         | OpenFOAM: The Open Source CFD Toolbox
   \\    /   O peration     | Website:  https://openfoam.org
    \\  /    A nd           | Version:  7
     \\/     M anipulation  |
\*---------------------------------------------------------------------------*/
FoamFile
{
    version     2.0;
    format      ascii;
    class       volScalarField;
    location    "0.00099";
    object      OH;
}
// * * * * * * * * * * * * * * * * * * * * * * * * * * * * * * * * * * * * * //

dimensions      [0 0 0 0 0 0 0];

internalField   nonuniform List<scalar> 
500
(
9.38333e-48
1.8285e-47
2.43702e-47
2.84908e-47
3.12776e-47
3.3166e-47
3.44509e-47
3.53303e-47
3.59372e-47
3.63604e-47
3.66597e-47
3.6875e-47
3.70328e-47
3.71509e-47
3.72411e-47
3.73112e-47
3.73662e-47
3.74095e-47
3.74434e-47
3.74692e-47
3.74883e-47
3.75015e-47
3.75098e-47
3.75141e-47
3.75153e-47
3.75146e-47
3.75132e-47
3.75121e-47
3.75127e-47
3.75163e-47
3.7524e-47
3.7537e-47
3.75564e-47
3.75833e-47
3.76186e-47
3.76631e-47
3.77178e-47
3.77834e-47
3.78607e-47
3.79505e-47
3.80536e-47
3.8171e-47
3.83038e-47
3.84531e-47
3.86203e-47
3.88068e-47
3.90142e-47
3.92443e-47
3.9499e-47
3.97803e-47
4.00901e-47
4.04306e-47
4.08038e-47
4.12117e-47
4.16561e-47
4.21386e-47
4.26607e-47
4.32235e-47
4.38276e-47
4.44734e-47
4.51606e-47
4.58886e-47
4.6656e-47
4.7461e-47
4.8301e-47
4.91731e-47
5.00734e-47
5.09978e-47
5.19414e-47
5.28991e-47
5.38653e-47
5.48342e-47
5.57998e-47
5.67562e-47
5.76973e-47
5.86176e-47
5.95117e-47
6.03747e-47
6.12022e-47
6.19904e-47
6.27362e-47
6.34374e-47
6.40921e-47
6.46995e-47
6.52593e-47
6.57718e-47
6.62381e-47
6.66595e-47
6.7038e-47
6.73757e-47
6.76752e-47
6.79392e-47
6.81704e-47
6.83718e-47
6.8546e-47
6.86959e-47
6.88241e-47
6.89332e-47
6.90254e-47
6.9103e-47
6.91678e-47
6.92218e-47
6.92665e-47
6.93033e-47
6.93334e-47
6.93581e-47
6.93781e-47
6.93943e-47
6.94074e-47
6.9418e-47
6.94265e-47
6.94333e-47
6.94389e-47
6.94434e-47
6.94471e-47
6.94501e-47
6.94527e-47
6.94549e-47
6.94568e-47
6.94585e-47
6.946e-47
6.94613e-47
6.94623e-47
6.94624e-47
6.946e-47
6.94559e-47
6.94574e-47
6.94588e-47
6.946e-47
6.94612e-47
6.94624e-47
6.94639e-47
6.94655e-47
6.94674e-47
6.94695e-47
6.94718e-47
6.94743e-47
6.94771e-47
6.948e-47
6.94831e-47
6.94864e-47
6.94898e-47
6.94934e-47
6.94972e-47
6.9501e-47
6.95048e-47
6.95087e-47
6.95125e-47
6.95163e-47
6.952e-47
6.95237e-47
6.95272e-47
6.95305e-47
6.95338e-47
6.9537e-47
6.95402e-47
6.95433e-47
6.95464e-47
6.95496e-47
6.95528e-47
6.95561e-47
6.95595e-47
6.95631e-47
6.95669e-47
6.95708e-47
6.95749e-47
6.95791e-47
6.95836e-47
6.95881e-47
6.95929e-47
6.95977e-47
6.96027e-47
6.96078e-47
6.96129e-47
6.96181e-47
6.96234e-47
6.96287e-47
6.96341e-47
6.96396e-47
6.9645e-47
6.96505e-47
6.9656e-47
6.96616e-47
6.96672e-47
6.96729e-47
6.96786e-47
6.96843e-47
6.96901e-47
6.9696e-47
6.97021e-47
6.97091e-47
6.97186e-47
6.97368e-47
6.97837e-47
6.99253e-47
7.03793e-47
7.18589e-47
7.6692e-47
9.24499e-47
1.43665e-46
3.09548e-46
8.44961e-46
2.56722e-45
8.08897e-45
2.5736e-44
8.19619e-44
2.60582e-43
8.2644e-43
2.61427e-42
8.2487e-42
2.59634e-41
8.15331e-41
2.55484e-40
7.98927e-40
2.49359e-39
7.76916e-39
2.41664e-38
7.50569e-38
2.3279e-37
7.21081e-37
2.23097e-36
6.89508e-36
2.12892e-35
6.56736e-35
2.02426e-34
6.23467e-34
1.91892e-33
5.90229e-33
1.81435e-32
5.57408e-32
1.71157e-31
5.25288e-31
1.61139e-30
4.94109e-30
1.51458e-29
4.64139e-29
1.42215e-28
4.35782e-28
1.33578e-27
4.0975e-27
1.25855e-26
3.87392e-26
1.19642e-25
3.71368e-25
1.16131e-24
3.67045e-24
1.1775e-23
3.85435e-23
1.29506e-22
4.49354e-22
1.61807e-21
6.0977e-21
2.38269e-20
9.63716e-20
4.01943e-19
1.71876e-18
7.49179e-18
3.31203e-17
1.47909e-16
6.65225e-16
3.00642e-15
1.36317e-14
6.19417e-14
2.81843e-13
1.28348e-12
5.84751e-12
2.66474e-11
1.2145e-10
5.59879e-10
2.60784e-09
1.22314e-08
5.79336e-08
2.83543e-07
1.5267e-06
9.71271e-06
6.57821e-05
0.00031026
0.000664891
0.000850556
0.00104748
0.00154386
0.00247799
0.00375231
0.00513434
0.00658309
0.0076923
0.00857943
0.00927501
0.00981664
0.0102396
0.0105723
0.0108364
0.0110478
0.0112183
0.0113564
0.0114687
0.0115598
0.0116336
0.0116929
0.01174
0.0117768
0.0118048
0.0118253
0.0118392
0.0118475
0.0118508
0.0118499
0.0118453
0.0118374
0.0118265
0.0118131
0.0117975
0.0117805
0.0117623
0.0117428
0.0117219
0.0116999
0.0116769
0.0116528
0.0116279
0.0116022
0.0115758
0.0115487
0.011521
0.0114928
0.0114641
0.0114349
0.0114053
0.0113754
0.0113452
0.0113146
0.0112838
0.0112528
0.0112215
0.0111901
0.0111585
0.0111268
0.011095
0.0110631
0.0110311
0.0109991
0.010967
0.0109349
0.0109029
0.0108708
0.0108388
0.0108068
0.0107748
0.0107429
0.0107111
0.0106794
0.0106478
0.0106162
0.0105848
0.0105534
0.0105222
0.0104911
0.0104601
0.0104293
0.0103986
0.010368
0.0103375
0.0103072
0.010277
0.010247
0.0102171
0.0101873
0.0101577
0.0101283
0.010099
0.0100698
0.0100408
0.0100119
0.00998319
0.0099546
0.00992616
0.00989785
0.00986964
0.00984158
0.00981367
0.00978591
0.0097583
0.00973083
0.00970351
0.00967633
0.00964931
0.00962243
0.0095957
0.00956911
0.00954268
0.0095164
0.00949026
0.00946428
0.00943845
0.00941277
0.00938724
0.00936186
0.00933663
0.00931156
0.00928663
0.00926186
0.00923724
0.00921277
0.00918844
0.00916427
0.00914025
0.00911638
0.00909265
0.00906907
0.00904563
0.00902233
0.00899918
0.00897617
0.0089533
0.00893056
0.00890796
0.0088855
0.00886316
0.00884096
0.00881888
0.00879693
0.0087751
0.0087534
0.00873181
0.00871035
0.008689
0.00866776
0.00864664
0.00862563
0.00860473
0.00858394
0.00856325
0.00854268
0.0085222
0.00850183
0.00848157
0.00846141
0.00844135
0.00842139
0.00840153
0.00838177
0.00836212
0.00834256
0.00832311
0.00830375
0.0082845
0.00826534
0.00824629
0.00822734
0.00820849
0.00818974
0.00817109
0.00815254
0.0081341
0.00811575
0.00809751
0.00807937
0.00806133
0.0080434
0.00802556
0.00800783
0.00799021
0.00797268
0.00795526
0.00793793
0.00792072
0.0079036
0.00788658
0.00786967
0.00785286
0.00783615
0.00781954
0.00780304
0.00778664
0.00777033
0.00775413
0.00773804
0.00772204
0.00770615
0.00769036
0.00767467
0.00765909
0.00764362
0.00762825
0.007613
0.00759786
0.00758285
0.00756797
0.00755323
0.00753866
0.00752427
0.00751011
0.00749622
0.0074827
0.00746964
0.00745723
0.00744573
0.00743555
0.00742733
0.00742216
)
;

boundaryField
{
    boundary
    {
        type            empty;
    }
    inlet
    {
        type            fixedValue;
        value           uniform 0;
    }
    outlet
    {
        type            zeroGradient;
    }
}


// ************************************************************************* //
