/*--------------------------------*- C++ -*----------------------------------*\
  =========                 |
  \\      /  F ield         | OpenFOAM: The Open Source CFD Toolbox
   \\    /   O peration     | Website:  https://openfoam.org
    \\  /    A nd           | Version:  7
     \\/     M anipulation  |
\*---------------------------------------------------------------------------*/
FoamFile
{
    version     2.0;
    format      ascii;
    class       volScalarField;
    location    "0.00099";
    object      Qdot;
}
// * * * * * * * * * * * * * * * * * * * * * * * * * * * * * * * * * * * * * //

dimensions      [1 -1 -3 0 0 0 0];

internalField   nonuniform List<scalar> 
500
(
-2.45249e-27
-1.86297e-27
-1.73596e-27
-1.70869e-27
-1.70298e-27
-1.70199e-27
-1.70206e-27
-1.70239e-27
-1.70279e-27
-1.70318e-27
-1.70354e-27
-1.70384e-27
-1.70408e-27
-1.70422e-27
-1.70426e-27
-1.70418e-27
-1.70396e-27
-1.70359e-27
-1.70306e-27
-1.70237e-27
-1.70151e-27
-1.7005e-27
-1.69935e-27
-1.69808e-27
-1.69672e-27
-1.6953e-27
-1.69386e-27
-1.69245e-27
-1.6911e-27
-1.68987e-27
-1.68879e-27
-1.6879e-27
-1.68725e-27
-1.68686e-27
-1.68678e-27
-1.68704e-27
-1.68765e-27
-1.68866e-27
-1.69008e-27
-1.69194e-27
-1.69428e-27
-1.69711e-27
-1.70049e-27
-1.70444e-27
-1.70901e-27
-1.71425e-27
-1.72022e-27
-1.72697e-27
-1.73456e-27
-1.74306e-27
-1.75254e-27
-1.76306e-27
-1.77469e-27
-1.78749e-27
-1.80152e-27
-1.81682e-27
-1.83344e-27
-1.85142e-27
-1.87076e-27
-1.89146e-27
-1.91352e-27
-1.93691e-27
-1.96156e-27
-1.98742e-27
-2.01439e-27
-2.04237e-27
-2.07122e-27
-2.1008e-27
-2.13096e-27
-2.16152e-27
-2.19229e-27
-2.22309e-27
-2.25373e-27
-2.28401e-27
-2.31375e-27
-2.34277e-27
-2.3709e-27
-2.398e-27
-2.42392e-27
-2.44857e-27
-2.47184e-27
-2.49367e-27
-2.51402e-27
-2.53285e-27
-2.55018e-27
-2.56602e-27
-2.58041e-27
-2.59339e-27
-2.60502e-27
-2.61539e-27
-2.62457e-27
-2.63266e-27
-2.63973e-27
-2.64588e-27
-2.65119e-27
-2.65576e-27
-2.65966e-27
-2.66298e-27
-2.66578e-27
-2.66813e-27
-2.6701e-27
-2.67174e-27
-2.67309e-27
-2.6742e-27
-2.67511e-27
-2.67586e-27
-2.67646e-27
-2.67695e-27
-2.67735e-27
-2.67767e-27
-2.67792e-27
-2.67813e-27
-2.6783e-27
-2.67843e-27
-2.67854e-27
-2.67863e-27
-2.67871e-27
-2.67878e-27
-2.67884e-27
-2.67889e-27
-2.67893e-27
-2.67898e-27
-2.67902e-27
-2.67906e-27
-2.67907e-27
-2.67907e-27
-2.67914e-27
-2.67919e-27
-2.67923e-27
-2.67927e-27
-2.6793e-27
-2.67935e-27
-2.6794e-27
-2.67945e-27
-2.67952e-27
-2.67959e-27
-2.67967e-27
-2.67975e-27
-2.67984e-27
-2.67994e-27
-2.68004e-27
-2.68015e-27
-2.68026e-27
-2.68038e-27
-2.6805e-27
-2.68062e-27
-2.68074e-27
-2.68085e-27
-2.68097e-27
-2.68108e-27
-2.68119e-27
-2.68129e-27
-2.68139e-27
-2.68149e-27
-2.68158e-27
-2.68167e-27
-2.68176e-27
-2.68184e-27
-2.68193e-27
-2.68202e-27
-2.68211e-27
-2.6822e-27
-2.6823e-27
-2.6824e-27
-2.68251e-27
-2.68262e-27
-2.68274e-27
-2.68286e-27
-2.68299e-27
-2.68312e-27
-2.68326e-27
-2.6834e-27
-2.68355e-27
-2.6837e-27
-2.68385e-27
-2.68401e-27
-2.68417e-27
-2.68433e-27
-2.68449e-27
-2.68465e-27
-2.68482e-27
-2.68499e-27
-2.68516e-27
-2.68533e-27
-2.6855e-27
-2.68568e-27
-2.68585e-27
-2.68603e-27
-2.68621e-27
-2.68639e-27
-2.68657e-27
-2.68675e-27
-2.68693e-27
-2.68711e-27
-2.68729e-27
-2.68747e-27
-2.68765e-27
-2.68783e-27
-2.68801e-27
-2.68818e-27
-2.68835e-27
-2.68852e-27
-2.68869e-27
-2.68884e-27
-2.68898e-27
-2.68906e-27
-2.689e-27
-2.68848e-27
-2.68651e-27
-2.68002e-27
-2.65934e-27
-2.59423e-27
-2.39017e-27
-1.75247e-27
2.36171e-28
6.42673e-27
2.5667e-26
8.53783e-26
2.70443e-25
8.43317e-25
2.61469e-24
8.08631e-24
2.49719e-23
7.70372e-23
2.37449e-22
7.31318e-22
2.2508e-21
6.92282e-21
2.12796e-20
6.53722e-20
2.00717e-19
6.15958e-19
1.88931e-18
5.79235e-18
1.77511e-17
5.438e-17
1.66545e-16
5.09978e-16
1.56161e-15
4.78296e-15
1.4658e-14
4.49699e-14
1.38212e-13
4.25974e-13
1.31845e-12
4.10645e-12
1.29064e-11
4.10866e-11
1.33115e-10
4.4142e-10
1.50734e-09
5.35736e-09
1.97383e-08
7.55609e-08
3.00401e-07
1.2353e-06
5.22463e-06
2.25917e-05
9.93504e-05
0.000442392
0.00198834
0.00900162
0.0410046
0.187928
0.867409
4.04108
19.0754
97.2481
544.949
3680.21
27692.2
231082
2.13322e+06
2.03425e+07
1.84485e+08
1.32023e+09
5.37164e+09
1.09685e+10
1.35093e+10
1.38786e+10
1.39184e+10
1.37223e+10
1.27911e+10
1.10494e+10
9.02092e+09
7.32499e+09
6.04611e+09
5.06639e+09
4.32042e+09
3.74489e+09
3.29238e+09
2.9294e+09
2.63264e+09
2.38584e+09
2.17753e+09
1.99941e+09
1.84544e+09
1.71108e+09
1.59286e+09
1.4881e+09
1.39469e+09
1.31092e+09
1.23543e+09
1.1671e+09
1.10498e+09
1.04831e+09
9.96434e+08
9.48792e+08
9.04918e+08
8.64412e+08
8.26943e+08
7.92277e+08
7.60979e+08
7.32247e+08
7.05158e+08
6.79664e+08
6.55624e+08
6.32909e+08
6.11422e+08
5.91072e+08
5.71772e+08
5.53447e+08
5.36033e+08
5.19464e+08
5.03684e+08
4.88641e+08
4.74287e+08
4.60578e+08
4.47476e+08
4.34942e+08
4.22942e+08
4.11446e+08
4.00424e+08
3.89849e+08
3.79695e+08
3.69941e+08
3.60565e+08
3.51545e+08
3.42865e+08
3.34505e+08
3.26451e+08
3.18686e+08
3.11197e+08
3.0397e+08
2.96993e+08
2.90254e+08
2.83741e+08
2.77446e+08
2.71356e+08
2.65465e+08
2.59762e+08
2.54239e+08
2.48889e+08
2.43705e+08
2.38679e+08
2.33805e+08
2.29076e+08
2.24487e+08
2.20031e+08
2.15705e+08
2.11501e+08
2.07417e+08
2.03446e+08
1.99586e+08
1.95831e+08
1.92177e+08
1.88622e+08
1.85161e+08
1.81791e+08
1.78509e+08
1.75311e+08
1.72196e+08
1.69162e+08
1.66205e+08
1.6333e+08
1.60538e+08
1.57802e+08
1.55109e+08
1.52483e+08
1.4992e+08
1.47418e+08
1.44974e+08
1.42587e+08
1.40255e+08
1.37975e+08
1.35747e+08
1.33568e+08
1.31437e+08
1.29353e+08
1.27314e+08
1.2532e+08
1.23368e+08
1.21457e+08
1.19587e+08
1.17756e+08
1.15962e+08
1.14206e+08
1.12486e+08
1.10801e+08
1.0915e+08
1.07531e+08
1.05945e+08
1.04391e+08
1.02867e+08
1.01372e+08
9.99064e+07
9.84689e+07
9.70589e+07
9.56756e+07
9.43183e+07
9.29863e+07
9.16792e+07
9.03958e+07
8.91362e+07
8.78994e+07
8.6685e+07
8.54924e+07
8.4321e+07
8.31703e+07
8.20399e+07
8.09291e+07
7.98377e+07
7.8765e+07
7.77108e+07
7.66744e+07
7.56556e+07
7.46539e+07
7.36688e+07
7.27004e+07
7.17476e+07
7.08104e+07
6.98886e+07
6.89817e+07
6.80893e+07
6.72113e+07
6.63472e+07
6.54968e+07
6.46598e+07
6.38358e+07
6.30247e+07
6.22262e+07
6.144e+07
6.06658e+07
5.99034e+07
5.91527e+07
5.84133e+07
5.76851e+07
5.69669e+07
5.62605e+07
5.55643e+07
5.48784e+07
5.42026e+07
5.35366e+07
5.28803e+07
5.22335e+07
5.15961e+07
5.0968e+07
5.03483e+07
4.9738e+07
4.91363e+07
4.85431e+07
4.79582e+07
4.73816e+07
4.68129e+07
4.62522e+07
4.56993e+07
4.5154e+07
4.46163e+07
4.40858e+07
4.35627e+07
4.30466e+07
4.25376e+07
4.20354e+07
4.154e+07
4.10512e+07
4.0569e+07
4.00932e+07
3.96237e+07
3.91604e+07
3.87033e+07
3.82522e+07
3.7807e+07
3.73677e+07
3.69341e+07
3.65062e+07
3.60839e+07
3.5667e+07
3.52556e+07
3.48497e+07
3.44489e+07
3.4053e+07
3.36624e+07
3.32767e+07
3.28954e+07
3.25183e+07
3.21445e+07
3.17746e+07
3.1409e+07
3.10604e+07
3.07925e+07
)
;

boundaryField
{
    boundary
    {
        type            empty;
    }
    inlet
    {
        type            calculated;
        value           uniform 0;
    }
    outlet
    {
        type            calculated;
        value           uniform 0;
    }
}


// ************************************************************************* //
