/*--------------------------------*- C++ -*----------------------------------*\
  =========                 |
  \\      /  F ield         | OpenFOAM: The Open Source CFD Toolbox
   \\    /   O peration     | Website:  https://openfoam.org
    \\  /    A nd           | Version:  7
     \\/     M anipulation  |
\*---------------------------------------------------------------------------*/
FoamFile
{
    version     2.0;
    format      ascii;
    class       volScalarField;
    location    "0.00099";
    object      rho;
}
// * * * * * * * * * * * * * * * * * * * * * * * * * * * * * * * * * * * * * //

dimensions      [1 -3 0 0 0 0 0];

internalField   nonuniform List<scalar> 
500
(
0.864782
0.864781
0.86478
0.864779
0.864778
0.864776
0.864774
0.864772
0.86477
0.864768
0.864766
0.864764
0.864763
0.864762
0.864762
0.864762
0.864763
0.864765
0.864768
0.864772
0.864777
0.864782
0.864789
0.864796
0.864804
0.864811
0.86482
0.864827
0.864835
0.864842
0.864848
0.864853
0.864857
0.864859
0.86486
0.864859
0.864855
0.86485
0.864842
0.864831
0.864818
0.864802
0.864783
0.864761
0.864736
0.864706
0.864673
0.864636
0.864594
0.864547
0.864496
0.864438
0.864376
0.864307
0.864232
0.864151
0.864064
0.863971
0.863872
0.863767
0.863656
0.86354
0.863419
0.863293
0.863164
0.863032
0.862898
0.862762
0.862625
0.862489
0.862353
0.86222
0.862088
0.86196
0.861836
0.861716
0.861601
0.861492
0.861388
0.861291
0.8612
0.861115
0.861036
0.860964
0.860898
0.860838
0.860784
0.860736
0.860692
0.860654
0.86062
0.86059
0.860564
0.860541
0.860522
0.860505
0.86049
0.860478
0.860468
0.860459
0.860452
0.860446
0.860441
0.860437
0.860434
0.860431
0.860429
0.860427
0.860425
0.860424
0.860423
0.860423
0.860422
0.860421
0.860421
0.860421
0.86042
0.86042
0.86042
0.86042
0.86042
0.86042
0.860419
0.860419
0.860419
0.860419
0.860419
0.860419
0.860419
0.860419
0.860418
0.860418
0.860418
0.860418
0.860418
0.860417
0.860417
0.860417
0.860417
0.860416
0.860416
0.860416
0.860415
0.860415
0.860414
0.860414
0.860414
0.860413
0.860413
0.860412
0.860412
0.860412
0.860411
0.860411
0.860411
0.86041
0.86041
0.86041
0.860409
0.860409
0.860409
0.860408
0.860408
0.860408
0.860407
0.860407
0.860407
0.860406
0.860406
0.860405
0.860405
0.860404
0.860404
0.860403
0.860403
0.860402
0.860402
0.860401
0.860401
0.8604
0.860399
0.860399
0.860398
0.860398
0.860397
0.860396
0.860396
0.860395
0.860395
0.860394
0.860393
0.860393
0.860392
0.860392
0.860391
0.86039
0.86039
0.860389
0.860388
0.860388
0.860387
0.860387
0.860386
0.860386
0.860385
0.860384
0.860384
0.860383
0.860383
0.860383
0.860382
0.860382
0.860382
0.860381
0.860381
0.860381
0.860381
0.86038
0.86038
0.86038
0.86038
0.86038
0.86038
0.860381
0.860381
0.860381
0.860381
0.860382
0.860382
0.860383
0.860384
0.860384
0.860385
0.860386
0.860387
0.860388
0.860389
0.860391
0.860392
0.860393
0.860395
0.860397
0.860398
0.8604
0.860402
0.860405
0.860407
0.860409
0.860412
0.860415
0.860418
0.860421
0.860424
0.860427
0.860431
0.860434
0.860438
0.860442
0.860446
0.86045
0.860454
0.860459
0.860464
0.860469
0.860475
0.86048
0.860481
0.860465
0.860393
0.860139
0.859325
0.856833
0.849448
0.828523
0.77521
0.670061
0.534265
0.419086
0.341647
0.29097
0.255991
0.231085
0.213647
0.200762
0.19088
0.183803
0.178595
0.174428
0.171021
0.168169
0.165738
0.163633
0.161785
0.160147
0.158681
0.15736
0.15616
0.155064
0.154059
0.153133
0.152275
0.151478
0.150735
0.15004
0.149389
0.148777
0.148201
0.147656
0.147141
0.146654
0.146191
0.145753
0.145348
0.144968
0.144602
0.144251
0.143912
0.143585
0.14327
0.142966
0.142672
0.142387
0.142112
0.141846
0.141588
0.141337
0.141094
0.140858
0.140629
0.140407
0.14019
0.13998
0.139775
0.139575
0.13938
0.139191
0.139006
0.138826
0.13865
0.138478
0.13831
0.138146
0.137986
0.137829
0.137676
0.137526
0.137379
0.137236
0.137095
0.136957
0.136822
0.13669
0.13656
0.136433
0.136308
0.136186
0.136066
0.135948
0.135832
0.135719
0.135607
0.135497
0.13539
0.135284
0.13518
0.135077
0.134977
0.134878
0.134781
0.134685
0.134591
0.134498
0.134407
0.134318
0.13423
0.134143
0.134058
0.133974
0.133891
0.133809
0.133728
0.133648
0.13357
0.133493
0.133416
0.133341
0.133267
0.133194
0.133122
0.133051
0.132981
0.132911
0.132843
0.132776
0.132709
0.132643
0.132578
0.132514
0.132451
0.132389
0.132327
0.132266
0.132206
0.132146
0.132087
0.132029
0.131972
0.131915
0.131859
0.131803
0.131749
0.131694
0.131641
0.131588
0.131535
0.131483
0.131432
0.131381
0.131331
0.131282
0.131233
0.131184
0.131136
0.131089
0.131042
0.130995
0.130949
0.130904
0.130859
0.130814
0.13077
0.130727
0.130684
0.130641
0.130599
0.130557
0.130516
0.130475
0.130434
0.130394
0.130354
0.130315
0.130276
0.130237
0.130199
0.130161
0.130124
0.130087
0.13005
0.130014
0.129978
0.129942
0.129907
0.129872
0.129837
0.129802
0.129768
0.129734
0.129701
0.129668
0.129635
0.129602
0.12957
0.129538
0.129506
0.129474
0.129443
0.129412
0.129381
0.129351
0.12932
0.12929
0.129261
0.129231
0.129202
0.129173
0.129144
0.129115
0.129087
0.129059
0.129031
0.129003
0.128975
0.128948
0.128921
0.128894
0.128867
0.12884
0.128813
0.128787
0.12876
0.128734
0.128708
0.128681
0.128655
0.128629
0.128603
0.128578
0.128556
0.128541
)
;

boundaryField
{
    boundary
    {
        type            empty;
    }
    inlet
    {
        type            calculated;
        value           uniform 0.864784;
    }
    outlet
    {
        type            calculated;
        value           uniform 0.128541;
    }
}


// ************************************************************************* //
