/*--------------------------------*- C++ -*----------------------------------*\
  =========                 |
  \\      /  F ield         | OpenFOAM: The Open Source CFD Toolbox
   \\    /   O peration     | Website:  https://openfoam.org
    \\  /    A nd           | Version:  7
     \\/     M anipulation  |
\*---------------------------------------------------------------------------*/
FoamFile
{
    version     2.0;
    format      ascii;
    class       volScalarField;
    location    "0.00034";
    object      H2O2;
}
// * * * * * * * * * * * * * * * * * * * * * * * * * * * * * * * * * * * * * //

dimensions      [0 0 0 0 0 0 0];

internalField   nonuniform List<scalar> 
125
(
2.00208e-52
6.44301e-52
1.28346e-51
2.11998e-51
3.15708e-51
4.39924e-51
5.85254e-51
7.52491e-51
9.42618e-51
1.1568e-50
1.39633e-50
1.66255e-50
1.9567e-50
2.27974e-50
2.63215e-50
3.01362e-50
3.42289e-50
3.85753e-50
4.3138e-50
4.78668e-50
5.26995e-50
5.75644e-50
6.23838e-50
6.70784e-50
7.15723e-50
7.57971e-50
7.96968e-50
8.32296e-50
8.63704e-50
8.91104e-50
9.1456e-50
9.34265e-50
9.50514e-50
9.63668e-50
9.74124e-50
9.82288e-50
9.8855e-50
9.93272e-50
9.96772e-50
9.99324e-50
1.00115e-49
1.00245e-49
1.00334e-49
1.00396e-49
1.00437e-49
1.00465e-49
1.00483e-49
1.00494e-49
1.00502e-49
1.00507e-49
1.00509e-49
1.00511e-49
1.00512e-49
1.00513e-49
1.00514e-49
1.00514e-49
1.00514e-49
1.00515e-49
1.00515e-49
1.00515e-49
1.00515e-49
1.00516e-49
1.00516e-49
1.00517e-49
1.00517e-49
1.00518e-49
1.00518e-49
1.00519e-49
1.00519e-49
1.0052e-49
1.00521e-49
1.00522e-49
1.00523e-49
1.00524e-49
1.00525e-49
1.00526e-49
1.00527e-49
1.00528e-49
1.0053e-49
1.00531e-49
1.00532e-49
1.00534e-49
1.00536e-49
1.00538e-49
1.00539e-49
1.00541e-49
1.00544e-49
1.00546e-49
1.00548e-49
1.0055e-49
1.00553e-49
1.00556e-49
1.00558e-49
1.00561e-49
1.00564e-49
1.00567e-49
1.00571e-49
1.00574e-49
1.00578e-49
1.00581e-49
1.00585e-49
1.00589e-49
1.00593e-49
1.00597e-49
1.00602e-49
1.00606e-49
1.00611e-49
1.00616e-49
1.00621e-49
1.00626e-49
1.00631e-49
1.00637e-49
1.00642e-49
1.00648e-49
1.00654e-49
1.0066e-49
1.00666e-49
1.00673e-49
1.00679e-49
1.00686e-49
1.00693e-49
1.007e-49
1.00706e-49
1.00699e-49
1.00569e-49
)
;

boundaryField
{
    boundary
    {
        type            empty;
    }
    inlet
    {
        type            fixedValue;
        value           uniform 0;
    }
    outlet
    {
        type            zeroGradient;
    }
    procBoundary2to3
    {
        type            processor;
        value           uniform 1.00263e-49;
    }
}


// ************************************************************************* //
