/*--------------------------------*- C++ -*----------------------------------*\
  =========                 |
  \\      /  F ield         | OpenFOAM: The Open Source CFD Toolbox
   \\    /   O peration     | Website:  https://openfoam.org
    \\  /    A nd           | Version:  7
     \\/     M anipulation  |
\*---------------------------------------------------------------------------*/
FoamFile
{
    version     2.0;
    format      ascii;
    class       volScalarField;
    location    "0.00031";
    object      H;
}
// * * * * * * * * * * * * * * * * * * * * * * * * * * * * * * * * * * * * * //

dimensions      [0 0 0 0 0 0 0];

internalField   nonuniform List<scalar> 
500
(
1.488e-41
2.01875e-41
2.13682e-41
2.16659e-41
2.17828e-41
2.18737e-41
2.19755e-41
2.21003e-41
2.22551e-41
2.24461e-41
2.26795e-41
2.29612e-41
2.32966e-41
2.36895e-41
2.41425e-41
2.46557e-41
2.52268e-41
2.58507e-41
2.65194e-41
2.72225e-41
2.79471e-41
2.86789e-41
2.94029e-41
3.01043e-41
3.07696e-41
3.13872e-41
3.19487e-41
3.24482e-41
3.28836e-41
3.32552e-41
3.3566e-41
3.38209e-41
3.40259e-41
3.41878e-41
3.43132e-41
3.44086e-41
3.448e-41
3.45326e-41
3.45706e-41
3.45976e-41
3.46166e-41
3.46297e-41
3.46387e-41
3.46446e-41
3.46486e-41
3.46512e-41
3.46529e-41
3.4654e-41
3.46548e-41
3.46552e-41
3.46556e-41
3.46558e-41
3.4656e-41
3.46562e-41
3.46563e-41
3.46565e-41
3.46566e-41
3.46568e-41
3.4657e-41
3.46571e-41
3.46573e-41
3.46575e-41
3.46577e-41
3.46579e-41
3.46582e-41
3.46584e-41
3.46587e-41
3.4659e-41
3.46593e-41
3.46596e-41
3.46599e-41
3.46603e-41
3.46606e-41
3.4661e-41
3.46614e-41
3.46618e-41
3.46623e-41
3.46628e-41
3.46633e-41
3.46638e-41
3.46643e-41
3.46649e-41
3.46655e-41
3.46661e-41
3.46668e-41
3.46674e-41
3.46681e-41
3.46689e-41
3.46696e-41
3.46704e-41
3.46713e-41
3.46721e-41
3.4673e-41
3.4674e-41
3.46749e-41
3.46759e-41
3.46769e-41
3.4678e-41
3.46791e-41
3.46803e-41
3.46815e-41
3.46827e-41
3.46839e-41
3.46852e-41
3.46866e-41
3.46879e-41
3.46894e-41
3.46908e-41
3.46923e-41
3.46939e-41
3.46954e-41
3.46971e-41
3.46987e-41
3.47004e-41
3.47022e-41
3.4704e-41
3.47058e-41
3.47077e-41
3.47096e-41
3.47115e-41
3.47135e-41
3.47156e-41
3.47176e-41
3.47197e-41
3.47217e-41
3.47238e-41
3.47259e-41
3.47281e-41
3.47302e-41
3.47324e-41
3.47346e-41
3.47368e-41
3.47389e-41
3.47411e-41
3.47432e-41
3.47453e-41
3.47475e-41
3.47496e-41
3.47518e-41
3.47541e-41
3.47564e-41
3.47588e-41
3.47613e-41
3.47639e-41
3.47665e-41
3.47693e-41
3.4772e-41
3.47749e-41
3.47777e-41
3.47806e-41
3.47834e-41
3.47862e-41
3.47889e-41
3.47916e-41
3.47941e-41
3.47966e-41
3.4799e-41
3.48013e-41
3.48036e-41
3.48057e-41
3.48077e-41
3.48096e-41
3.48113e-41
3.4813e-41
3.48146e-41
3.4816e-41
3.48173e-41
3.48184e-41
3.48194e-41
3.48203e-41
3.48209e-41
3.48215e-41
3.48218e-41
3.48219e-41
3.48218e-41
3.48216e-41
3.4821e-41
3.48203e-41
3.48193e-41
3.48181e-41
3.48165e-41
3.48148e-41
3.48127e-41
3.48103e-41
3.48076e-41
3.48045e-41
3.48012e-41
3.47974e-41
3.47933e-41
3.47889e-41
3.4784e-41
3.47787e-41
3.47731e-41
3.47669e-41
3.47604e-41
3.47534e-41
3.47459e-41
3.4738e-41
3.47295e-41
3.47206e-41
3.47112e-41
3.47012e-41
3.46907e-41
3.46797e-41
3.46681e-41
3.46559e-41
3.46432e-41
3.46299e-41
3.4616e-41
3.46016e-41
3.45865e-41
3.45708e-41
3.45546e-41
3.45377e-41
3.45202e-41
3.45021e-41
3.44833e-41
3.4464e-41
3.44441e-41
3.44239e-41
3.44047e-41
3.43929e-41
3.44213e-41
3.4653e-41
3.58916e-41
4.20544e-41
7.2015e-41
2.1565e-40
8.95938e-40
4.07985e-39
1.88047e-38
8.60902e-38
3.8985e-37
1.74455e-36
7.71261e-36
3.36833e-35
1.45317e-34
6.19331e-34
2.60777e-33
1.08498e-32
4.46161e-32
1.81397e-31
7.29555e-31
2.90453e-30
1.14574e-29
4.48352e-29
1.74324e-28
6.74788e-28
2.60681e-27
1.00794e-26
3.91321e-26
1.53073e-25
6.05384e-25
2.42795e-24
9.89744e-24
4.10592e-23
1.7335e-22
7.44129e-22
3.24231e-21
1.43114e-20
6.3869e-20
2.87748e-19
1.30754e-18
5.99237e-18
2.7727e-17
1.29842e-16
6.17865e-16
3.0052e-15
1.5052e-14
7.82744e-14
4.25725e-13
2.63991e-12
1.96258e-11
1.92017e-10
1.78691e-09
1.67782e-08
1.54814e-07
1.33899e-06
9.84349e-06
5.29917e-05
0.000179903
0.000404338
0.00071004
0.00106731
0.00141658
0.00168913
0.00185318
0.00192144
0.00191757
0.0018729
0.00180721
0.00173291
0.00165709
0.00158354
0.00151406
0.00144934
0.00138949
0.00133428
0.00128338
0.00123641
0.00119298
0.00115273
0.00111534
0.00108051
0.00104799
0.00101755
0.000988995
0.000962146
0.000936854
0.000912983
0.000890413
0.000869039
0.00084936
0.000831065
0.000813541
0.00079674
0.000780618
0.000765133
0.000750247
0.000735926
0.000722136
0.000708848
0.000696035
0.000683671
0.000671733
0.000660199
0.000649048
0.000638262
0.000627823
0.000617715
0.000607922
0.000598431
0.000589227
0.000580299
0.000571634
0.000563221
0.00055505
0.000547111
0.000539395
0.000531893
0.000524596
0.000517498
0.00051059
0.000503866
0.000497318
0.000490941
0.000484728
0.000478674
0.000472772
0.000467018
0.000461407
0.000455934
0.000450593
0.000445381
0.000440293
0.000435325
0.000430472
0.000425732
0.000421099
0.00041657
0.000412141
0.000407809
0.00040357
0.000399421
0.000395358
0.000391378
0.000387477
0.000383653
0.000379902
0.00037622
0.000372605
0.000369052
0.000365559
0.00036212
0.000358731
0.000355384
0.000352063
0.000348773
0.000345514
0.000342284
0.000339079
0.000335897
0.000332735
0.000329588
0.000326455
0.00032333
0.000320212
0.000317096
0.000313981
0.000310862
0.000307737
0.000304603
0.000301458
0.0002983
0.000295125
0.000291932
0.00028872
0.000285486
0.00028223
0.000278949
0.000275644
0.000272313
0.000268956
0.000265574
0.000262165
0.00025873
0.000255269
0.000251784
0.000248275
0.000244744
0.000241191
0.000237619
0.000234029
0.000230422
0.000226802
0.00022317
0.000219529
0.000215882
0.00021223
0.000208577
0.000204926
0.00020128
0.000197642
0.000194015
0.000190402
0.000186807
0.000183233
0.000179684
0.000176162
0.000172671
0.000169215
0.000165796
0.000162419
0.000159086
0.000155801
0.000152567
0.000149386
0.000146263
0.000143198
0.000140196
0.000137259
0.000134389
0.000131588
0.000128858
0.000126202
0.00012362
0.000121114
0.000118686
0.000116336
0.000114066
0.000111875
0.000109764
0.000107734
0.000105784
0.000103913
0.000102122
0.00010041
9.87758e-05
9.72183e-05
9.57365e-05
9.43288e-05
9.29939e-05
9.173e-05
9.05353e-05
8.94081e-05
8.83462e-05
8.73477e-05
8.64103e-05
8.55318e-05
8.471e-05
8.39427e-05
8.32274e-05
8.25618e-05
8.19436e-05
8.13706e-05
8.08403e-05
8.03506e-05
7.98991e-05
7.94837e-05
7.91022e-05
7.87526e-05
7.84327e-05
7.81406e-05
7.78746e-05
7.76327e-05
7.74132e-05
7.72145e-05
7.70349e-05
7.68732e-05
7.67277e-05
7.65972e-05
7.64807e-05
7.63771e-05
7.62855e-05
7.62053e-05
7.6136e-05
7.60777e-05
7.60309e-05
7.5997e-05
7.59782e-05
)
;

boundaryField
{
    boundary
    {
        type            empty;
    }
    inlet
    {
        type            fixedValue;
        value           uniform 0;
    }
    outlet
    {
        type            zeroGradient;
    }
}


// ************************************************************************* //
