/*--------------------------------*- C++ -*----------------------------------*\
  =========                 |
  \\      /  F ield         | OpenFOAM: The Open Source CFD Toolbox
   \\    /   O peration     | Website:  https://openfoam.org
    \\  /    A nd           | Version:  7
     \\/     M anipulation  |
\*---------------------------------------------------------------------------*/
FoamFile
{
    version     2.0;
    format      ascii;
    class       volScalarField;
    location    "0.00031";
    object      H2O;
}
// * * * * * * * * * * * * * * * * * * * * * * * * * * * * * * * * * * * * * //

dimensions      [0 0 0 0 0 0 0];

internalField   nonuniform List<scalar> 
500
(
7.91972e-48
2.29297e-47
4.1351e-47
6.21619e-47
8.47056e-47
1.08582e-46
1.33571e-46
1.59585e-46
1.86624e-46
2.14752e-46
2.44064e-46
2.74663e-46
3.06627e-46
3.39989e-46
3.74709e-46
4.10656e-46
4.47599e-46
4.852e-46
5.2303e-46
5.60586e-46
5.97317e-46
6.32667e-46
6.6611e-46
6.97187e-46
7.25534e-46
7.50905e-46
7.73179e-46
7.92359e-46
8.08556e-46
8.21971e-46
8.32869e-46
8.41556e-46
8.4835e-46
8.53565e-46
8.57496e-46
8.60407e-46
8.62523e-46
8.64036e-46
8.651e-46
8.65834e-46
8.66333e-46
8.66667e-46
8.66887e-46
8.6703e-46
8.6712e-46
8.67177e-46
8.67213e-46
8.67234e-46
8.67247e-46
8.67255e-46
8.67259e-46
8.67262e-46
8.67264e-46
8.67265e-46
8.67266e-46
8.67267e-46
8.67269e-46
8.6727e-46
8.67272e-46
8.67273e-46
8.67276e-46
8.67278e-46
8.67281e-46
8.67284e-46
8.67287e-46
8.67291e-46
8.67296e-46
8.673e-46
8.67305e-46
8.67311e-46
8.67317e-46
8.67324e-46
8.67331e-46
8.67339e-46
8.67347e-46
8.67356e-46
8.67366e-46
8.67376e-46
8.67387e-46
8.67398e-46
8.67411e-46
8.67424e-46
8.67437e-46
8.67452e-46
8.67467e-46
8.67483e-46
8.675e-46
8.67518e-46
8.67537e-46
8.67557e-46
8.67577e-46
8.67599e-46
8.67622e-46
8.67645e-46
8.6767e-46
8.67695e-46
8.67722e-46
8.6775e-46
8.67778e-46
8.67808e-46
8.67839e-46
8.67872e-46
8.67905e-46
8.67939e-46
8.67975e-46
8.68012e-46
8.6805e-46
8.68089e-46
8.68129e-46
8.68171e-46
8.68214e-46
8.68258e-46
8.68303e-46
8.6835e-46
8.68397e-46
8.68446e-46
8.68496e-46
8.68548e-46
8.686e-46
8.68654e-46
8.6871e-46
8.6877e-46
8.68844e-46
8.68973e-46
8.6931e-46
8.70044e-46
8.70038e-46
8.70018e-46
8.69975e-46
8.699e-46
8.69786e-46
8.69629e-46
8.69431e-46
8.69197e-46
8.68936e-46
8.68662e-46
8.68388e-46
8.68133e-46
8.67913e-46
8.67744e-46
8.67639e-46
8.67606e-46
8.6765e-46
8.67767e-46
8.6795e-46
8.68186e-46
8.68462e-46
8.68761e-46
8.6907e-46
8.69375e-46
8.69665e-46
8.69935e-46
8.70178e-46
8.70395e-46
8.70584e-46
8.70747e-46
8.70887e-46
8.71007e-46
8.71109e-46
8.71198e-46
8.71274e-46
8.7134e-46
8.71398e-46
8.7145e-46
8.71494e-46
8.71534e-46
8.71568e-46
8.71597e-46
8.71621e-46
8.7164e-46
8.71654e-46
8.71662e-46
8.71665e-46
8.71661e-46
8.71652e-46
8.71635e-46
8.71612e-46
8.71581e-46
8.71543e-46
8.71497e-46
8.71442e-46
8.71379e-46
8.71307e-46
8.71225e-46
8.71134e-46
8.71032e-46
8.7092e-46
8.70797e-46
8.70662e-46
8.70516e-46
8.70358e-46
8.70187e-46
8.70003e-46
8.69806e-46
8.69595e-46
8.6937e-46
8.6913e-46
8.68876e-46
8.68607e-46
8.68321e-46
8.6802e-46
8.67703e-46
8.67369e-46
8.67019e-46
8.66651e-46
8.66265e-46
8.65862e-46
8.65441e-46
8.65002e-46
8.64547e-46
8.64093e-46
8.63729e-46
8.63988e-46
8.67959e-46
8.93401e-46
1.04164e-45
1.88632e-45
6.65188e-45
3.33478e-44
1.8202e-43
1.00613e-42
5.55934e-42
3.06765e-41
1.69285e-40
9.36144e-40
5.19917e-39
2.9061e-38
1.63775e-37
9.31684e-37
5.35243e-36
3.10375e-35
1.81426e-34
1.0669e-33
6.29658e-33
3.71969e-32
2.19389e-31
1.28884e-30
7.52565e-30
4.35981e-29
2.50218e-28
1.42089e-27
7.9755e-27
4.42135e-26
2.41917e-25
1.30574e-24
6.94914e-24
3.64531e-23
1.88423e-22
9.5946e-22
4.81208e-21
2.37683e-20
1.14968e-19
5.50139e-19
2.59539e-18
1.20629e-17
5.52427e-17
2.49355e-16
1.10988e-15
4.87411e-15
2.1133e-14
9.05324e-14
3.83525e-13
1.60816e-12
6.68084e-12
2.75257e-11
1.12586e-10
4.57616e-10
1.85007e-09
7.44586e-09
2.98541e-08
1.19323e-07
4.75617e-07
1.89106e-06
7.49867e-06
2.96183e-05
0.000116052
0.000445664
0.00162391
0.00523129
0.0135394
0.0270582
0.0442739
0.065102
0.089678
0.115682
0.139015
0.156842
0.172218
0.181197
0.187226
0.191331
0.194214
0.196329
0.19796
0.19928
0.200396
0.201373
0.202253
0.203059
0.203809
0.204514
0.20518
0.205813
0.206417
0.206994
0.207548
0.208079
0.20859
0.209082
0.209556
0.210012
0.210453
0.210865
0.211258
0.21164
0.212012
0.212375
0.212729
0.213074
0.213412
0.213741
0.214063
0.214378
0.214686
0.214987
0.215283
0.215572
0.215856
0.216135
0.216408
0.216676
0.21694
0.2172
0.217455
0.217706
0.217954
0.218198
0.218439
0.218678
0.218913
0.219146
0.219377
0.219605
0.219832
0.220057
0.22028
0.220503
0.220724
0.220945
0.221165
0.221385
0.221604
0.221824
0.222043
0.222264
0.222484
0.222705
0.222928
0.223151
0.223375
0.223601
0.223828
0.224056
0.224286
0.224518
0.224751
0.224987
0.225223
0.225462
0.225703
0.225945
0.226189
0.226436
0.226685
0.226937
0.227193
0.227441
0.227692
0.227943
0.228193
0.228444
0.228694
0.228944
0.229193
0.229441
0.229687
0.229931
0.230174
0.230414
0.230652
0.230887
0.23112
0.231349
0.231575
0.231797
0.232016
0.232232
0.232444
0.232652
0.232856
0.233057
0.233255
0.233448
0.233638
0.233825
0.234009
0.234189
0.234367
0.234541
0.234713
0.234882
0.235049
0.235214
0.235376
0.235536
0.235694
0.23585
0.236004
0.236157
0.236307
0.236455
0.236602
0.236747
0.236889
0.237029
0.237168
0.237303
0.237437
0.237568
0.237696
0.237821
0.237943
0.238063
0.238178
0.238291
0.2384
0.238505
0.238607
0.238704
0.238798
0.238888
0.238974
0.239056
0.239133
0.239207
0.239276
0.239342
0.239404
0.239462
0.239516
0.239566
0.239613
0.239657
0.239697
0.239735
0.239769
0.2398
0.239829
0.239856
0.23988
0.239902
0.239922
0.23994
0.239956
0.239971
0.239984
0.239996
0.240007
0.240017
0.240026
0.240034
0.240041
0.240047
0.240053
0.240058
0.240062
0.240066
0.24007
0.240073
0.240076
0.240079
0.240081
0.240084
0.240086
0.240087
0.240089
0.24009
0.240091
0.240093
0.240094
0.240094
0.240095
0.240096
0.240096
0.240097
0.240097
0.240098
0.240098
0.240098
0.240098
)
;

boundaryField
{
    boundary
    {
        type            empty;
    }
    inlet
    {
        type            fixedValue;
        value           uniform 0;
    }
    outlet
    {
        type            zeroGradient;
    }
}


// ************************************************************************* //
