/*--------------------------------*- C++ -*----------------------------------*\
  =========                 |
  \\      /  F ield         | OpenFOAM: The Open Source CFD Toolbox
   \\    /   O peration     | Website:  https://openfoam.org
    \\  /    A nd           | Version:  7
     \\/     M anipulation  |
\*---------------------------------------------------------------------------*/
FoamFile
{
    version     2.0;
    format      ascii;
    class       volScalarField;
    location    "0.00031";
    object      N2;
}
// * * * * * * * * * * * * * * * * * * * * * * * * * * * * * * * * * * * * * //

dimensions      [0 0 0 0 0 0 0];

internalField   nonuniform List<scalar> 
500
(
0.745219
0.745219
0.745219
0.745219
0.745219
0.745219
0.745219
0.745219
0.745219
0.745219
0.745219
0.745219
0.745219
0.745219
0.745219
0.745219
0.745219
0.745219
0.745219
0.745219
0.74522
0.74522
0.74522
0.74522
0.74522
0.74522
0.74522
0.74522
0.74522
0.74522
0.74522
0.74522
0.74522
0.74522
0.74522
0.74522
0.74522
0.74522
0.74522
0.74522
0.74522
0.74522
0.74522
0.74522
0.74522
0.74522
0.74522
0.74522
0.74522
0.74522
0.74522
0.74522
0.74522
0.74522
0.74522
0.74522
0.74522
0.74522
0.74522
0.74522
0.74522
0.74522
0.74522
0.74522
0.74522
0.74522
0.74522
0.74522
0.74522
0.74522
0.74522
0.74522
0.74522
0.74522
0.74522
0.74522
0.74522
0.74522
0.74522
0.74522
0.74522
0.74522
0.74522
0.74522
0.74522
0.74522
0.74522
0.74522
0.74522
0.74522
0.74522
0.74522
0.74522
0.74522
0.74522
0.74522
0.74522
0.74522
0.74522
0.74522
0.74522
0.74522
0.74522
0.74522
0.74522
0.74522
0.74522
0.74522
0.74522
0.74522
0.74522
0.74522
0.74522
0.74522
0.74522
0.74522
0.74522
0.74522
0.74522
0.74522
0.74522
0.74522
0.74522
0.74522
0.74522
0.74522
0.74522
0.74522
0.74522
0.74522
0.74522
0.74522
0.74522
0.74522
0.74522
0.74522
0.74522
0.74522
0.74522
0.74522
0.74522
0.74522
0.74522
0.74522
0.74522
0.74522
0.74522
0.74522
0.74522
0.74522
0.74522
0.74522
0.74522
0.74522
0.74522
0.74522
0.74522
0.74522
0.74522
0.74522
0.74522
0.74522
0.74522
0.74522
0.74522
0.74522
0.74522
0.74522
0.74522
0.74522
0.74522
0.74522
0.74522
0.74522
0.74522
0.74522
0.74522
0.74522
0.74522
0.74522
0.74522
0.74522
0.74522
0.74522
0.74522
0.74522
0.74522
0.74522
0.74522
0.74522
0.74522
0.74522
0.74522
0.74522
0.74522
0.74522
0.74522
0.74522
0.74522
0.74522
0.74522
0.74522
0.74522
0.74522
0.74522
0.74522
0.74522
0.74522
0.74522
0.74522
0.74522
0.74522
0.74522
0.74522
0.74522
0.74522
0.74522
0.74522
0.74522
0.74522
0.74522
0.74522
0.74522
0.74522
0.74522
0.74522
0.74522
0.74522
0.74522
0.74522
0.74522
0.74522
0.74522
0.74522
0.74522
0.74522
0.74522
0.74522
0.74522
0.74522
0.74522
0.74522
0.74522
0.74522
0.74522
0.74522
0.74522
0.74522
0.74522
0.74522
0.74522
0.74522
0.74522
0.74522
0.74522
0.74522
0.74522
0.74522
0.74522
0.74522
0.74522
0.74522
0.74522
0.74522
0.74522
0.74522
0.74522
0.74522
0.745221
0.745222
0.745224
0.74523
0.745241
0.745263
0.745306
0.745384
0.745503
0.745616
0.745576
0.745308
0.744892
0.744347
0.743828
0.743607
0.743757
0.744075
0.744251
0.744814
0.745008
0.745143
0.745229
0.74528
0.745311
0.745328
0.745337
0.745341
0.745342
0.745341
0.745339
0.745337
0.745334
0.745331
0.745328
0.745325
0.745322
0.74532
0.745317
0.745315
0.745312
0.74531
0.745308
0.745306
0.745304
0.745302
0.7453
0.745298
0.745296
0.745294
0.745292
0.74529
0.745288
0.745285
0.745283
0.745281
0.745278
0.745275
0.745273
0.74527
0.745267
0.745263
0.74526
0.745256
0.745253
0.745249
0.745245
0.745241
0.745237
0.745232
0.745228
0.745223
0.745219
0.745214
0.745209
0.745204
0.7452
0.745195
0.74519
0.745185
0.74518
0.745175
0.745171
0.745166
0.745162
0.745157
0.745153
0.745149
0.745146
0.745142
0.745139
0.745136
0.745134
0.745132
0.745131
0.74513
0.74513
0.745131
0.745132
0.745134
0.745137
0.745141
0.745146
0.745151
0.745157
0.745164
0.745172
0.74518
0.745192
0.745205
0.745219
0.745234
0.74525
0.745268
0.745286
0.745306
0.745326
0.745348
0.74537
0.745392
0.745415
0.745438
0.745462
0.745485
0.745508
0.745531
0.745553
0.745574
0.745595
0.745614
0.745631
0.745648
0.745662
0.745674
0.745685
0.745693
0.745699
0.745703
0.745704
0.745703
0.745699
0.745692
0.745683
0.745672
0.745658
0.745642
0.745623
0.745603
0.74558
0.745556
0.74553
0.745502
0.745473
0.745444
0.745413
0.745382
0.745351
0.74532
0.745288
0.745258
0.745227
0.745198
0.745169
0.745142
0.745115
0.74509
0.745067
0.745046
0.745026
0.745008
0.744991
0.744977
0.744965
0.744954
0.744945
0.744939
0.744933
0.74493
0.744928
0.744928
0.744929
0.744932
0.744936
0.744941
0.744947
0.744954
0.744962
0.74497
0.744979
0.744988
0.744998
0.745008
0.745018
0.745029
0.745039
0.745049
0.74506
0.745069
0.745079
0.745089
0.745098
0.745107
0.745115
0.745123
0.745131
0.745138
0.745145
0.745151
0.745157
0.745163
0.745168
0.745173
0.745178
0.745182
0.745185
0.745189
0.745192
0.745195
0.745198
0.7452
0.745202
0.745204
0.745206
0.745208
0.745209
0.74521
0.745211
0.745212
0.745213
0.745214
0.745214
0.745215
)
;

boundaryField
{
    boundary
    {
        type            empty;
    }
    inlet
    {
        type            fixedValue;
        value           uniform 0.74522;
    }
    outlet
    {
        type            zeroGradient;
    }
}


// ************************************************************************* //
