/*--------------------------------*- C++ -*----------------------------------*\
  =========                 |
  \\      /  F ield         | OpenFOAM: The Open Source CFD Toolbox
   \\    /   O peration     | Website:  https://openfoam.org
    \\  /    A nd           | Version:  7
     \\/     M anipulation  |
\*---------------------------------------------------------------------------*/
FoamFile
{
    version     2.0;
    format      ascii;
    class       volScalarField;
    location    "0.00031";
    object      O;
}
// * * * * * * * * * * * * * * * * * * * * * * * * * * * * * * * * * * * * * //

dimensions      [0 0 0 0 0 0 0];

internalField   nonuniform List<scalar> 
500
(
1.58361e-47
3.7868e-47
6.0146e-47
8.26073e-47
1.05293e-46
1.28281e-46
1.51669e-46
1.75574e-46
2.00122e-46
2.25451e-46
2.51689e-46
2.78953e-46
3.07323e-46
3.36834e-46
3.67456e-46
3.99083e-46
4.3153e-46
4.64527e-46
4.97732e-46
5.30741e-46
5.63112e-46
5.94391e-46
6.24143e-46
6.51977e-46
6.77573e-46
7.00697e-46
7.21215e-46
7.39093e-46
7.54386e-46
7.6723e-46
7.77821e-46
7.86398e-46
7.9322e-46
7.9855e-46
8.02641e-46
8.05729e-46
8.08019e-46
8.0969e-46
8.10889e-46
8.11735e-46
8.12324e-46
8.12726e-46
8.12997e-46
8.13177e-46
8.13295e-46
8.13371e-46
8.13419e-46
8.13449e-46
8.13468e-46
8.13479e-46
8.13486e-46
8.13491e-46
8.13493e-46
8.13496e-46
8.13497e-46
8.13499e-46
8.135e-46
8.13502e-46
8.13504e-46
8.13506e-46
8.13508e-46
8.13511e-46
8.13514e-46
8.13517e-46
8.1352e-46
8.13524e-46
8.13529e-46
8.13533e-46
8.13539e-46
8.13544e-46
8.1355e-46
8.13557e-46
8.13564e-46
8.13572e-46
8.1358e-46
8.13588e-46
8.13598e-46
8.13608e-46
8.13618e-46
8.13629e-46
8.13641e-46
8.13654e-46
8.13667e-46
8.13681e-46
8.13696e-46
8.13711e-46
8.13728e-46
8.13745e-46
8.13763e-46
8.13781e-46
8.13801e-46
8.13822e-46
8.13843e-46
8.13866e-46
8.13889e-46
8.13913e-46
8.13939e-46
8.13965e-46
8.13992e-46
8.14021e-46
8.1405e-46
8.14081e-46
8.14112e-46
8.14145e-46
8.14178e-46
8.14213e-46
8.14249e-46
8.14286e-46
8.14325e-46
8.14364e-46
8.14404e-46
8.14446e-46
8.14489e-46
8.14533e-46
8.14578e-46
8.14624e-46
8.14671e-46
8.14719e-46
8.14769e-46
8.14819e-46
8.14869e-46
8.14918e-46
8.14963e-46
8.14993e-46
8.14977e-46
8.1491e-46
8.14964e-46
8.15012e-46
8.15052e-46
8.15084e-46
8.15107e-46
8.15118e-46
8.15117e-46
8.15104e-46
8.1508e-46
8.15046e-46
8.15005e-46
8.14963e-46
8.14923e-46
8.14894e-46
8.1488e-46
8.14887e-46
8.14921e-46
8.14982e-46
8.15073e-46
8.1519e-46
8.15331e-46
8.15492e-46
8.15665e-46
8.15845e-46
8.16027e-46
8.16204e-46
8.16373e-46
8.16532e-46
8.16677e-46
8.16809e-46
8.16926e-46
8.17031e-46
8.17123e-46
8.17205e-46
8.17277e-46
8.1734e-46
8.17396e-46
8.17446e-46
8.17489e-46
8.17527e-46
8.1756e-46
8.17588e-46
8.17612e-46
8.1763e-46
8.17643e-46
8.17651e-46
8.17654e-46
8.17651e-46
8.17642e-46
8.17627e-46
8.17605e-46
8.17577e-46
8.17541e-46
8.17499e-46
8.17448e-46
8.17389e-46
8.17322e-46
8.17246e-46
8.1716e-46
8.17065e-46
8.16961e-46
8.16846e-46
8.1672e-46
8.16584e-46
8.16436e-46
8.16277e-46
8.16105e-46
8.15921e-46
8.15724e-46
8.15514e-46
8.15291e-46
8.15054e-46
8.14802e-46
8.14536e-46
8.14255e-46
8.13959e-46
8.13648e-46
8.13321e-46
8.12978e-46
8.1262e-46
8.12254e-46
8.11921e-46
8.11872e-46
8.13577e-46
8.25609e-46
8.97442e-46
1.31177e-45
3.66772e-45
1.69192e-44
9.06851e-44
4.97062e-43
2.71236e-42
1.46607e-41
7.84117e-41
4.14855e-40
2.17082e-39
1.12331e-38
5.74715e-38
2.90685e-37
1.45326e-36
7.18041e-36
3.50569e-35
1.69102e-34
8.05774e-34
3.79226e-33
1.76254e-32
8.08859e-32
3.66468e-31
1.63895e-30
7.23443e-30
3.15132e-29
1.35449e-28
5.74383e-28
2.40283e-27
9.91514e-27
4.03544e-26
1.61983e-25
6.41229e-25
2.50328e-24
9.63743e-24
3.65914e-23
1.37023e-22
5.06117e-22
1.84424e-21
6.63108e-21
2.35505e-20
8.25366e-20
2.85635e-19
9.76715e-19
3.30182e-18
1.10414e-17
3.65468e-17
1.19819e-16
3.89369e-16
1.2551e-15
4.01606e-15
1.2766e-14
4.03425e-14
1.26834e-13
3.96985e-13
1.23782e-12
3.84715e-12
1.19248e-11
3.688e-11
1.13851e-10
3.50963e-10
1.08104e-09
3.33318e-09
1.03577e-08
3.33026e-08
1.20632e-07
5.79966e-07
3.84332e-06
2.49725e-05
0.00011914
0.00045401
0.00126214
0.00251326
0.00387314
0.00500728
0.00578545
0.00623741
0.00641629
0.00644257
0.0063762
0.00625673
0.00610926
0.00594911
0.00578539
0.00562334
0.00546582
0.00531433
0.00516952
0.00503156
0.00490035
0.00477565
0.00465714
0.00454446
0.00443726
0.00433518
0.00423791
0.00414514
0.00405656
0.00397193
0.00389103
0.00381365
0.00374188
0.00367416
0.00360882
0.0035457
0.00348468
0.00342567
0.00336856
0.00331325
0.00325967
0.00320773
0.00315736
0.00310848
0.00306103
0.00301494
0.00297016
0.00292662
0.00288426
0.00284305
0.00280292
0.00276382
0.00272572
0.00268856
0.0026523
0.0026169
0.00258233
0.00254854
0.00251549
0.00248315
0.00245149
0.00242046
0.00239005
0.00236021
0.00233091
0.00230213
0.00227384
0.00224601
0.00221861
0.00219161
0.00216499
0.00213873
0.00211279
0.00208717
0.00206182
0.00203674
0.0020119
0.00198728
0.00196287
0.00193863
0.00191456
0.00189064
0.00186685
0.00184318
0.00181961
0.00179613
0.00177273
0.0017494
0.00172613
0.00170291
0.00167972
0.00165655
0.00163341
0.00161026
0.0015871
0.00156395
0.00154093
0.00151798
0.0014951
0.0014723
0.00144958
0.00142696
0.00140444
0.00138205
0.00135979
0.00133769
0.00131576
0.00129402
0.00127249
0.00125119
0.00123013
0.00120933
0.00118881
0.00116859
0.00114868
0.00112908
0.00110982
0.00109091
0.00107235
0.00105416
0.00103633
0.00101887
0.00100179
0.000985085
0.00096875
0.000952785
0.000937185
0.000921945
0.000907057
0.000892514
0.000878305
0.000864422
0.000850853
0.000837588
0.000824614
0.000811921
0.000799497
0.000787332
0.000775413
0.000763731
0.000752275
0.000741037
0.000730008
0.00071918
0.000708546
0.0006981
0.000687836
0.000677751
0.000667842
0.000658104
0.000648537
0.00063914
0.000629911
0.000620853
0.000611964
0.000603248
0.000594705
0.000586339
0.000578151
0.000570144
0.000562321
0.000554685
0.000547239
0.000539986
0.000532929
0.000526069
0.00051941
0.000512954
0.000506701
0.000500654
0.000494813
0.000489179
0.000483752
0.000478532
0.000473519
0.000468711
0.000464107
0.000459704
0.000455502
0.000451496
0.000447684
0.000444062
0.000440627
0.000437374
0.0004343
0.000431398
0.000428665
0.000426095
0.000423683
0.000421423
0.00041931
0.000417337
0.0004155
0.000413791
0.000412204
0.000410735
0.000409377
0.000408123
0.000406969
0.000405909
0.000404936
0.000404046
0.000403233
0.000402493
0.000401819
0.000401208
0.000400654
0.000400154
0.000399704
0.000399299
0.000398936
0.000398613
0.000398325
0.00039807
0.000397846
0.000397653
0.000397489
0.000397355
0.000397255
0.000397196
)
;

boundaryField
{
    boundary
    {
        type            empty;
    }
    inlet
    {
        type            fixedValue;
        value           uniform 0;
    }
    outlet
    {
        type            zeroGradient;
    }
}


// ************************************************************************* //
