/*--------------------------------*- C++ -*----------------------------------*\
  =========                 |
  \\      /  F ield         | OpenFOAM: The Open Source CFD Toolbox
   \\    /   O peration     | Website:  https://openfoam.org
    \\  /    A nd           | Version:  7
     \\/     M anipulation  |
\*---------------------------------------------------------------------------*/
FoamFile
{
    version     2.0;
    format      ascii;
    class       volScalarField;
    location    "0.00031";
    object      O2;
}
// * * * * * * * * * * * * * * * * * * * * * * * * * * * * * * * * * * * * * //

dimensions      [0 0 0 0 0 0 0];

internalField   nonuniform List<scalar> 
500
(
0.226269
0.226269
0.226269
0.226269
0.226269
0.226269
0.226269
0.226269
0.226269
0.226269
0.226269
0.226269
0.226269
0.226269
0.226269
0.226269
0.226269
0.226269
0.226269
0.226269
0.226269
0.226269
0.226269
0.226269
0.226269
0.226269
0.226269
0.226269
0.226269
0.226269
0.226269
0.226269
0.226269
0.226269
0.226269
0.226269
0.226269
0.226269
0.226269
0.226269
0.226269
0.226269
0.226269
0.226269
0.226269
0.226269
0.226269
0.226269
0.226269
0.226269
0.226269
0.226269
0.226269
0.226269
0.226269
0.226269
0.226269
0.226269
0.226269
0.226269
0.226269
0.226269
0.226269
0.226269
0.226269
0.226269
0.226269
0.226269
0.226269
0.226269
0.226269
0.226269
0.226269
0.226269
0.226269
0.226269
0.226269
0.226269
0.226269
0.226269
0.226269
0.226269
0.226269
0.226269
0.226269
0.226269
0.226269
0.226269
0.226269
0.226269
0.226269
0.226269
0.226269
0.226269
0.226269
0.226269
0.226269
0.226269
0.226269
0.226269
0.226269
0.226269
0.226269
0.226269
0.226269
0.226269
0.226269
0.226269
0.226269
0.226269
0.226269
0.226269
0.226269
0.226269
0.226269
0.226269
0.226269
0.226269
0.226269
0.226269
0.226269
0.226269
0.226269
0.226269
0.226269
0.226269
0.226269
0.226269
0.226269
0.226269
0.226269
0.226269
0.226269
0.226269
0.226269
0.226269
0.226269
0.226269
0.226269
0.226269
0.226269
0.226269
0.226269
0.226269
0.226269
0.226269
0.226269
0.226269
0.226269
0.226269
0.226269
0.226269
0.226269
0.226269
0.226269
0.226269
0.226269
0.226269
0.226269
0.226269
0.226269
0.226269
0.226269
0.226269
0.226269
0.226269
0.226269
0.226269
0.226269
0.226269
0.226269
0.226269
0.226269
0.226269
0.226269
0.226269
0.226269
0.226269
0.226269
0.226269
0.226269
0.226269
0.226269
0.226269
0.226269
0.226269
0.226269
0.226269
0.226269
0.226269
0.226269
0.226269
0.226269
0.226269
0.226269
0.226269
0.226269
0.226269
0.226269
0.226269
0.226269
0.226269
0.226269
0.226269
0.226269
0.226269
0.226269
0.226269
0.226269
0.226269
0.226269
0.226269
0.226269
0.226269
0.226269
0.226269
0.226269
0.226269
0.226269
0.226269
0.226269
0.226269
0.226269
0.226269
0.226269
0.226269
0.226269
0.226269
0.226269
0.226269
0.226269
0.226269
0.226269
0.226269
0.226269
0.226269
0.226269
0.226269
0.226269
0.226269
0.226269
0.226269
0.226269
0.226269
0.226269
0.226269
0.226269
0.226269
0.226269
0.226269
0.226269
0.226269
0.226269
0.226269
0.226269
0.226269
0.226269
0.226269
0.226269
0.226269
0.226269
0.226269
0.226269
0.226269
0.226269
0.226269
0.226269
0.226269
0.226269
0.22627
0.226271
0.226272
0.226275
0.226278
0.226274
0.226223
0.225968
0.224996
0.222086
0.215252
0.203899
0.189248
0.170588
0.147177
0.12127
0.0973662
0.0788535
0.0622904
0.0526509
0.0461399
0.0417172
0.0386458
0.0364389
0.0347867
0.0334949
0.0324424
0.0315536
0.0307805
0.0300925
0.0294695
0.028898
0.0283686
0.0278746
0.0274111
0.0269743
0.0265613
0.0261695
0.025797
0.0254423
0.0251038
0.0247805
0.0244717
0.0241857
0.0239145
0.0236523
0.0233985
0.0231528
0.0229146
0.0226836
0.0224594
0.0222415
0.0220297
0.0218237
0.0216232
0.0214279
0.0212375
0.0210517
0.0208704
0.0206933
0.0205201
0.0203507
0.0201848
0.0200222
0.0198627
0.0197062
0.0195522
0.0194008
0.0192517
0.0191047
0.0189596
0.0188162
0.0186743
0.0185337
0.0183944
0.0182559
0.0181183
0.0179813
0.0178447
0.0177084
0.0175721
0.0174358
0.0172992
0.0171622
0.0170247
0.0168864
0.0167472
0.016607
0.0164656
0.0163229
0.0161788
0.0160331
0.0158857
0.0157365
0.0155855
0.0154325
0.0152774
0.0151202
0.0149608
0.0147992
0.0146352
0.014469
0.0143003
0.014129
0.0139551
0.0137779
0.0135966
0.0134197
0.0132403
0.0130595
0.0128775
0.0126947
0.0125111
0.012327
0.0121427
0.0119585
0.0117746
0.0115913
0.0114089
0.0112277
0.011048
0.0108701
0.0106943
0.0105209
0.0103501
0.0101823
0.0100177
0.0098565
0.00969894
0.00954524
0.00939557
0.00925009
0.00910895
0.00897226
0.00884013
0.00871262
0.0085898
0.0084717
0.00835834
0.00824972
0.00814581
0.00804659
0.007952
0.00786199
0.00777648
0.00769539
0.00761864
0.00754612
0.00747773
0.00741337
0.00735293
0.00729629
0.00724334
0.00719398
0.00714808
0.00710554
0.00706625
0.0070301
0.00699698
0.00696679
0.00693943
0.0069148
0.00689281
0.00687337
0.00685637
0.00684174
0.00682938
0.0068192
0.00681112
0.00680505
0.0068009
0.00679858
0.00679801
0.00679908
0.00680171
0.0068058
0.00681125
0.00681798
0.00682587
0.00683482
0.00684474
0.00685552
0.00686706
0.00687925
0.00689199
0.00690519
0.00691874
0.00693256
0.00694654
0.00696061
0.00697467
0.00698865
0.00700249
0.0070161
0.00702945
0.00704246
0.00705509
0.0070673
0.00707907
0.00709035
0.00710114
0.0071114
0.00712114
0.00713035
0.00713902
0.00714717
0.00715479
0.0071619
0.00716851
0.00717464
0.00718031
0.00718553
0.00719033
0.00719473
0.00719876
0.00720242
0.00720576
0.00720878
0.00721152
0.00721399
0.00721621
0.00721821
0.00721999
0.00722159
0.00722301
0.00722427
0.00722537
0.00722633
0.00722714
0.00722778
0.0072282
)
;

boundaryField
{
    boundary
    {
        type            empty;
    }
    inlet
    {
        type            fixedValue;
        value           uniform 0.226269;
    }
    outlet
    {
        type            zeroGradient;
    }
}


// ************************************************************************* //
