/*--------------------------------*- C++ -*----------------------------------*\
  =========                 |
  \\      /  F ield         | OpenFOAM: The Open Source CFD Toolbox
   \\    /   O peration     | Website:  https://openfoam.org
    \\  /    A nd           | Version:  7
     \\/     M anipulation  |
\*---------------------------------------------------------------------------*/
FoamFile
{
    version     2.0;
    format      ascii;
    class       volScalarField;
    location    "0.00031";
    object      rho;
}
// * * * * * * * * * * * * * * * * * * * * * * * * * * * * * * * * * * * * * //

dimensions      [1 -3 0 0 0 0 0];

internalField   nonuniform List<scalar> 
500
(
0.864809
0.864792
0.864773
0.864751
0.864724
0.864691
0.864649
0.864598
0.864534
0.864455
0.86436
0.864247
0.864113
0.863959
0.863784
0.86359
0.863379
0.863153
0.862917
0.862675
0.862432
0.862193
0.861963
0.861745
0.861543
0.861359
0.861195
0.861052
0.860929
0.860826
0.86074
0.86067
0.860615
0.860571
0.860538
0.860512
0.860493
0.86048
0.86047
0.860462
0.860457
0.860454
0.860452
0.86045
0.860449
0.860448
0.860448
0.860448
0.860447
0.860447
0.860447
0.860447
0.860447
0.860447
0.860447
0.860447
0.860447
0.860447
0.860447
0.860447
0.860447
0.860447
0.860446
0.860446
0.860446
0.860446
0.860446
0.860446
0.860446
0.860446
0.860446
0.860446
0.860446
0.860445
0.860445
0.860445
0.860445
0.860445
0.860445
0.860445
0.860444
0.860444
0.860444
0.860444
0.860444
0.860443
0.860443
0.860443
0.860443
0.860443
0.860442
0.860442
0.860442
0.860442
0.860441
0.860441
0.860441
0.86044
0.86044
0.86044
0.860439
0.860439
0.860439
0.860438
0.860438
0.860437
0.860437
0.860437
0.860436
0.860436
0.860435
0.860435
0.860434
0.860434
0.860433
0.860433
0.860432
0.860432
0.860431
0.860431
0.86043
0.86043
0.860429
0.860429
0.860428
0.860427
0.860427
0.860426
0.860426
0.860425
0.860424
0.860424
0.860423
0.860423
0.860422
0.860421
0.860421
0.86042
0.86042
0.860419
0.860418
0.860418
0.860417
0.860416
0.860415
0.860415
0.860414
0.860413
0.860412
0.860412
0.860411
0.86041
0.860409
0.860408
0.860408
0.860407
0.860406
0.860406
0.860405
0.860405
0.860404
0.860403
0.860403
0.860402
0.860402
0.860402
0.860401
0.860401
0.860401
0.8604
0.8604
0.8604
0.8604
0.8604
0.8604
0.8604
0.8604
0.8604
0.8604
0.860401
0.860401
0.860401
0.860402
0.860402
0.860403
0.860404
0.860405
0.860406
0.860407
0.860408
0.860409
0.860411
0.860412
0.860414
0.860415
0.860417
0.860419
0.860421
0.860423
0.860426
0.860428
0.860431
0.860433
0.860436
0.860439
0.860443
0.860446
0.860449
0.860453
0.860457
0.860461
0.860465
0.860469
0.860474
0.860478
0.860483
0.860488
0.860493
0.860499
0.860504
0.86051
0.860516
0.860522
0.860528
0.860534
0.86054
0.860547
0.860554
0.860561
0.860568
0.860575
0.860582
0.86059
0.860598
0.860605
0.860613
0.860621
0.860629
0.860637
0.860646
0.860654
0.860663
0.860671
0.86068
0.860689
0.860698
0.860707
0.860716
0.860725
0.860734
0.860743
0.860752
0.860762
0.860771
0.860781
0.86079
0.8608
0.860809
0.860819
0.860829
0.860839
0.860849
0.860859
0.860869
0.860879
0.86089
0.860901
0.860912
0.860922
0.860928
0.860912
0.860826
0.860512
0.859499
0.856392
0.847196
0.821402
0.757945
0.642106
0.506531
0.399385
0.328832
0.282257
0.249771
0.226616
0.210445
0.198472
0.189205
0.182533
0.177595
0.173618
0.170348
0.167599
0.165246
0.163202
0.161404
0.159807
0.158374
0.157081
0.155905
0.15483
0.153842
0.152931
0.152087
0.151302
0.15057
0.149885
0.149243
0.148639
0.14807
0.147534
0.147028
0.146562
0.146128
0.145711
0.145311
0.144927
0.144559
0.144204
0.143862
0.143533
0.143216
0.142909
0.142613
0.142327
0.142049
0.141781
0.141521
0.141268
0.141023
0.140785
0.140554
0.14033
0.140111
0.139898
0.139691
0.13949
0.139294
0.139102
0.138916
0.138734
0.138557
0.138384
0.138215
0.13805
0.13789
0.137733
0.13758
0.137431
0.137285
0.137143
0.137005
0.13687
0.136738
0.13661
0.136485
0.136363
0.136244
0.136129
0.136016
0.135907
0.1358
0.135697
0.135596
0.135498
0.135402
0.135309
0.135218
0.13513
0.135043
0.134958
0.134875
0.134793
0.134712
0.134631
0.134551
0.134474
0.134396
0.134318
0.134239
0.134159
0.134078
0.133995
0.133909
0.133821
0.13373
0.133634
0.133535
0.133431
0.133322
0.133208
0.133087
0.132961
0.132828
0.132688
0.132541
0.132387
0.132226
0.132057
0.131881
0.131699
0.131509
0.131313
0.13111
0.130902
0.130688
0.130469
0.130246
0.13002
0.129791
0.12956
0.129327
0.129094
0.128862
0.128631
0.128402
0.128175
0.127953
0.127735
0.127522
0.127316
0.127116
0.126923
0.126738
0.126562
0.126394
0.126235
0.126086
0.125947
0.125817
0.125697
0.125587
0.125486
0.125396
0.125315
0.125243
0.12518
0.125126
0.12508
0.125042
0.125012
0.124989
0.124972
0.124961
0.124956
0.124956
0.124961
0.12497
0.124983
0.124999
0.125017
0.125038
0.125061
0.125086
0.125112
0.125138
0.125165
0.125193
0.125221
0.125248
0.125275
0.125302
0.125328
0.125353
0.125378
0.125401
0.125423
0.125445
0.125465
0.125484
0.125502
0.125519
0.125534
0.125549
0.125563
0.125575
0.125587
0.125597
0.125607
0.125616
0.125624
0.125632
0.125638
0.125644
0.12565
0.125654
0.125659
0.125663
0.125666
0.125669
0.125672
0.125674
0.125676
0.125677
0.125679
0.12568
0.125681
0.125682
0.125682
0.125682
)
;

boundaryField
{
    boundary
    {
        type            empty;
    }
    inlet
    {
        type            calculated;
        value           uniform 0.864821;
    }
    outlet
    {
        type            calculated;
        value           uniform 0.125682;
    }
}


// ************************************************************************* //
