/*--------------------------------*- C++ -*----------------------------------*\
  =========                 |
  \\      /  F ield         | OpenFOAM: The Open Source CFD Toolbox
   \\    /   O peration     | Website:  https://openfoam.org
    \\  /    A nd           | Version:  7
     \\/     M anipulation  |
\*---------------------------------------------------------------------------*/
FoamFile
{
    version     2.0;
    format      ascii;
    class       volScalarField;
    location    "0.00031";
    object      T;
}
// * * * * * * * * * * * * * * * * * * * * * * * * * * * * * * * * * * * * * //

dimensions      [0 0 0 1 0 0 0];

internalField   nonuniform List<scalar> 
500
(
300.004
300.01
300.017
300.024
300.034
300.045
300.06
300.077
300.1
300.127
300.16
300.199
300.246
300.299
300.36
300.427
300.501
300.58
300.662
300.746
300.831
300.914
300.995
301.071
301.142
301.206
301.263
301.313
301.356
301.392
301.422
301.447
301.466
301.481
301.493
301.502
301.509
301.514
301.517
301.52
301.521
301.522
301.523
301.524
301.524
301.524
301.525
301.525
301.525
301.525
301.525
301.525
301.525
301.525
301.525
301.525
301.525
301.525
301.525
301.525
301.525
301.525
301.525
301.525
301.525
301.525
301.525
301.525
301.525
301.525
301.525
301.525
301.525
301.525
301.525
301.525
301.525
301.526
301.526
301.526
301.526
301.526
301.526
301.526
301.526
301.526
301.526
301.526
301.526
301.526
301.526
301.526
301.526
301.527
301.527
301.527
301.527
301.527
301.527
301.527
301.527
301.527
301.527
301.528
301.528
301.528
301.528
301.528
301.528
301.528
301.529
301.529
301.529
301.529
301.529
301.529
301.53
301.53
301.53
301.53
301.53
301.53
301.531
301.531
301.531
301.531
301.531
301.532
301.532
301.532
301.532
301.532
301.533
301.533
301.533
301.533
301.533
301.534
301.534
301.534
301.534
301.534
301.535
301.535
301.535
301.535
301.536
301.536
301.536
301.536
301.537
301.537
301.537
301.537
301.538
301.538
301.538
301.538
301.539
301.539
301.539
301.539
301.539
301.539
301.54
301.54
301.54
301.54
301.54
301.54
301.54
301.54
301.54
301.54
301.54
301.54
301.54
301.54
301.54
301.54
301.54
301.54
301.539
301.539
301.539
301.539
301.538
301.538
301.538
301.537
301.537
301.536
301.536
301.535
301.535
301.534
301.533
301.532
301.532
301.531
301.53
301.529
301.528
301.527
301.526
301.525
301.524
301.522
301.521
301.52
301.518
301.517
301.515
301.514
301.512
301.51
301.509
301.507
301.505
301.503
301.501
301.499
301.497
301.495
301.493
301.49
301.488
301.486
301.483
301.481
301.478
301.476
301.473
301.47
301.467
301.465
301.462
301.459
301.456
301.453
301.45
301.447
301.444
301.441
301.438
301.435
301.432
301.429
301.425
301.422
301.419
301.416
301.412
301.409
301.406
301.402
301.399
301.396
301.392
301.389
301.385
301.382
301.378
301.375
301.371
301.368
301.365
301.362
301.36
301.363
301.379
301.431
301.586
302.035
303.326
307.021
317.486
345.728
411.302
526.9
676.267
831.372
979.612
1117.74
1241.03
1343.54
1430.38
1504.07
1562.75
1609.56
1649.53
1684.08
1714.4
1741.34
1765.52
1787.42
1807.39
1825.72
1842.63
1858.3
1872.89
1886.51
1899.28
1911.28
1922.58
1933.26
1943.37
1952.96
1962.06
1970.73
1978.98
1986.85
1994.14
2000.99
2007.62
2014.02
2020.2
2026.17
2031.96
2037.57
2043
2048.27
2053.39
2058.36
2063.2
2067.9
2072.47
2076.92
2081.26
2085.49
2089.61
2093.63
2097.55
2101.37
2105.11
2108.75
2112.31
2115.79
2119.19
2122.51
2125.75
2128.92
2132.02
2135.05
2138.01
2140.9
2143.72
2146.47
2149.16
2151.79
2154.35
2156.85
2159.28
2161.66
2163.97
2166.22
2168.41
2170.54
2172.6
2174.61
2176.56
2178.46
2180.29
2182.07
2183.8
2185.47
2187.09
2188.66
2190.19
2191.67
2193.11
2194.51
2195.88
2197.23
2198.55
2199.85
2201.13
2202.4
2203.67
2204.94
2206.22
2207.53
2208.86
2210.23
2211.65
2213.12
2214.65
2216.25
2217.94
2219.71
2221.58
2223.56
2225.65
2227.86
2230.2
2232.67
2235.28
2238.03
2240.92
2243.96
2247.14
2250.46
2253.93
2257.53
2261.26
2265.12
2269.09
2273.17
2277.35
2281.62
2285.96
2290.36
2294.81
2299.29
2303.78
2308.29
2312.77
2317.23
2321.65
2326.01
2330.29
2334.49
2338.59
2342.58
2346.45
2350.19
2353.78
2357.23
2360.52
2363.65
2366.62
2369.42
2372.05
2374.51
2376.8
2378.93
2380.9
2382.71
2384.36
2385.86
2387.23
2388.45
2389.55
2390.52
2391.38
2392.14
2392.8
2393.36
2393.85
2394.25
2394.59
2394.87
2395.1
2395.27
2395.41
2395.51
2395.57
2395.61
2395.63
2395.63
2395.61
2395.58
2395.54
2395.5
2395.45
2395.4
2395.34
2395.29
2395.23
2395.18
2395.13
2395.08
2395.04
2395
2394.96
2394.93
2394.9
2394.87
2394.85
2394.83
2394.81
2394.79
2394.78
2394.77
2394.76
2394.76
2394.75
2394.75
2394.75
2394.75
2394.75
2394.76
2394.76
2394.76
2394.77
2394.77
2394.78
2394.78
2394.79
2394.79
)
;

boundaryField
{
    boundary
    {
        type            empty;
    }
    inlet
    {
        type            fixedValue;
        value           uniform 300;
    }
    outlet
    {
        type            zeroGradient;
    }
}


// ************************************************************************* //
