/*--------------------------------*- C++ -*----------------------------------*\
  =========                 |
  \\      /  F ield         | OpenFOAM: The Open Source CFD Toolbox
   \\    /   O peration     | Website:  https://openfoam.org
    \\  /    A nd           | Version:  7
     \\/     M anipulation  |
\*---------------------------------------------------------------------------*/
FoamFile
{
    version     2.0;
    format      ascii;
    class       volVectorField;
    location    "0.00031";
    object      U;
}
// * * * * * * * * * * * * * * * * * * * * * * * * * * * * * * * * * * * * * //

dimensions      [0 1 -1 0 0 0 0];

internalField   nonuniform List<vector> 
500
(
(2.34891 0 0)
(2.34882 0 0)
(2.34872 0 0)
(2.34863 0 0)
(2.34855 0 0)
(2.34848 0 0)
(2.34841 0 0)
(2.34834 0 0)
(2.34829 0 0)
(2.34824 0 0)
(2.3482 0 0)
(2.34816 0 0)
(2.34812 0 0)
(2.34809 0 0)
(2.34805 0 0)
(2.34801 0 0)
(2.34796 0 0)
(2.34791 0 0)
(2.34783 0 0)
(2.34775 0 0)
(2.34765 0 0)
(2.34753 0 0)
(2.34741 0 0)
(2.34727 0 0)
(2.34712 0 0)
(2.34697 0 0)
(2.34681 0 0)
(2.34665 0 0)
(2.3465 0 0)
(2.34634 0 0)
(2.3462 0 0)
(2.34605 0 0)
(2.34592 0 0)
(2.34579 0 0)
(2.34567 0 0)
(2.34555 0 0)
(2.34544 0 0)
(2.34533 0 0)
(2.34522 0 0)
(2.34512 0 0)
(2.34502 0 0)
(2.34492 0 0)
(2.34482 0 0)
(2.34472 0 0)
(2.34462 0 0)
(2.34453 0 0)
(2.34443 0 0)
(2.34434 0 0)
(2.34424 0 0)
(2.34414 0 0)
(2.34405 0 0)
(2.34395 0 0)
(2.34386 0 0)
(2.34376 0 0)
(2.34367 0 0)
(2.34357 0 0)
(2.34347 0 0)
(2.34338 0 0)
(2.34328 0 0)
(2.34319 0 0)
(2.34309 0 0)
(2.343 0 0)
(2.3429 0 0)
(2.34281 0 0)
(2.34271 0 0)
(2.34262 0 0)
(2.34252 0 0)
(2.34242 0 0)
(2.34233 0 0)
(2.34223 0 0)
(2.34214 0 0)
(2.34204 0 0)
(2.34195 0 0)
(2.34185 0 0)
(2.34176 0 0)
(2.34166 0 0)
(2.34157 0 0)
(2.34147 0 0)
(2.34138 0 0)
(2.34128 0 0)
(2.34119 0 0)
(2.34109 0 0)
(2.341 0 0)
(2.3409 0 0)
(2.34081 0 0)
(2.34071 0 0)
(2.34062 0 0)
(2.34053 0 0)
(2.34043 0 0)
(2.34034 0 0)
(2.34024 0 0)
(2.34015 0 0)
(2.34005 0 0)
(2.33996 0 0)
(2.33986 0 0)
(2.33977 0 0)
(2.33968 0 0)
(2.33958 0 0)
(2.33949 0 0)
(2.33939 0 0)
(2.3393 0 0)
(2.3392 0 0)
(2.33911 0 0)
(2.33902 0 0)
(2.33892 0 0)
(2.33883 0 0)
(2.33873 0 0)
(2.33864 0 0)
(2.33855 0 0)
(2.33845 0 0)
(2.33836 0 0)
(2.33826 0 0)
(2.33817 0 0)
(2.33808 0 0)
(2.33798 0 0)
(2.33789 0 0)
(2.3378 0 0)
(2.3377 0 0)
(2.33761 0 0)
(2.33752 0 0)
(2.33742 0 0)
(2.33733 0 0)
(2.33724 0 0)
(2.33714 0 0)
(2.33705 0 0)
(2.33696 0 0)
(2.33686 0 0)
(2.33677 0 0)
(2.33668 0 0)
(2.33658 0 0)
(2.33649 0 0)
(2.3364 0 0)
(2.3363 0 0)
(2.33621 0 0)
(2.33612 0 0)
(2.33602 0 0)
(2.33593 0 0)
(2.33584 0 0)
(2.33575 0 0)
(2.33565 0 0)
(2.33556 0 0)
(2.33547 0 0)
(2.33537 0 0)
(2.33528 0 0)
(2.33519 0 0)
(2.3351 0 0)
(2.335 0 0)
(2.33491 0 0)
(2.33482 0 0)
(2.33473 0 0)
(2.33463 0 0)
(2.33454 0 0)
(2.33445 0 0)
(2.33436 0 0)
(2.33426 0 0)
(2.33417 0 0)
(2.33408 0 0)
(2.33399 0 0)
(2.3339 0 0)
(2.3338 0 0)
(2.33371 0 0)
(2.33362 0 0)
(2.33353 0 0)
(2.33343 0 0)
(2.33334 0 0)
(2.33325 0 0)
(2.33316 0 0)
(2.33307 0 0)
(2.33297 0 0)
(2.33288 0 0)
(2.33279 0 0)
(2.3327 0 0)
(2.33261 0 0)
(2.33251 0 0)
(2.33242 0 0)
(2.33233 0 0)
(2.33224 0 0)
(2.33215 0 0)
(2.33205 0 0)
(2.33196 0 0)
(2.33187 0 0)
(2.33178 0 0)
(2.33169 0 0)
(2.3316 0 0)
(2.3315 0 0)
(2.33141 0 0)
(2.33132 0 0)
(2.33123 0 0)
(2.33114 0 0)
(2.33105 0 0)
(2.33095 0 0)
(2.33086 0 0)
(2.33077 0 0)
(2.33068 0 0)
(2.33059 0 0)
(2.3305 0 0)
(2.33041 0 0)
(2.33031 0 0)
(2.33022 0 0)
(2.33013 0 0)
(2.33004 0 0)
(2.32995 0 0)
(2.32986 0 0)
(2.32977 0 0)
(2.32967 0 0)
(2.32958 0 0)
(2.32949 0 0)
(2.3294 0 0)
(2.32931 0 0)
(2.32922 0 0)
(2.32913 0 0)
(2.32904 0 0)
(2.32895 0 0)
(2.32885 0 0)
(2.32876 0 0)
(2.32867 0 0)
(2.32858 0 0)
(2.32849 0 0)
(2.3284 0 0)
(2.32831 0 0)
(2.32822 0 0)
(2.32813 0 0)
(2.32804 0 0)
(2.32795 0 0)
(2.32786 0 0)
(2.32777 0 0)
(2.32768 0 0)
(2.32759 0 0)
(2.3275 0 0)
(2.32741 0 0)
(2.32731 0 0)
(2.32722 0 0)
(2.32713 0 0)
(2.32704 0 0)
(2.32695 0 0)
(2.32686 0 0)
(2.32678 0 0)
(2.32669 0 0)
(2.3266 0 0)
(2.32651 0 0)
(2.32642 0 0)
(2.32633 0 0)
(2.32624 0 0)
(2.32615 0 0)
(2.32606 0 0)
(2.32597 0 0)
(2.32588 0 0)
(2.32579 0 0)
(2.3257 0 0)
(2.32561 0 0)
(2.32552 0 0)
(2.32544 0 0)
(2.32535 0 0)
(2.32526 0 0)
(2.32517 0 0)
(2.32508 0 0)
(2.32499 0 0)
(2.3249 0 0)
(2.32482 0 0)
(2.32473 0 0)
(2.32464 0 0)
(2.32455 0 0)
(2.32446 0 0)
(2.32437 0 0)
(2.32428 0 0)
(2.3242 0 0)
(2.32411 0 0)
(2.32402 0 0)
(2.32393 0 0)
(2.32385 0 0)
(2.32387 0 0)
(2.32411 0 0)
(2.32515 0 0)
(2.32871 0 0)
(2.3394 0 0)
(2.36844 0 0)
(2.44038 0 0)
(2.60893 0 0)
(2.97609 0 0)
(3.71812 0 0)
(4.81987 0 0)
(6.05883 0 0)
(7.24058 0 0)
(8.29261 0 0)
(9.19939 0 0)
(9.95812 0 0)
(10.5875 0 0)
(11.1101 0 0)
(11.5322 0 0)
(11.8667 0 0)
(12.1408 0 0)
(12.3754 0 0)
(12.5808 0 0)
(12.7623 0 0)
(12.9242 0 0)
(13.0699 0 0)
(13.2021 0 0)
(13.3229 0 0)
(13.4338 0 0)
(13.5363 0 0)
(13.6313 0 0)
(13.7197 0 0)
(13.8023 0 0)
(13.8797 0 0)
(13.9524 0 0)
(14.0209 0 0)
(14.0856 0 0)
(14.1468 0 0)
(14.2048 0 0)
(14.2599 0 0)
(14.3122 0 0)
(14.362 0 0)
(14.4081 0 0)
(14.4512 0 0)
(14.4929 0 0)
(14.5331 0 0)
(14.5719 0 0)
(14.6094 0 0)
(14.6455 0 0)
(14.6805 0 0)
(14.7144 0 0)
(14.7473 0 0)
(14.7791 0 0)
(14.81 0 0)
(14.8399 0 0)
(14.869 0 0)
(14.8973 0 0)
(14.9248 0 0)
(14.9516 0 0)
(14.9776 0 0)
(15.003 0 0)
(15.0277 0 0)
(15.0518 0 0)
(15.0753 0 0)
(15.0983 0 0)
(15.1207 0 0)
(15.1425 0 0)
(15.1639 0 0)
(15.1847 0 0)
(15.2051 0 0)
(15.2251 0 0)
(15.2446 0 0)
(15.2637 0 0)
(15.2824 0 0)
(15.3007 0 0)
(15.3186 0 0)
(15.3361 0 0)
(15.3533 0 0)
(15.3702 0 0)
(15.3867 0 0)
(15.4029 0 0)
(15.4188 0 0)
(15.4343 0 0)
(15.4496 0 0)
(15.4646 0 0)
(15.4794 0 0)
(15.4938 0 0)
(15.508 0 0)
(15.5219 0 0)
(15.5356 0 0)
(15.5491 0 0)
(15.5623 0 0)
(15.5753 0 0)
(15.5881 0 0)
(15.6007 0 0)
(15.6131 0 0)
(15.6253 0 0)
(15.6373 0 0)
(15.6492 0 0)
(15.6609 0 0)
(15.6724 0 0)
(15.6838 0 0)
(15.6951 0 0)
(15.7063 0 0)
(15.7174 0 0)
(15.7284 0 0)
(15.739 0 0)
(15.7496 0 0)
(15.76 0 0)
(15.7703 0 0)
(15.7805 0 0)
(15.7906 0 0)
(15.8006 0 0)
(15.8106 0 0)
(15.8204 0 0)
(15.8301 0 0)
(15.8398 0 0)
(15.8494 0 0)
(15.8588 0 0)
(15.8682 0 0)
(15.8775 0 0)
(15.8867 0 0)
(15.8957 0 0)
(15.9046 0 0)
(15.9134 0 0)
(15.922 0 0)
(15.9305 0 0)
(15.9388 0 0)
(15.9469 0 0)
(15.9548 0 0)
(15.9626 0 0)
(15.97 0 0)
(15.9773 0 0)
(15.9843 0 0)
(15.991 0 0)
(15.9974 0 0)
(16.0035 0 0)
(16.0094 0 0)
(16.0149 0 0)
(16.0201 0 0)
(16.025 0 0)
(16.0295 0 0)
(16.0337 0 0)
(16.0376 0 0)
(16.0412 0 0)
(16.0444 0 0)
(16.0472 0 0)
(16.0498 0 0)
(16.0521 0 0)
(16.054 0 0)
(16.0557 0 0)
(16.0571 0 0)
(16.0583 0 0)
(16.0592 0 0)
(16.0599 0 0)
(16.0604 0 0)
(16.0607 0 0)
(16.0609 0 0)
(16.0609 0 0)
(16.0608 0 0)
(16.0606 0 0)
(16.0604 0 0)
(16.06 0 0)
(16.0597 0 0)
(16.0593 0 0)
(16.0588 0 0)
(16.0584 0 0)
(16.058 0 0)
(16.0577 0 0)
(16.0573 0 0)
(16.057 0 0)
(16.0568 0 0)
(16.0566 0 0)
(16.0565 0 0)
(16.0565 0 0)
(16.0565 0 0)
(16.0566 0 0)
(16.0567 0 0)
(16.0569 0 0)
(16.0572 0 0)
(16.0575 0 0)
(16.0579 0 0)
(16.0583 0 0)
(16.0587 0 0)
(16.0592 0 0)
(16.0598 0 0)
(16.0603 0 0)
(16.0609 0 0)
(16.0615 0 0)
(16.0621 0 0)
(16.0627 0 0)
(16.0633 0 0)
(16.0639 0 0)
(16.0645 0 0)
(16.0651 0 0)
(16.0656 0 0)
(16.0662 0 0)
(16.0667 0 0)
(16.0672 0 0)
(16.0676 0 0)
(16.0681 0 0)
(16.0685 0 0)
(16.0689 0 0)
(16.0692 0 0)
(16.0695 0 0)
(16.0698 0 0)
(16.0701 0 0)
(16.0703 0 0)
(16.0705 0 0)
(16.0707 0 0)
(16.0708 0 0)
(16.071 0 0)
(16.071 0 0)
(16.0711 0 0)
(16.0712 0 0)
(16.0712 0 0)
(16.0712 0 0)
(16.0712 0 0)
(16.0711 0 0)
(16.0711 0 0)
(16.071 0 0)
(16.0709 0 0)
(16.0708 0 0)
(16.0707 0 0)
(16.0706 0 0)
(16.0704 0 0)
(16.0703 0 0)
(16.0702 0 0)
(16.07 0 0)
(16.0699 0 0)
)
;

boundaryField
{
    boundary
    {
        type            empty;
    }
    inlet
    {
        type            fixedValue;
        value           uniform (2.34893 0 0);
    }
    outlet
    {
        type            zeroGradient;
    }
}


// ************************************************************************* //
