/*--------------------------------*- C++ -*----------------------------------*\
  =========                 |
  \\      /  F ield         | OpenFOAM: The Open Source CFD Toolbox
   \\    /   O peration     | Website:  https://openfoam.org
    \\  /    A nd           | Version:  7
     \\/     M anipulation  |
\*---------------------------------------------------------------------------*/
FoamFile
{
    version     2.0;
    format      ascii;
    class       volScalarField;
    location    "0.00018";
    object      p;
}
// * * * * * * * * * * * * * * * * * * * * * * * * * * * * * * * * * * * * * //

dimensions      [1 -1 -2 0 0 0 0];

internalField   nonuniform List<scalar> 
126
(
103071
103071
103071
103071
103071
103071
103071
103071
103071
103071
103071
103071
103071
103071
103071
103071
103071
103071
103071
103071
103071
103071
103071
103071
103071
103071
103071
103071
103071
103071
103071
103071
103071
103071
103071
103071
103071
103071
103071
103071
103071
103071
103071
103071
103071
103071
103071
103071
103071
103071
103071
103071
103072
103072
103072
103072
103072
103072
103072
103072
103072
103072
103072
103072
103072
103072
103072
103072
103072
103072
103072
103072
103072
103072
103072
103072
103072
103072
103072
103072
103072
103072
103072
103072
103073
103073
103073
103073
103073
103073
103073
103073
103073
103073
103073
103073
103073
103073
103073
103073
103073
103073
103073
103073
103073
103073
103073
103073
103073
103073
103073
103073
103073
103073
103073
103073
103073
103073
103073
103073
103073
103074
103074
103074
103074
103074
)
;

boundaryField
{
    boundary
    {
        type            empty;
    }
    inlet
    {
        type            zeroGradient;
    }
    outlet
    {
        type            waveTransmissive;
        gamma           1.4;
        value           nonuniform 0();
    }
    procBoundary3to1
    {
        type            processor;
        value           uniform 103074;
    }
    procBoundary3to2
    {
        type            processor;
        value           uniform 103071;
    }
}


// ************************************************************************* //
