/*--------------------------------*- C++ -*----------------------------------*\
  =========                 |
  \\      /  F ield         | OpenFOAM: The Open Source CFD Toolbox
   \\    /   O peration     | Website:  https://openfoam.org
    \\  /    A nd           | Version:  7
     \\/     M anipulation  |
\*---------------------------------------------------------------------------*/
FoamFile
{
    version     2.0;
    format      ascii;
    class       surfaceScalarField;
    location    "0.00065";
    object      phi;
}
// * * * * * * * * * * * * * * * * * * * * * * * * * * * * * * * * * * * * * //

dimensions      [1 0 -1 0 0 0 0];

internalField   nonuniform List<scalar> 
125
(
6.93437e-06
6.93466e-06
6.93495e-06
6.93524e-06
6.93553e-06
6.93583e-06
6.93612e-06
6.93641e-06
6.9367e-06
6.93699e-06
6.93728e-06
6.93757e-06
6.93785e-06
6.93813e-06
6.93842e-06
6.9387e-06
6.93898e-06
6.93925e-06
6.93953e-06
6.93981e-06
6.94008e-06
6.94035e-06
6.94063e-06
6.9409e-06
6.94117e-06
6.94143e-06
6.9417e-06
6.94197e-06
6.94223e-06
6.94249e-06
6.94276e-06
6.94302e-06
6.94327e-06
6.94353e-06
6.94379e-06
6.94404e-06
6.94429e-06
6.94455e-06
6.94479e-06
6.94504e-06
6.94529e-06
6.94554e-06
6.94578e-06
6.94602e-06
6.94626e-06
6.9465e-06
6.94674e-06
6.94698e-06
6.94721e-06
6.94745e-06
6.94768e-06
6.94791e-06
6.94814e-06
6.94837e-06
6.9486e-06
6.94883e-06
6.94906e-06
6.94928e-06
6.94951e-06
6.94974e-06
6.94996e-06
6.95019e-06
6.95041e-06
6.95064e-06
6.95087e-06
6.95109e-06
6.95132e-06
6.95155e-06
6.95178e-06
6.95201e-06
6.95224e-06
6.95247e-06
6.9527e-06
6.95294e-06
6.95318e-06
6.95342e-06
6.95366e-06
6.9539e-06
6.95415e-06
6.9544e-06
6.95465e-06
6.95491e-06
6.95516e-06
6.95543e-06
6.95569e-06
6.95596e-06
6.95623e-06
6.95651e-06
6.95679e-06
6.95708e-06
6.95736e-06
6.95766e-06
6.95796e-06
6.95826e-06
6.95856e-06
6.95887e-06
6.95919e-06
6.9595e-06
6.95983e-06
6.96015e-06
6.96048e-06
6.96082e-06
6.96115e-06
6.96149e-06
6.96184e-06
6.96218e-06
6.96253e-06
6.96288e-06
6.96323e-06
6.96359e-06
6.96394e-06
6.9643e-06
6.96466e-06
6.96501e-06
6.96537e-06
6.96572e-06
6.96608e-06
6.96643e-06
6.96678e-06
6.96713e-06
6.96748e-06
6.96782e-06
6.96817e-06
6.9685e-06
6.96884e-06
)
;

boundaryField
{
    boundary
    {
        type            empty;
        value           nonuniform 0();
    }
    inlet
    {
        type            calculated;
        value           nonuniform 0();
    }
    outlet
    {
        type            calculated;
        value           nonuniform 0();
    }
    procBoundary3to1
    {
        type            processor;
        value           uniform 6.96917e-06;
    }
    procBoundary3to2
    {
        type            processor;
        value           uniform -6.93408e-06;
    }
}


// ************************************************************************* //
