/*--------------------------------*- C++ -*----------------------------------*\
  =========                 |
  \\      /  F ield         | OpenFOAM: The Open Source CFD Toolbox
   \\    /   O peration     | Website:  https://openfoam.org
    \\  /    A nd           | Version:  7
     \\/     M anipulation  |
\*---------------------------------------------------------------------------*/
FoamFile
{
    version     2.0;
    format      ascii;
    class       volScalarField;
    location    "0.00043";
    object      O;
}
// * * * * * * * * * * * * * * * * * * * * * * * * * * * * * * * * * * * * * //

dimensions      [0 0 0 0 0 0 0];

internalField   nonuniform List<scalar> 
126
(
1.15298e-45
1.15426e-45
1.15536e-45
1.15612e-45
1.15654e-45
1.1567e-45
1.15673e-45
1.15672e-45
1.1567e-45
1.1567e-45
1.15672e-45
1.15675e-45
1.15679e-45
1.15683e-45
1.15687e-45
1.1569e-45
1.15693e-45
1.15695e-45
1.15697e-45
1.15699e-45
1.15701e-45
1.15704e-45
1.15707e-45
1.15711e-45
1.15717e-45
1.15724e-45
1.15733e-45
1.15743e-45
1.15756e-45
1.15769e-45
1.15784e-45
1.15801e-45
1.15818e-45
1.15835e-45
1.15853e-45
1.15871e-45
1.15888e-45
1.15905e-45
1.15921e-45
1.15936e-45
1.1595e-45
1.15963e-45
1.15975e-45
1.15986e-45
1.15996e-45
1.16005e-45
1.16013e-45
1.16021e-45
1.16027e-45
1.16033e-45
1.16037e-45
1.16041e-45
1.16045e-45
1.16047e-45
1.16049e-45
1.1605e-45
1.1605e-45
1.16049e-45
1.16048e-45
1.16045e-45
1.16041e-45
1.16037e-45
1.16031e-45
1.16025e-45
1.16017e-45
1.16008e-45
1.15998e-45
1.15986e-45
1.15973e-45
1.15959e-45
1.15943e-45
1.15926e-45
1.15907e-45
1.15887e-45
1.15866e-45
1.15843e-45
1.15823e-45
1.15824e-45
1.15934e-45
1.16591e-45
1.1994e-45
1.36378e-45
2.15862e-45
5.96295e-45
2.40027e-44
1.08764e-43
5.03368e-43
2.32346e-42
1.06402e-41
4.82854e-41
2.17068e-40
9.66562e-40
4.26266e-39
1.86172e-38
8.0519e-38
3.44826e-37
1.46215e-36
6.13819e-36
2.55107e-35
1.04957e-34
4.27452e-34
1.72316e-33
6.87561e-33
2.71537e-32
1.06138e-31
4.10605e-31
1.57215e-30
5.95777e-30
2.23461e-29
8.296e-29
3.04866e-28
1.10906e-27
3.99448e-27
1.42454e-26
5.03115e-26
1.76001e-25
6.09965e-25
2.09468e-24
7.12904e-24
2.40494e-23
8.04221e-23
2.66607e-22
8.76284e-22
2.85655e-21
9.24222e-21
2.97123e-20
)
;

boundaryField
{
    boundary
    {
        type            empty;
    }
    inlet
    {
        type            fixedValue;
        value           nonuniform 0();
    }
    outlet
    {
        type            zeroGradient;
    }
    procBoundary3to1
    {
        type            processor;
        value           uniform 9.57995e-20;
    }
    procBoundary3to2
    {
        type            processor;
        value           uniform 1.15462e-45;
    }
}


// ************************************************************************* //
