/*--------------------------------*- C++ -*----------------------------------*\
  =========                 |
  \\      /  F ield         | OpenFOAM: The Open Source CFD Toolbox
   \\    /   O peration     | Website:  https://openfoam.org
    \\  /    A nd           | Version:  7
     \\/     M anipulation  |
\*---------------------------------------------------------------------------*/
FoamFile
{
    version     2.0;
    format      ascii;
    class       volScalarField;
    location    "0.00092";
    object      H;
}
// * * * * * * * * * * * * * * * * * * * * * * * * * * * * * * * * * * * * * //

dimensions      [0 0 0 0 0 0 0];

internalField   nonuniform List<scalar> 
125
(
1.48633e-41
2.01398e-41
2.12834e-41
2.15351e-41
2.1594e-41
2.16109e-41
2.16183e-41
2.1623e-41
2.16263e-41
2.16283e-41
2.16286e-41
2.1627e-41
2.16232e-41
2.16169e-41
2.1608e-41
2.15964e-41
2.15822e-41
2.15656e-41
2.15469e-41
2.15264e-41
2.15049e-41
2.14828e-41
2.14608e-41
2.14396e-41
2.142e-41
2.14025e-41
2.13878e-41
2.13765e-41
2.1369e-41
2.13657e-41
2.13671e-41
2.13734e-41
2.13849e-41
2.14019e-41
2.14246e-41
2.14534e-41
2.14886e-41
2.15306e-41
2.15798e-41
2.16369e-41
2.17024e-41
2.17773e-41
2.18621e-41
2.1958e-41
2.20657e-41
2.21864e-41
2.23211e-41
2.24708e-41
2.26364e-41
2.2819e-41
2.30193e-41
2.32381e-41
2.3476e-41
2.37332e-41
2.401e-41
2.43063e-41
2.46218e-41
2.49557e-41
2.53071e-41
2.56749e-41
2.60575e-41
2.64531e-41
2.68596e-41
2.72747e-41
2.76957e-41
2.81201e-41
2.85451e-41
2.89677e-41
2.93851e-41
2.97947e-41
3.01937e-41
3.05798e-41
3.09506e-41
3.13044e-41
3.16396e-41
3.19548e-41
3.22492e-41
3.25223e-41
3.27738e-41
3.30037e-41
3.32126e-41
3.3401e-41
3.35698e-41
3.372e-41
3.38528e-41
3.39694e-41
3.40711e-41
3.41593e-41
3.42352e-41
3.43002e-41
3.43555e-41
3.44022e-41
3.44415e-41
3.44743e-41
3.45015e-41
3.4524e-41
3.45424e-41
3.45575e-41
3.45697e-41
3.45796e-41
3.45875e-41
3.45939e-41
3.4599e-41
3.4603e-41
3.46062e-41
3.46088e-41
3.46108e-41
3.46124e-41
3.46137e-41
3.46147e-41
3.46156e-41
3.46163e-41
3.4617e-41
3.46175e-41
3.4618e-41
3.46185e-41
3.4619e-41
3.46194e-41
3.46199e-41
3.46203e-41
3.46208e-41
3.46212e-41
3.46216e-41
3.46219e-41
3.46218e-41
)
;

boundaryField
{
    boundary
    {
        type            empty;
    }
    inlet
    {
        type            fixedValue;
        value           uniform 0;
    }
    outlet
    {
        type            zeroGradient;
    }
    procBoundary2to3
    {
        type            processor;
        value           uniform 3.46216e-41;
    }
}


// ************************************************************************* //
