/*--------------------------------*- C++ -*----------------------------------*\
  =========                 |
  \\      /  F ield         | OpenFOAM: The Open Source CFD Toolbox
   \\    /   O peration     | Website:  https://openfoam.org
    \\  /    A nd           | Version:  7
     \\/     M anipulation  |
\*---------------------------------------------------------------------------*/
FoamFile
{
    version     2.0;
    format      ascii;
    class       volScalarField;
    location    "0.00092";
    object      H2O;
}
// * * * * * * * * * * * * * * * * * * * * * * * * * * * * * * * * * * * * * //

dimensions      [0 0 0 0 0 0 0];

internalField   nonuniform List<scalar> 
125
(
7.88569e-48
2.2789e-47
4.1003e-47
6.1455e-47
8.34198e-47
1.06408e-46
1.30088e-46
1.54234e-46
1.78693e-46
2.03356e-46
2.28146e-46
2.53009e-46
2.77903e-46
3.02799e-46
3.27677e-46
3.52522e-46
3.77329e-46
4.02098e-46
4.26833e-46
4.51548e-46
4.76259e-46
5.00987e-46
5.25757e-46
5.50596e-46
5.75532e-46
6.00595e-46
6.25812e-46
6.51211e-46
6.76819e-46
7.02661e-46
7.28762e-46
7.55146e-46
7.81841e-46
8.08876e-46
8.36282e-46
8.64098e-46
8.92367e-46
9.21142e-46
9.50483e-46
9.8046e-46
1.01115e-45
1.04264e-45
1.07503e-45
1.10842e-45
1.14293e-45
1.17865e-45
1.2157e-45
1.2542e-45
1.29423e-45
1.33591e-45
1.37928e-45
1.42443e-45
1.47136e-45
1.5201e-45
1.57061e-45
1.62283e-45
1.67666e-45
1.73196e-45
1.78857e-45
1.84628e-45
1.90483e-45
1.96397e-45
2.02338e-45
2.08277e-45
2.14178e-45
2.20009e-45
2.25737e-45
2.31328e-45
2.36753e-45
2.41982e-45
2.4699e-45
2.51755e-45
2.56258e-45
2.60487e-45
2.6443e-45
2.68082e-45
2.71442e-45
2.74511e-45
2.77297e-45
2.79807e-45
2.82054e-45
2.84052e-45
2.85816e-45
2.87363e-45
2.8871e-45
2.89876e-45
2.90879e-45
2.91734e-45
2.9246e-45
2.93072e-45
2.93584e-45
2.9401e-45
2.94363e-45
2.94652e-45
2.94889e-45
2.95081e-45
2.95236e-45
2.9536e-45
2.95459e-45
2.95538e-45
2.95601e-45
2.9565e-45
2.95689e-45
2.95719e-45
2.95743e-45
2.95762e-45
2.95777e-45
2.95789e-45
2.95799e-45
2.95807e-45
2.95813e-45
2.95819e-45
2.95825e-45
2.9583e-45
2.95834e-45
2.95839e-45
2.95843e-45
2.95848e-45
2.95852e-45
2.95857e-45
2.95861e-45
2.95862e-45
2.95853e-45
2.95807e-45
2.95622e-45
)
;

boundaryField
{
    boundary
    {
        type            empty;
    }
    inlet
    {
        type            fixedValue;
        value           uniform 0;
    }
    outlet
    {
        type            zeroGradient;
    }
    procBoundary2to3
    {
        type            processor;
        value           uniform 2.95281e-45;
    }
}


// ************************************************************************* //
