/*--------------------------------*- C++ -*----------------------------------*\
  =========                 |
  \\      /  F ield         | OpenFOAM: The Open Source CFD Toolbox
   \\    /   O peration     | Website:  https://openfoam.org
    \\  /    A nd           | Version:  7
     \\/     M anipulation  |
\*---------------------------------------------------------------------------*/
FoamFile
{
    version     2.0;
    format      ascii;
    class       volScalarField;
    location    "0.00092";
    object      OH;
}
// * * * * * * * * * * * * * * * * * * * * * * * * * * * * * * * * * * * * * //

dimensions      [0 0 0 0 0 0 0];

internalField   nonuniform List<scalar> 
125
(
9.38652e-48
1.8295e-47
2.43878e-47
2.85153e-47
3.13071e-47
3.31982e-47
3.44833e-47
3.53606e-47
3.5963e-47
3.63795e-47
3.66697e-47
3.68733e-47
3.70169e-47
3.7118e-47
3.71886e-47
3.72367e-47
3.7268e-47
3.72866e-47
3.72956e-47
3.72976e-47
3.72949e-47
3.72895e-47
3.72833e-47
3.72781e-47
3.72757e-47
3.72774e-47
3.72848e-47
3.72991e-47
3.73214e-47
3.73526e-47
3.73936e-47
3.74449e-47
3.75072e-47
3.75812e-47
3.76674e-47
3.77665e-47
3.78793e-47
3.80066e-47
3.81496e-47
3.83095e-47
3.84879e-47
3.86864e-47
3.89068e-47
3.91513e-47
3.94221e-47
3.97214e-47
4.00517e-47
4.04152e-47
4.08144e-47
4.12514e-47
4.17283e-47
4.22467e-47
4.28082e-47
4.34137e-47
4.40637e-47
4.47582e-47
4.54967e-47
4.62778e-47
4.70996e-47
4.79595e-47
4.88541e-47
4.97794e-47
5.07307e-47
5.17027e-47
5.26896e-47
5.36853e-47
5.46832e-47
5.56768e-47
5.66593e-47
5.76242e-47
5.85654e-47
5.94769e-47
6.03536e-47
6.11908e-47
6.19846e-47
6.27319e-47
6.34304e-47
6.40788e-47
6.46763e-47
6.52231e-47
6.572e-47
6.61684e-47
6.65703e-47
6.69281e-47
6.72443e-47
6.75221e-47
6.77645e-47
6.79745e-47
6.81554e-47
6.83103e-47
6.84419e-47
6.85532e-47
6.86466e-47
6.87247e-47
6.87895e-47
6.8843e-47
6.88868e-47
6.89227e-47
6.89518e-47
6.89753e-47
6.89942e-47
6.90094e-47
6.90215e-47
6.90312e-47
6.90389e-47
6.9045e-47
6.905e-47
6.90539e-47
6.90571e-47
6.90597e-47
6.90619e-47
6.90638e-47
6.90654e-47
6.90669e-47
6.90682e-47
6.90695e-47
6.90708e-47
6.9072e-47
6.90732e-47
6.90744e-47
6.90756e-47
6.90767e-47
6.90774e-47
6.90772e-47
6.9074e-47
)
;

boundaryField
{
    boundary
    {
        type            empty;
    }
    inlet
    {
        type            fixedValue;
        value           uniform 0;
    }
    outlet
    {
        type            zeroGradient;
    }
    procBoundary2to3
    {
        type            processor;
        value           uniform 6.90688e-47;
    }
}


// ************************************************************************* //
