/*--------------------------------*- C++ -*----------------------------------*\
  =========                 |
  \\      /  F ield         | OpenFOAM: The Open Source CFD Toolbox
   \\    /   O peration     | Website:  https://openfoam.org
    \\  /    A nd           | Version:  7
     \\/     M anipulation  |
\*---------------------------------------------------------------------------*/
FoamFile
{
    version     2.0;
    format      ascii;
    class       surfaceScalarField;
    location    "0.00092";
    object      phi;
}
// * * * * * * * * * * * * * * * * * * * * * * * * * * * * * * * * * * * * * //

dimensions      [1 0 -1 0 0 0 0];

internalField   nonuniform List<scalar> 
124
(
6.93087e-06
6.93077e-06
6.93069e-06
6.93061e-06
6.93053e-06
6.93045e-06
6.93037e-06
6.9303e-06
6.93023e-06
6.93016e-06
6.9301e-06
6.93004e-06
6.92999e-06
6.92995e-06
6.92992e-06
6.9299e-06
6.92989e-06
6.92988e-06
6.92989e-06
6.9299e-06
6.92992e-06
6.92994e-06
6.92996e-06
6.92998e-06
6.93e-06
6.93001e-06
6.93001e-06
6.93e-06
6.92999e-06
6.92995e-06
6.9299e-06
6.92984e-06
6.92976e-06
6.92966e-06
6.92954e-06
6.9294e-06
6.92924e-06
6.92905e-06
6.92885e-06
6.92862e-06
6.92836e-06
6.92808e-06
6.92776e-06
6.92741e-06
6.92702e-06
6.92659e-06
6.92612e-06
6.9256e-06
6.92504e-06
6.92443e-06
6.92377e-06
6.92305e-06
6.92228e-06
6.92145e-06
6.92058e-06
6.91965e-06
6.91867e-06
6.91765e-06
6.91659e-06
6.91549e-06
6.91436e-06
6.9132e-06
6.91203e-06
6.91085e-06
6.90966e-06
6.90848e-06
6.90731e-06
6.90615e-06
6.90503e-06
6.90393e-06
6.90287e-06
6.90185e-06
6.90088e-06
6.89996e-06
6.8991e-06
6.89828e-06
6.89752e-06
6.89682e-06
6.89617e-06
6.89557e-06
6.89503e-06
6.89454e-06
6.89409e-06
6.89369e-06
6.89333e-06
6.89301e-06
6.89272e-06
6.89246e-06
6.89224e-06
6.89203e-06
6.89186e-06
6.8917e-06
6.89156e-06
6.89143e-06
6.89132e-06
6.89121e-06
6.89112e-06
6.89103e-06
6.89095e-06
6.89088e-06
6.89081e-06
6.89075e-06
6.89068e-06
6.89062e-06
6.89057e-06
6.89051e-06
6.89046e-06
6.8904e-06
6.89035e-06
6.89029e-06
6.89024e-06
6.89019e-06
6.89014e-06
6.89008e-06
6.89003e-06
6.88998e-06
6.88993e-06
6.88987e-06
6.88982e-06
6.88977e-06
6.88972e-06
6.88966e-06
6.88961e-06
6.88956e-06
)
;

boundaryField
{
    boundary
    {
        type            empty;
        value           nonuniform 0();
    }
    inlet
    {
        type            calculated;
        value           uniform -6.93096e-06;
    }
    outlet
    {
        type            calculated;
        value           nonuniform 0();
    }
    procBoundary2to3
    {
        type            processor;
        value           uniform 6.8895e-06;
    }
}


// ************************************************************************* //
