/*--------------------------------*- C++ -*----------------------------------*\
  =========                 |
  \\      /  F ield         | OpenFOAM: The Open Source CFD Toolbox
   \\    /   O peration     | Website:  https://openfoam.org
    \\  /    A nd           | Version:  7
     \\/     M anipulation  |
\*---------------------------------------------------------------------------*/
FoamFile
{
    version     2.0;
    format      ascii;
    class       volScalarField;
    location    "0.00017";
    object      H;
}
// * * * * * * * * * * * * * * * * * * * * * * * * * * * * * * * * * * * * * //

dimensions      [0 0 0 0 0 0 0];

internalField   nonuniform List<scalar> 
500
(
1.49395e-41
2.04065e-41
2.182e-41
2.24241e-41
2.29227e-41
2.34748e-41
2.4121e-41
2.48705e-41
2.57171e-41
2.66416e-41
2.76138e-41
2.85954e-41
2.95463e-41
3.04294e-41
3.12162e-41
3.18892e-41
3.24426e-41
3.28807e-41
3.32153e-41
3.34621e-41
3.36383e-41
3.37603e-41
3.38423e-41
3.38958e-41
3.39299e-41
3.39511e-41
3.39639e-41
3.39715e-41
3.39759e-41
3.39784e-41
3.39799e-41
3.39807e-41
3.39813e-41
3.39816e-41
3.39819e-41
3.39821e-41
3.39823e-41
3.39824e-41
3.39826e-41
3.39828e-41
3.3983e-41
3.39832e-41
3.39835e-41
3.39837e-41
3.39839e-41
3.39842e-41
3.39845e-41
3.39847e-41
3.3985e-41
3.39853e-41
3.39856e-41
3.3986e-41
3.39863e-41
3.39866e-41
3.3987e-41
3.39874e-41
3.39878e-41
3.39882e-41
3.39886e-41
3.39891e-41
3.39896e-41
3.399e-41
3.39905e-41
3.39911e-41
3.39916e-41
3.39922e-41
3.39928e-41
3.39934e-41
3.3994e-41
3.39947e-41
3.39954e-41
3.39961e-41
3.39968e-41
3.39976e-41
3.39983e-41
3.39992e-41
3.4e-41
3.40009e-41
3.40018e-41
3.40027e-41
3.40037e-41
3.40047e-41
3.40057e-41
3.40068e-41
3.40079e-41
3.4009e-41
3.40101e-41
3.40113e-41
3.40126e-41
3.40138e-41
3.40151e-41
3.40165e-41
3.40179e-41
3.40193e-41
3.40207e-41
3.40222e-41
3.40238e-41
3.40253e-41
3.40269e-41
3.40286e-41
3.40303e-41
3.4032e-41
3.40338e-41
3.40356e-41
3.40374e-41
3.40393e-41
3.40412e-41
3.40432e-41
3.40452e-41
3.40472e-41
3.40493e-41
3.40514e-41
3.40535e-41
3.40557e-41
3.40579e-41
3.40602e-41
3.40625e-41
3.40648e-41
3.40671e-41
3.40694e-41
3.40718e-41
3.40742e-41
3.40765e-41
3.40786e-41
3.40804e-41
3.40821e-41
3.40842e-41
3.40862e-41
3.40882e-41
3.40902e-41
3.40922e-41
3.40944e-41
3.40967e-41
3.40993e-41
3.4102e-41
3.4105e-41
3.41081e-41
3.41113e-41
3.41145e-41
3.41177e-41
3.41207e-41
3.41236e-41
3.41264e-41
3.41291e-41
3.41316e-41
3.4134e-41
3.41364e-41
3.41386e-41
3.41407e-41
3.41427e-41
3.41447e-41
3.41465e-41
3.41482e-41
3.41499e-41
3.41514e-41
3.41528e-41
3.4154e-41
3.41551e-41
3.41561e-41
3.41569e-41
3.41576e-41
3.41581e-41
3.41584e-41
3.41585e-41
3.41584e-41
3.41581e-41
3.41576e-41
3.41569e-41
3.41559e-41
3.41546e-41
3.41531e-41
3.41513e-41
3.41492e-41
3.41468e-41
3.41441e-41
3.4141e-41
3.41377e-41
3.41339e-41
3.41298e-41
3.41254e-41
3.41205e-41
3.41152e-41
3.41096e-41
3.41035e-41
3.40969e-41
3.40899e-41
3.40825e-41
3.40745e-41
3.40661e-41
3.40572e-41
3.40478e-41
3.40378e-41
3.40274e-41
3.40163e-41
3.40047e-41
3.39926e-41
3.39799e-41
3.39666e-41
3.39527e-41
3.39383e-41
3.39232e-41
3.39075e-41
3.38912e-41
3.38744e-41
3.38568e-41
3.38387e-41
3.382e-41
3.38006e-41
3.37806e-41
3.376e-41
3.37387e-41
3.37169e-41
3.36945e-41
3.36714e-41
3.36478e-41
3.36236e-41
3.35988e-41
3.35734e-41
3.35475e-41
3.3521e-41
3.34941e-41
3.34666e-41
3.34386e-41
3.34101e-41
3.33812e-41
3.33519e-41
3.33223e-41
3.32936e-41
3.32732e-41
3.33108e-41
3.37368e-41
3.67302e-41
5.65255e-41
1.85203e-40
1.01241e-39
6.27483e-39
3.93997e-38
2.45653e-37
1.51565e-36
9.24669e-36
5.5762e-35
3.32307e-34
1.95652e-33
1.13783e-32
6.53477e-32
3.70562e-31
2.07441e-30
1.14621e-29
6.25046e-29
3.36343e-28
1.78576e-27
9.4439e-27
4.89401e-26
2.50394e-25
1.26532e-24
6.31768e-24
3.11822e-23
1.52237e-22
7.35788e-22
3.52415e-21
1.67493e-20
7.91217e-20
3.72253e-19
1.74873e-18
8.22812e-18
3.89245e-17
1.85998e-16
9.02807e-16
4.48084e-15
2.29089e-14
1.21546e-13
6.84088e-13
4.4692e-12
3.87179e-11
3.68941e-10
3.43337e-09
3.22559e-08
2.94691e-07
2.46708e-06
1.68807e-05
8.03162e-05
0.000237437
0.000488509
0.000814064
0.00117657
0.00150908
0.0017501
0.0018823
0.00192553
0.00190688
0.00185434
0.00178522
0.00171009
0.00163488
0.00156265
0.0014948
0.00143179
0.00137362
0.00132002
0.00127063
0.00122506
0.00118293
0.0011439
0.00110765
0.0010739
0.0010424
0.00101292
0.00098529
0.000959328
0.000934888
0.000911837
0.000890056
0.000870047
0.000851477
0.000833716
0.000816711
0.000800408
0.000784759
0.000769718
0.000755243
0.000741293
0.000727832
0.000714823
0.000702234
0.000690031
0.000678186
0.00066667
0.000655453
0.000644512
0.00063382
0.000623353
0.000613088
0.000603004
0.00059308
0.000583296
0.000573632
0.000564072
0.000554599
0.000545197
0.000535853
0.000526552
0.000517283
0.000508037
0.000498802
0.000489572
0.00048034
0.0004711
0.00046185
0.000452585
0.000443306
0.000434011
0.000424703
0.000415384
0.000406057
0.000396728
0.000387401
0.000378085
0.000368786
0.000359512
0.000350273
0.000341078
0.000331937
0.000322861
0.00031386
0.000304944
0.000296125
0.000287412
0.000278818
0.000270351
0.000262021
0.000253839
0.000245812
0.00023795
0.00023026
0.00022275
0.000215428
0.000208299
0.000201375
0.000194661
0.000188162
0.000181881
0.000175819
0.000169978
0.000164358
0.000158959
0.000153781
0.000148823
0.000144081
0.000139555
0.000135241
0.000131135
0.000127235
0.000123535
0.000120032
0.00011672
0.000113594
0.000110649
0.000107878
0.000105277
0.000102838
0.000100556
9.84238e-05
9.64356e-05
9.45849e-05
9.28652e-05
9.12701e-05
8.97933e-05
8.84286e-05
8.71699e-05
8.6011e-05
8.49462e-05
8.39696e-05
8.30757e-05
8.22592e-05
8.15149e-05
8.08377e-05
8.02228e-05
7.96657e-05
7.91621e-05
7.87077e-05
7.82986e-05
7.79311e-05
7.76018e-05
7.73072e-05
7.70444e-05
7.68104e-05
7.66025e-05
7.64184e-05
7.62556e-05
7.61119e-05
7.59855e-05
7.58746e-05
7.57775e-05
7.56927e-05
7.56187e-05
7.55545e-05
7.54988e-05
7.54507e-05
7.54092e-05
7.53735e-05
7.53429e-05
7.53167e-05
7.52944e-05
7.52754e-05
7.52593e-05
7.52457e-05
7.52343e-05
7.52247e-05
7.52167e-05
7.521e-05
7.52045e-05
7.51999e-05
7.51962e-05
7.51932e-05
7.51907e-05
7.51887e-05
7.51871e-05
7.51859e-05
7.51849e-05
7.51842e-05
7.51837e-05
7.51833e-05
7.5183e-05
7.51829e-05
7.51828e-05
7.51828e-05
7.51829e-05
7.51829e-05
7.51831e-05
7.51832e-05
7.51834e-05
7.51836e-05
7.51838e-05
7.5184e-05
7.51842e-05
7.51844e-05
7.51846e-05
7.51848e-05
7.5185e-05
7.51852e-05
7.51854e-05
7.51856e-05
7.51858e-05
7.5186e-05
7.51861e-05
7.51863e-05
7.51865e-05
7.51866e-05
7.51867e-05
7.51869e-05
7.5187e-05
7.51871e-05
7.51872e-05
7.51873e-05
7.51874e-05
7.51875e-05
7.51876e-05
7.51876e-05
7.51876e-05
7.51877e-05
)
;

boundaryField
{
    boundary
    {
        type            empty;
    }
    inlet
    {
        type            fixedValue;
        value           uniform 0;
    }
    outlet
    {
        type            zeroGradient;
    }
}


// ************************************************************************* //
