/*--------------------------------*- C++ -*----------------------------------*\
  =========                 |
  \\      /  F ield         | OpenFOAM: The Open Source CFD Toolbox
   \\    /   O peration     | Website:  https://openfoam.org
    \\  /    A nd           | Version:  7
     \\/     M anipulation  |
\*---------------------------------------------------------------------------*/
FoamFile
{
    version     2.0;
    format      ascii;
    class       volScalarField;
    location    "0.00017";
    object      H2;
}
// * * * * * * * * * * * * * * * * * * * * * * * * * * * * * * * * * * * * * //

dimensions      [0 0 0 0 0 0 0];

internalField   nonuniform List<scalar> 
500
(
0.0285116
0.0285116
0.0285116
0.0285116
0.0285116
0.0285116
0.0285116
0.0285116
0.0285116
0.0285116
0.0285116
0.0285116
0.0285116
0.0285116
0.0285116
0.0285116
0.0285116
0.0285116
0.0285116
0.0285116
0.0285116
0.0285116
0.0285116
0.0285116
0.0285116
0.0285116
0.0285116
0.0285116
0.0285116
0.0285116
0.0285116
0.0285116
0.0285116
0.0285116
0.0285116
0.0285116
0.0285116
0.0285116
0.0285116
0.0285116
0.0285116
0.0285116
0.0285116
0.0285116
0.0285116
0.0285116
0.0285116
0.0285116
0.0285116
0.0285116
0.0285116
0.0285116
0.0285116
0.0285116
0.0285116
0.0285116
0.0285116
0.0285116
0.0285116
0.0285116
0.0285116
0.0285116
0.0285116
0.0285116
0.0285116
0.0285116
0.0285116
0.0285116
0.0285116
0.0285116
0.0285116
0.0285116
0.0285116
0.0285116
0.0285116
0.0285116
0.0285116
0.0285116
0.0285116
0.0285116
0.0285116
0.0285116
0.0285116
0.0285116
0.0285116
0.0285116
0.0285116
0.0285116
0.0285116
0.0285116
0.0285116
0.0285116
0.0285116
0.0285116
0.0285116
0.0285116
0.0285116
0.0285116
0.0285116
0.0285116
0.0285116
0.0285116
0.0285116
0.0285116
0.0285116
0.0285116
0.0285116
0.0285116
0.0285116
0.0285116
0.0285116
0.0285116
0.0285116
0.0285116
0.0285116
0.0285116
0.0285116
0.0285116
0.0285116
0.0285116
0.0285116
0.0285116
0.0285116
0.0285116
0.0285116
0.0285116
0.0285116
0.0285116
0.0285116
0.0285116
0.0285116
0.0285116
0.0285116
0.0285116
0.0285116
0.0285116
0.0285116
0.0285116
0.0285116
0.0285116
0.0285116
0.0285116
0.0285116
0.0285116
0.0285116
0.0285116
0.0285116
0.0285116
0.0285116
0.0285116
0.0285116
0.0285116
0.0285116
0.0285116
0.0285116
0.0285116
0.0285116
0.0285116
0.0285116
0.0285116
0.0285116
0.0285116
0.0285116
0.0285116
0.0285116
0.0285116
0.0285116
0.0285116
0.0285116
0.0285116
0.0285116
0.0285116
0.0285116
0.0285116
0.0285116
0.0285116
0.0285116
0.0285116
0.0285116
0.0285116
0.0285116
0.0285116
0.0285116
0.0285116
0.0285116
0.0285116
0.0285116
0.0285116
0.0285116
0.0285116
0.0285116
0.0285116
0.0285116
0.0285116
0.0285116
0.0285116
0.0285116
0.0285116
0.0285116
0.0285116
0.0285116
0.0285116
0.0285116
0.0285116
0.0285116
0.0285116
0.0285116
0.0285116
0.0285116
0.0285116
0.0285116
0.0285116
0.0285116
0.0285116
0.0285116
0.0285116
0.0285116
0.0285116
0.0285116
0.0285116
0.0285116
0.0285116
0.0285116
0.0285116
0.0285116
0.0285116
0.0285116
0.0285116
0.0285116
0.0285116
0.0285116
0.0285116
0.0285116
0.0285116
0.0285116
0.0285116
0.0285116
0.0285116
0.0285116
0.0285116
0.0285116
0.0285116
0.0285116
0.0285116
0.0285116
0.0285116
0.0285116
0.0285116
0.0285116
0.0285116
0.0285116
0.0285116
0.0285116
0.0285116
0.0285116
0.0285116
0.0285116
0.0285116
0.0285116
0.0285116
0.0285116
0.0285116
0.0285116
0.0285116
0.0285116
0.0285115
0.0285115
0.0285113
0.028511
0.0285102
0.0285084
0.0285045
0.0284961
0.0284779
0.028439
0.0283568
0.0281853
0.0278364
0.0271644
0.0259918
0.0242035
0.0218834
0.0191992
0.0162357
0.0131678
0.0103464
0.0080917
0.00649358
0.0053612
0.00470269
0.00429651
0.00404665
0.00389099
0.00379111
0.0037239
0.00367569
0.00363849
0.00360766
0.00358055
0.00355568
0.00353222
0.00350973
0.00348799
0.0034669
0.00344643
0.00342657
0.00340736
0.0033888
0.00337093
0.00335377
0.00333734
0.00332166
0.0033072
0.00329379
0.00328107
0.00326903
0.00325767
0.00324702
0.00323705
0.00322779
0.00321921
0.00321131
0.00320409
0.00319752
0.00319159
0.00318627
0.00318154
0.00317735
0.00317368
0.00317047
0.00316767
0.00316524
0.00316311
0.00316122
0.00315949
0.00315785
0.00315623
0.00315453
0.00315268
0.00315057
0.00314813
0.00314525
0.00314184
0.00313781
0.00313306
0.00312751
0.00312105
0.0031136
0.00310509
0.00309544
0.00308456
0.00307241
0.00305892
0.00304403
0.00302772
0.00300993
0.00299066
0.00296988
0.00294758
0.00292377
0.00289846
0.00287167
0.00284343
0.00281378
0.00278276
0.00275043
0.00271686
0.00268211
0.00264626
0.00260941
0.00257163
0.00253304
0.00249373
0.00245381
0.00241339
0.00237256
0.00233141
0.00229001
0.00224847
0.00220692
0.00216548
0.00212425
0.00208334
0.00204287
0.00200293
0.00196363
0.00192505
0.00188728
0.0018504
0.00181449
0.0017796
0.00174579
0.00171311
0.00168161
0.00165132
0.00162226
0.00159445
0.00156791
0.00154263
0.00151863
0.00149589
0.0014744
0.00145413
0.00143507
0.00141719
0.00140046
0.00138484
0.00137029
0.00135677
0.00134423
0.00133265
0.00132196
0.00131213
0.0013031
0.00129484
0.00128729
0.00128041
0.00127416
0.00126848
0.00126335
0.00125872
0.00125456
0.00125081
0.00124746
0.00124446
0.00124179
0.00123942
0.00123731
0.00123544
0.0012338
0.00123235
0.00123108
0.00122996
0.00122899
0.00122814
0.0012274
0.00122677
0.00122621
0.00122574
0.00122533
0.00122498
0.00122468
0.00122442
0.00122421
0.00122403
0.00122387
0.00122374
0.00122363
0.00122354
0.00122347
0.0012234
0.00122335
0.00122331
0.00122328
0.00122325
0.00122323
0.00122321
0.0012232
0.00122319
0.00122319
0.00122318
0.00122318
0.00122318
0.00122318
0.00122318
0.00122318
0.00122318
0.00122318
0.00122319
0.00122319
0.00122319
0.0012232
0.0012232
0.0012232
0.00122321
0.00122321
0.00122322
0.00122322
0.00122322
0.00122323
0.00122323
0.00122323
0.00122324
0.00122324
0.00122325
0.00122325
0.00122325
0.00122325
0.00122326
0.00122326
0.00122326
0.00122327
0.00122327
0.00122327
0.00122327
0.00122328
0.00122328
0.00122328
0.00122328
0.00122328
)
;

boundaryField
{
    boundary
    {
        type            empty;
    }
    inlet
    {
        type            fixedValue;
        value           uniform 0.0285116;
    }
    outlet
    {
        type            zeroGradient;
    }
}


// ************************************************************************* //
