/*--------------------------------*- C++ -*----------------------------------*\
  =========                 |
  \\      /  F ield         | OpenFOAM: The Open Source CFD Toolbox
   \\    /   O peration     | Website:  https://openfoam.org
    \\  /    A nd           | Version:  7
     \\/     M anipulation  |
\*---------------------------------------------------------------------------*/
FoamFile
{
    version     2.0;
    format      ascii;
    class       volScalarField;
    location    "0.00017";
    object      HO2;
}
// * * * * * * * * * * * * * * * * * * * * * * * * * * * * * * * * * * * * * //

dimensions      [0 0 0 0 0 0 0];

internalField   nonuniform List<scalar> 
500
(
5.65579e-38
1.29904e-37
2.05078e-37
2.82194e-37
3.61446e-37
4.42871e-37
5.2616e-37
6.10511e-37
6.94586e-37
7.76596e-37
8.54519e-37
9.26386e-37
9.90564e-37
1.04597e-36
1.09219e-36
1.12944e-36
1.15843e-36
1.18024e-36
1.19612e-36
1.20732e-36
1.21496e-36
1.22003e-36
1.22329e-36
1.22533e-36
1.22657e-36
1.2273e-36
1.22772e-36
1.22796e-36
1.22809e-36
1.22816e-36
1.22819e-36
1.22821e-36
1.22822e-36
1.22822e-36
1.22822e-36
1.22822e-36
1.22821e-36
1.22821e-36
1.22821e-36
1.22821e-36
1.2282e-36
1.2282e-36
1.2282e-36
1.2282e-36
1.2282e-36
1.22819e-36
1.22819e-36
1.22819e-36
1.22819e-36
1.22819e-36
1.22819e-36
1.22819e-36
1.22819e-36
1.22819e-36
1.22819e-36
1.22819e-36
1.22819e-36
1.22819e-36
1.2282e-36
1.2282e-36
1.2282e-36
1.22821e-36
1.22821e-36
1.22822e-36
1.22822e-36
1.22823e-36
1.22823e-36
1.22824e-36
1.22825e-36
1.22826e-36
1.22827e-36
1.22828e-36
1.22829e-36
1.2283e-36
1.22831e-36
1.22832e-36
1.22834e-36
1.22835e-36
1.22837e-36
1.22839e-36
1.2284e-36
1.22842e-36
1.22844e-36
1.22846e-36
1.22848e-36
1.22851e-36
1.22853e-36
1.22856e-36
1.22858e-36
1.22861e-36
1.22864e-36
1.22867e-36
1.2287e-36
1.22873e-36
1.22876e-36
1.22879e-36
1.22883e-36
1.22887e-36
1.2289e-36
1.22894e-36
1.22898e-36
1.22902e-36
1.22907e-36
1.22911e-36
1.22916e-36
1.2292e-36
1.22925e-36
1.2293e-36
1.22935e-36
1.2294e-36
1.22945e-36
1.22951e-36
1.22956e-36
1.22962e-36
1.22968e-36
1.22973e-36
1.22979e-36
1.22985e-36
1.22991e-36
1.22997e-36
1.23001e-36
1.23001e-36
1.2298e-36
1.2288e-36
1.22474e-36
1.21682e-36
1.21701e-36
1.21727e-36
1.21762e-36
1.21809e-36
1.21874e-36
1.21958e-36
1.22062e-36
1.22183e-36
1.22316e-36
1.22453e-36
1.22587e-36
1.22711e-36
1.22819e-36
1.2291e-36
1.22983e-36
1.2304e-36
1.23083e-36
1.23115e-36
1.23139e-36
1.23156e-36
1.23169e-36
1.23179e-36
1.23187e-36
1.23194e-36
1.232e-36
1.23205e-36
1.2321e-36
1.23214e-36
1.23218e-36
1.23222e-36
1.23225e-36
1.23227e-36
1.23229e-36
1.23231e-36
1.23232e-36
1.23233e-36
1.23233e-36
1.23232e-36
1.23231e-36
1.23229e-36
1.23226e-36
1.23223e-36
1.23218e-36
1.23213e-36
1.23207e-36
1.23201e-36
1.23193e-36
1.23184e-36
1.23174e-36
1.23163e-36
1.23151e-36
1.23138e-36
1.23124e-36
1.23108e-36
1.23091e-36
1.23073e-36
1.23054e-36
1.23033e-36
1.2301e-36
1.22986e-36
1.22961e-36
1.22934e-36
1.22905e-36
1.22875e-36
1.22843e-36
1.22809e-36
1.22773e-36
1.22736e-36
1.22697e-36
1.22656e-36
1.22613e-36
1.22568e-36
1.22521e-36
1.22472e-36
1.22421e-36
1.22368e-36
1.22313e-36
1.22255e-36
1.22196e-36
1.22135e-36
1.22071e-36
1.22006e-36
1.21938e-36
1.21868e-36
1.21796e-36
1.21722e-36
1.21646e-36
1.21568e-36
1.21488e-36
1.21406e-36
1.21322e-36
1.21236e-36
1.21147e-36
1.21058e-36
1.20966e-36
1.20872e-36
1.20777e-36
1.2068e-36
1.20581e-36
1.20481e-36
1.2038e-36
1.2028e-36
1.20195e-36
1.20203e-36
1.20763e-36
1.2454e-36
1.47002e-36
2.77741e-36
1.03535e-35
5.42309e-35
3.08561e-34
1.78522e-33
1.03778e-32
6.05034e-32
3.53691e-31
2.07313e-30
1.21839e-29
7.17954e-29
4.24213e-28
2.51356e-27
1.49369e-26
8.90266e-26
5.32151e-25
3.18915e-24
1.91508e-23
1.21004e-22
7.34446e-22
4.40692e-21
2.62969e-20
1.55835e-19
9.15074e-19
5.31217e-18
3.04183e-17
1.71442e-16
9.49221e-16
5.15375e-15
2.73986e-14
1.42445e-13
7.23586e-13
3.58957e-12
1.73902e-11
8.23268e-11
3.81355e-10
1.73214e-09
7.73623e-09
3.40818e-08
1.4845e-07
6.38952e-07
2.70369e-06
1.11088e-05
4.2896e-05
0.000144726
0.000361643
0.000516899
0.00048561
0.00037986
0.000272885
0.000191589
0.000134036
9.35534e-05
6.57955e-05
4.77045e-05
3.38078e-05
2.62282e-05
2.13147e-05
1.80312e-05
1.57512e-05
1.40988e-05
1.28492e-05
1.18667e-05
1.10678e-05
1.04003e-05
9.82992e-06
9.334e-06
8.89671e-06
8.50678e-06
8.15585e-06
7.8376e-06
7.54708e-06
7.28038e-06
7.03431e-06
6.80626e-06
6.59404e-06
6.39585e-06
6.21018e-06
6.03582e-06
5.87666e-06
5.72781e-06
5.5855e-06
5.44908e-06
5.31798e-06
5.19166e-06
5.06966e-06
4.95155e-06
4.83693e-06
4.72546e-06
4.61681e-06
4.51072e-06
4.40691e-06
4.30518e-06
4.20532e-06
4.10716e-06
4.01058e-06
3.91545e-06
3.82168e-06
3.72921e-06
3.63801e-06
3.54805e-06
3.45934e-06
3.3719e-06
3.28579e-06
3.20107e-06
3.1178e-06
3.0361e-06
2.95605e-06
2.87778e-06
2.80141e-06
2.72707e-06
2.65488e-06
2.58497e-06
2.51748e-06
2.45251e-06
2.3902e-06
2.33065e-06
2.27395e-06
2.22018e-06
2.16941e-06
2.1217e-06
2.07707e-06
2.03553e-06
1.99709e-06
1.9617e-06
1.92933e-06
1.8999e-06
1.87332e-06
1.84948e-06
1.82825e-06
1.80949e-06
1.79304e-06
1.77874e-06
1.76641e-06
1.75586e-06
1.74692e-06
1.7394e-06
1.7331e-06
1.72784e-06
1.7234e-06
1.71955e-06
1.71603e-06
1.71265e-06
1.70966e-06
1.7081e-06
1.70711e-06
1.70644e-06
1.70599e-06
1.70572e-06
1.70559e-06
1.70558e-06
1.70567e-06
1.70584e-06
1.70608e-06
1.7064e-06
1.70679e-06
1.70726e-06
1.7078e-06
1.70843e-06
1.70914e-06
1.70994e-06
1.71082e-06
1.71178e-06
1.71281e-06
1.71391e-06
1.71507e-06
1.71628e-06
1.71753e-06
1.71881e-06
1.72011e-06
1.72142e-06
1.72273e-06
1.72403e-06
1.72531e-06
1.72656e-06
1.72777e-06
1.72894e-06
1.73007e-06
1.73115e-06
1.73217e-06
1.73314e-06
1.73406e-06
1.73491e-06
1.73571e-06
1.73646e-06
1.73715e-06
1.73779e-06
1.73837e-06
1.73891e-06
1.73941e-06
1.73986e-06
1.74027e-06
1.74064e-06
1.74098e-06
1.74129e-06
1.74157e-06
1.74182e-06
1.74205e-06
1.74225e-06
1.74244e-06
1.74261e-06
1.74276e-06
1.7429e-06
1.74303e-06
1.74314e-06
1.74325e-06
1.74334e-06
1.74343e-06
1.74351e-06
1.74359e-06
1.74366e-06
1.74373e-06
1.74379e-06
1.74385e-06
1.74391e-06
1.74396e-06
1.74401e-06
1.74406e-06
1.74411e-06
1.74416e-06
1.7442e-06
1.74425e-06
1.74429e-06
1.74434e-06
1.74438e-06
1.74442e-06
1.74446e-06
1.7445e-06
1.74454e-06
1.74458e-06
1.74462e-06
1.74466e-06
1.7447e-06
1.74473e-06
1.74477e-06
1.74481e-06
1.74485e-06
1.74488e-06
1.74492e-06
1.74495e-06
1.74499e-06
1.74502e-06
1.74506e-06
1.74509e-06
1.74512e-06
1.74515e-06
1.74519e-06
1.74522e-06
1.74525e-06
1.74528e-06
1.74531e-06
1.74534e-06
1.74536e-06
1.74539e-06
1.74542e-06
1.74545e-06
1.74547e-06
1.7455e-06
1.74552e-06
1.74554e-06
1.74557e-06
1.74559e-06
1.74561e-06
1.74563e-06
1.74565e-06
1.74567e-06
1.74568e-06
)
;

boundaryField
{
    boundary
    {
        type            empty;
    }
    inlet
    {
        type            fixedValue;
        value           uniform 0;
    }
    outlet
    {
        type            zeroGradient;
    }
}


// ************************************************************************* //
