/*--------------------------------*- C++ -*----------------------------------*\
  =========                 |
  \\      /  F ield         | OpenFOAM: The Open Source CFD Toolbox
   \\    /   O peration     | Website:  https://openfoam.org
    \\  /    A nd           | Version:  7
     \\/     M anipulation  |
\*---------------------------------------------------------------------------*/
FoamFile
{
    version     2.0;
    format      ascii;
    class       volScalarField;
    location    "0.00017";
    object      O2;
}
// * * * * * * * * * * * * * * * * * * * * * * * * * * * * * * * * * * * * * //

dimensions      [0 0 0 0 0 0 0];

internalField   nonuniform List<scalar> 
500
(
0.226269
0.226269
0.226269
0.226269
0.226269
0.226269
0.226269
0.226269
0.226269
0.226269
0.226269
0.226269
0.226269
0.226269
0.226269
0.226269
0.226269
0.226269
0.226269
0.226269
0.226269
0.226269
0.226269
0.226269
0.226269
0.226269
0.226269
0.226269
0.226269
0.226269
0.226269
0.226269
0.226269
0.226269
0.226269
0.226269
0.226269
0.226269
0.226269
0.226269
0.226269
0.226269
0.226269
0.226269
0.226269
0.226269
0.226269
0.226269
0.226269
0.226269
0.226269
0.226269
0.226269
0.226269
0.226269
0.226269
0.226269
0.226269
0.226269
0.226269
0.226269
0.226269
0.226269
0.226269
0.226269
0.226269
0.226269
0.226269
0.226269
0.226269
0.226269
0.226269
0.226269
0.226269
0.226269
0.226269
0.226269
0.226269
0.226269
0.226269
0.226269
0.226269
0.226269
0.226269
0.226269
0.226269
0.226269
0.226269
0.226269
0.226269
0.226269
0.226269
0.226269
0.226269
0.226269
0.226269
0.226269
0.226269
0.226269
0.226269
0.226269
0.226269
0.226269
0.226269
0.226269
0.226269
0.226269
0.226269
0.226269
0.226269
0.226269
0.226269
0.226269
0.226269
0.226269
0.226269
0.226269
0.226269
0.226269
0.226269
0.226269
0.226269
0.226269
0.226269
0.226269
0.226269
0.226269
0.226269
0.226269
0.226269
0.226269
0.226269
0.226269
0.226269
0.226269
0.226269
0.226269
0.226269
0.226269
0.226269
0.226269
0.226269
0.226269
0.226269
0.226269
0.226269
0.226269
0.226269
0.226269
0.226269
0.226269
0.226269
0.226269
0.226269
0.226269
0.226269
0.226269
0.226269
0.226269
0.226269
0.226269
0.226269
0.226269
0.226269
0.226269
0.226269
0.226269
0.226269
0.226269
0.226269
0.226269
0.226269
0.226269
0.226269
0.226269
0.226269
0.226269
0.226269
0.226269
0.226269
0.226269
0.226269
0.226269
0.226269
0.226269
0.226269
0.226269
0.226269
0.226269
0.226269
0.226269
0.226269
0.226269
0.226269
0.226269
0.226269
0.226269
0.226269
0.226269
0.226269
0.226269
0.226269
0.226269
0.226269
0.226269
0.226269
0.226269
0.226269
0.226269
0.226269
0.226269
0.226269
0.226269
0.226269
0.226269
0.226269
0.226269
0.226269
0.226269
0.226269
0.226269
0.226269
0.226269
0.226269
0.226269
0.226269
0.226269
0.226269
0.226269
0.226269
0.226269
0.226269
0.226269
0.226269
0.226269
0.226269
0.226269
0.226269
0.226269
0.226269
0.226269
0.226269
0.226269
0.226269
0.226269
0.226269
0.226269
0.226269
0.226269
0.226269
0.226269
0.226269
0.226269
0.226269
0.226269
0.226269
0.226269
0.226269
0.226269
0.226269
0.226269
0.226269
0.226269
0.226269
0.226269
0.226269
0.226269
0.226269
0.226269
0.226269
0.22627
0.226271
0.226272
0.226275
0.226278
0.226268
0.226188
0.225808
0.224439
0.220593
0.212304
0.199876
0.184152
0.164015
0.139411
0.11354
0.0908421
0.0738968
0.0589481
0.0503714
0.0445751
0.0406117
0.037828
0.0357982
0.0342526
0.0330227
0.0320031
0.0311279
0.030355
0.0296571
0.0290164
0.0284205
0.0278607
0.0273308
0.0268258
0.026342
0.0258765
0.0254265
0.0249902
0.0245657
0.0241516
0.023747
0.0233632
0.0229904
0.0226209
0.0222539
0.0218887
0.0215249
0.021162
0.0207995
0.0204372
0.0200749
0.0197124
0.0193498
0.0189871
0.0186244
0.0182619
0.0178999
0.0175389
0.0171791
0.0168212
0.0164655
0.0161128
0.0157635
0.0154183
0.0150778
0.0147426
0.0144132
0.0140903
0.0137743
0.0134657
0.013165
0.0128725
0.0125884
0.0123132
0.0120468
0.0117896
0.0115414
0.0113024
0.0110724
0.0108513
0.010639
0.0104354
0.0102401
0.0100529
0.00987367
0.00970201
0.00953766
0.00938034
0.00922978
0.0090857
0.00894783
0.00881594
0.00868978
0.00856915
0.00845384
0.00834367
0.00823848
0.00813811
0.00804238
0.00795112
0.00786407
0.00778089
0.00770097
0.00762331
0.00754648
0.00747653
0.00741572
0.00736078
0.0073106
0.0072649
0.00722356
0.00718643
0.00715338
0.00712422
0.00709879
0.00707691
0.00705839
0.00704306
0.00703073
0.0070212
0.00701428
0.00700977
0.00700746
0.00700715
0.00700862
0.00701167
0.00701609
0.00702169
0.00702827
0.00703565
0.00704365
0.00705213
0.00706093
0.00706992
0.00707898
0.007088
0.0070969
0.00710559
0.00711401
0.00712211
0.00712984
0.00713718
0.0071441
0.00715059
0.00715665
0.00716227
0.00716746
0.00717224
0.00717661
0.0071806
0.00718423
0.00718751
0.00719047
0.00719313
0.00719551
0.00719763
0.00719953
0.00720121
0.00720269
0.007204
0.00720516
0.00720617
0.00720705
0.00720783
0.0072085
0.00720909
0.00720959
0.00721003
0.00721041
0.00721074
0.00721102
0.00721126
0.00721147
0.00721165
0.0072118
0.00721193
0.00721205
0.00721214
0.00721223
0.0072123
0.00721236
0.00721242
0.00721247
0.00721251
0.00721255
0.00721258
0.00721261
0.00721264
0.00721266
0.00721268
0.0072127
0.00721272
0.00721274
0.00721276
0.00721278
0.00721279
0.00721281
0.00721282
0.00721284
0.00721285
0.00721286
0.00721288
0.00721289
0.0072129
0.00721291
0.00721292
0.00721294
0.00721295
0.00721296
0.00721297
0.00721298
0.00721298
0.00721299
0.007213
0.00721301
0.00721302
0.00721302
0.00721303
0.00721304
0.00721304
0.00721305
0.00721306
0.00721306
0.00721307
0.00721307
0.00721307
0.00721308
0.00721308
0.00721308
)
;

boundaryField
{
    boundary
    {
        type            empty;
    }
    inlet
    {
        type            fixedValue;
        value           uniform 0.226269;
    }
    outlet
    {
        type            zeroGradient;
    }
}


// ************************************************************************* //
