/*--------------------------------*- C++ -*----------------------------------*\
  =========                 |
  \\      /  F ield         | OpenFOAM: The Open Source CFD Toolbox
   \\    /   O peration     | Website:  https://openfoam.org
    \\  /    A nd           | Version:  7
     \\/     M anipulation  |
\*---------------------------------------------------------------------------*/
FoamFile
{
    version     2.0;
    format      ascii;
    class       volScalarField;
    location    "0.00017";
    object      OH;
}
// * * * * * * * * * * * * * * * * * * * * * * * * * * * * * * * * * * * * * //

dimensions      [0 0 0 0 0 0 0];

internalField   nonuniform List<scalar> 
500
(
9.49923e-48
1.87209e-47
2.52994e-47
3.00934e-47
3.37475e-47
3.67181e-47
3.93184e-47
4.1752e-47
4.41346e-47
4.65113e-47
4.88735e-47
5.11761e-47
5.33564e-47
5.53513e-47
5.71101e-47
5.86032e-47
5.98238e-47
6.07856e-47
6.15168e-47
6.2054e-47
6.24359e-47
6.2699e-47
6.28749e-47
6.2989e-47
6.30612e-47
6.31055e-47
6.3132e-47
6.31475e-47
6.31563e-47
6.31611e-47
6.31637e-47
6.3165e-47
6.31656e-47
6.31658e-47
6.31659e-47
6.31658e-47
6.31657e-47
6.31656e-47
6.31655e-47
6.31654e-47
6.31653e-47
6.31651e-47
6.3165e-47
6.31649e-47
6.31648e-47
6.31648e-47
6.31647e-47
6.31646e-47
6.31646e-47
6.31646e-47
6.31646e-47
6.31646e-47
6.31646e-47
6.31647e-47
6.31647e-47
6.31648e-47
6.31649e-47
6.31651e-47
6.31652e-47
6.31654e-47
6.31657e-47
6.31659e-47
6.31662e-47
6.31665e-47
6.31669e-47
6.31673e-47
6.31677e-47
6.31682e-47
6.31687e-47
6.31693e-47
6.31699e-47
6.31706e-47
6.31713e-47
6.3172e-47
6.31728e-47
6.31737e-47
6.31746e-47
6.31756e-47
6.31766e-47
6.31777e-47
6.31789e-47
6.31801e-47
6.31814e-47
6.31827e-47
6.31842e-47
6.31856e-47
6.31872e-47
6.31888e-47
6.31905e-47
6.31923e-47
6.31942e-47
6.31961e-47
6.31981e-47
6.32002e-47
6.32024e-47
6.32046e-47
6.32069e-47
6.32094e-47
6.32119e-47
6.32144e-47
6.32171e-47
6.32198e-47
6.32227e-47
6.32256e-47
6.32286e-47
6.32317e-47
6.32348e-47
6.32381e-47
6.32414e-47
6.32448e-47
6.32483e-47
6.32519e-47
6.32556e-47
6.32593e-47
6.32631e-47
6.3267e-47
6.32709e-47
6.32749e-47
6.3279e-47
6.32831e-47
6.32873e-47
6.32914e-47
6.32953e-47
6.32989e-47
6.33015e-47
6.3303e-47
6.33063e-47
6.33094e-47
6.33122e-47
6.3315e-47
6.33179e-47
6.33211e-47
6.33248e-47
6.33293e-47
6.33345e-47
6.33404e-47
6.33467e-47
6.33533e-47
6.33599e-47
6.33664e-47
6.33726e-47
6.33785e-47
6.33839e-47
6.3389e-47
6.33938e-47
6.33982e-47
6.34024e-47
6.34063e-47
6.341e-47
6.34135e-47
6.34168e-47
6.34199e-47
6.34227e-47
6.34254e-47
6.34277e-47
6.34298e-47
6.34316e-47
6.34332e-47
6.34344e-47
6.34352e-47
6.34357e-47
6.34359e-47
6.34356e-47
6.34349e-47
6.34338e-47
6.34322e-47
6.34301e-47
6.34275e-47
6.34244e-47
6.34207e-47
6.34164e-47
6.34115e-47
6.34059e-47
6.33998e-47
6.33929e-47
6.33853e-47
6.33769e-47
6.33678e-47
6.33579e-47
6.33471e-47
6.33355e-47
6.3323e-47
6.33096e-47
6.32952e-47
6.32799e-47
6.32636e-47
6.32463e-47
6.32279e-47
6.32085e-47
6.31879e-47
6.31663e-47
6.31434e-47
6.31195e-47
6.30943e-47
6.30679e-47
6.30402e-47
6.30113e-47
6.29812e-47
6.29497e-47
6.2917e-47
6.28829e-47
6.28475e-47
6.28107e-47
6.27726e-47
6.27331e-47
6.26923e-47
6.26501e-47
6.26066e-47
6.25617e-47
6.25154e-47
6.24678e-47
6.24189e-47
6.23686e-47
6.2317e-47
6.22641e-47
6.22099e-47
6.21545e-47
6.20981e-47
6.20424e-47
6.20009e-47
6.20817e-47
6.31416e-47
7.18995e-47
1.40468e-46
6.68549e-46
4.68741e-45
3.49249e-44
2.59839e-43
1.91359e-42
1.39323e-41
1.00255e-40
7.12915e-40
5.00907e-39
3.47695e-38
2.38394e-37
1.61426e-36
1.07934e-35
7.1247e-35
4.64217e-34
2.98496e-33
1.89382e-32
1.18534e-31
7.31772e-31
4.45518e-30
2.6745e-29
1.58289e-28
9.23492e-28
5.31063e-27
3.00992e-26
1.68127e-25
9.25519e-25
5.03078e-24
2.6905e-23
1.41804e-22
7.36819e-22
3.77538e-21
1.90822e-20
9.51807e-20
4.6877e-19
2.28121e-18
1.09786e-17
5.23084e-17
2.47061e-16
1.15849e-15
5.40193e-15
2.50913e-14
1.16287e-13
5.38499e-13
2.49422e-12
1.15613e-11
5.36268e-11
2.49853e-10
1.17794e-09
5.59106e-09
2.66258e-08
1.28504e-07
6.54295e-07
3.81888e-06
2.59753e-05
0.00015832
0.000507322
0.000780964
0.000933191
0.00125564
0.0019781
0.00311995
0.00448495
0.0058363
0.00718517
0.00817699
0.00895785
0.00956669
0.0100406
0.0104114
0.0107037
0.0109359
0.0111215
0.0112704
0.0113899
0.0114855
0.0115612
0.0116203
0.0116652
0.0116978
0.0117199
0.0117326
0.011737
0.011734
0.0117242
0.0117083
0.0116868
0.0116601
0.0116296
0.0115957
0.011558
0.0115165
0.0114715
0.011423
0.0113712
0.0113163
0.0112584
0.0111977
0.0111344
0.0110687
0.0110007
0.0109308
0.0108591
0.0107859
0.0107115
0.010636
0.01056
0.0104835
0.010407
0.0103307
0.010255
0.0101801
0.0101063
0.0100338
0.00996302
0.00989402
0.00982703
0.00976219
0.0096996
0.00963934
0.00958142
0.00952584
0.00947252
0.00942136
0.00937221
0.00932488
0.00927917
0.0092348
0.0091915
0.00914899
0.00910693
0.00906502
0.00902292
0.00898032
0.00893691
0.00889239
0.00884649
0.00879896
0.00874959
0.00869819
0.00864461
0.00858875
0.00853053
0.00846992
0.00840691
0.00834155
0.00827388
0.00820401
0.00813201
0.00805801
0.00798218
0.0079048
0.00782644
0.00774762
0.00766848
0.00758926
0.00751019
0.00743149
0.0073534
0.00727612
0.00719985
0.00712478
0.00705111
0.00697899
0.00690858
0.00684005
0.00677351
0.00670908
0.00664686
0.00658693
0.00652936
0.00647418
0.00642145
0.00637118
0.00632337
0.00627801
0.0062351
0.00619459
0.00615646
0.00612064
0.00608708
0.00605571
0.00602647
0.00599928
0.00597406
0.00595071
0.00592917
0.00590933
0.0058911
0.00587441
0.00585915
0.00584524
0.00583259
0.00582111
0.00581073
0.00580136
0.00579292
0.00578535
0.00577856
0.0057725
0.0057671
0.0057623
0.00575805
0.00575429
0.00575097
0.00574806
0.00574551
0.00574328
0.00574134
0.00573965
0.00573819
0.00573692
0.00573584
0.00573491
0.00573412
0.00573345
0.00573288
0.0057324
0.00573201
0.00573168
0.0057314
0.00573118
0.00573101
0.00573087
0.00573076
0.00573067
0.00573061
0.00573057
0.00573055
0.00573054
0.00573054
0.00573055
0.00573056
0.00573059
0.00573062
0.00573065
0.00573069
0.00573073
0.00573077
0.00573081
0.00573086
0.0057309
0.00573095
0.00573099
0.00573104
0.00573109
0.00573113
0.00573118
0.00573123
0.00573127
0.00573132
0.00573136
0.0057314
0.00573145
0.00573149
0.00573153
0.00573157
0.00573161
0.00573165
0.00573169
0.00573173
0.00573176
0.0057318
0.00573184
0.00573187
0.0057319
0.00573193
0.00573197
0.005732
0.00573203
0.00573205
0.00573208
0.00573211
0.00573213
0.00573215
0.00573216
)
;

boundaryField
{
    boundary
    {
        type            empty;
    }
    inlet
    {
        type            fixedValue;
        value           uniform 0;
    }
    outlet
    {
        type            zeroGradient;
    }
}


// ************************************************************************* //
