/*--------------------------------*- C++ -*----------------------------------*\
  =========                 |
  \\      /  F ield         | OpenFOAM: The Open Source CFD Toolbox
   \\    /   O peration     | Website:  https://openfoam.org
    \\  /    A nd           | Version:  7
     \\/     M anipulation  |
\*---------------------------------------------------------------------------*/
FoamFile
{
    version     2.0;
    format      ascii;
    class       volScalarField;
    location    "0.00017";
    object      rho;
}
// * * * * * * * * * * * * * * * * * * * * * * * * * * * * * * * * * * * * * //

dimensions      [1 -3 0 0 0 0 0];

internalField   nonuniform List<scalar> 
500
(
0.864122
0.864042
0.863927
0.86378
0.863599
0.863385
0.863136
0.862854
0.862545
0.862218
0.861886
0.861562
0.861259
0.860986
0.86075
0.860554
0.860395
0.860272
0.860179
0.860112
0.860064
0.860031
0.86001
0.859995
0.859987
0.859981
0.859978
0.859976
0.859975
0.859974
0.859974
0.859974
0.859974
0.859974
0.859974
0.859974
0.859974
0.859974
0.859974
0.859974
0.859975
0.859975
0.859975
0.859975
0.859975
0.859975
0.859975
0.859975
0.859975
0.859975
0.859975
0.859976
0.859976
0.859976
0.859976
0.859976
0.859976
0.859976
0.859976
0.859976
0.859976
0.859976
0.859976
0.859976
0.859976
0.859976
0.859976
0.859976
0.859977
0.859977
0.859977
0.859977
0.859977
0.859977
0.859977
0.859977
0.859977
0.859976
0.859976
0.859976
0.859976
0.859976
0.859976
0.859976
0.859976
0.859976
0.859976
0.859976
0.859976
0.859975
0.859975
0.859975
0.859975
0.859975
0.859975
0.859974
0.859974
0.859974
0.859974
0.859973
0.859973
0.859973
0.859972
0.859972
0.859972
0.859972
0.859971
0.859971
0.85997
0.85997
0.85997
0.859969
0.859969
0.859968
0.859968
0.859968
0.859967
0.859967
0.859966
0.859966
0.859965
0.859965
0.859964
0.859964
0.859963
0.859963
0.859962
0.859962
0.859962
0.859961
0.859961
0.85996
0.85996
0.859959
0.859958
0.859958
0.859957
0.859956
0.859955
0.859955
0.859954
0.859953
0.859952
0.859952
0.859951
0.85995
0.85995
0.859949
0.859949
0.859948
0.859948
0.859947
0.859947
0.859946
0.859946
0.859945
0.859945
0.859945
0.859944
0.859944
0.859944
0.859944
0.859944
0.859943
0.859943
0.859943
0.859943
0.859944
0.859944
0.859944
0.859944
0.859945
0.859945
0.859946
0.859946
0.859947
0.859948
0.859948
0.859949
0.85995
0.859952
0.859953
0.859954
0.859956
0.859957
0.859959
0.859961
0.859963
0.859965
0.859967
0.859969
0.859972
0.859974
0.859977
0.85998
0.859983
0.859986
0.859989
0.859993
0.859996
0.86
0.860004
0.860008
0.860013
0.860017
0.860022
0.860026
0.860031
0.860036
0.860042
0.860047
0.860053
0.860058
0.860064
0.86007
0.860077
0.860083
0.86009
0.860096
0.860103
0.86011
0.860117
0.860125
0.860132
0.86014
0.860147
0.860155
0.860163
0.860171
0.860179
0.860187
0.860196
0.860204
0.860212
0.860221
0.86023
0.860238
0.860247
0.860256
0.860265
0.860274
0.860283
0.860292
0.860301
0.86031
0.860319
0.860328
0.860337
0.860346
0.860356
0.860365
0.860375
0.860385
0.860394
0.860404
0.860414
0.860424
0.860434
0.860444
0.860454
0.860465
0.860475
0.860485
0.860496
0.860507
0.860518
0.86053
0.860542
0.860555
0.860567
0.860575
0.86056
0.86046
0.860078
0.858793
0.854746
0.842587
0.8087
0.729802
0.601813
0.470572
0.374913
0.312812
0.271174
0.241803
0.220882
0.206301
0.19546
0.186958
0.180789
0.176186
0.172446
0.16935
0.166732
0.164481
0.162519
0.160787
0.159245
0.15786
0.156608
0.15547
0.154428
0.153472
0.152591
0.151775
0.151018
0.150314
0.149657
0.149044
0.148469
0.147931
0.147427
0.146966
0.14654
0.146133
0.145747
0.145379
0.145028
0.144692
0.144372
0.144064
0.143769
0.143485
0.14321
0.142943
0.142683
0.142429
0.142179
0.141931
0.141685
0.141439
0.141191
0.14094
0.140684
0.140423
0.140154
0.139877
0.13959
0.139292
0.138982
0.13866
0.138325
0.137977
0.137615
0.13724
0.136852
0.136451
0.136038
0.135614
0.135181
0.134739
0.13429
0.133835
0.133377
0.132917
0.132458
0.132
0.131547
0.131099
0.130659
0.130229
0.12981
0.129404
0.129012
0.128635
0.128275
0.127933
0.127609
0.127304
0.127019
0.126753
0.126507
0.126281
0.126074
0.125887
0.125717
0.125564
0.12543
0.125314
0.125214
0.125129
0.125058
0.125001
0.124956
0.124922
0.124899
0.124884
0.124878
0.124879
0.124886
0.124898
0.124915
0.124936
0.12496
0.124987
0.125015
0.125045
0.125075
0.125106
0.125137
0.125168
0.125199
0.125228
0.125257
0.125284
0.12531
0.125335
0.125359
0.125381
0.125402
0.125422
0.12544
0.125456
0.125472
0.125486
0.125499
0.12551
0.125521
0.125531
0.125539
0.125547
0.125554
0.12556
0.125565
0.12557
0.125574
0.125578
0.125581
0.125584
0.125586
0.125588
0.12559
0.125591
0.125592
0.125593
0.125594
0.125594
0.125595
0.125595
0.125595
0.125595
0.125595
0.125595
0.125595
0.125594
0.125594
0.125594
0.125593
0.125593
0.125593
0.125592
0.125592
0.125591
0.125591
0.12559
0.12559
0.125589
0.125589
0.125588
0.125588
0.125587
0.125587
0.125586
0.125586
0.125585
0.125585
0.125584
0.125584
0.125583
0.125583
0.125582
0.125582
0.125581
0.125581
0.12558
0.12558
0.125579
0.125579
0.125579
0.125578
0.125578
0.125577
0.125577
0.125576
0.125576
0.125575
0.125575
0.125575
0.125574
0.125574
0.125573
0.125573
0.125573
0.125572
0.125572
0.125572
0.125571
0.125571
0.125571
0.12557
)
;

boundaryField
{
    boundary
    {
        type            empty;
    }
    inlet
    {
        type            calculated;
        value           uniform 0.864153;
    }
    outlet
    {
        type            calculated;
        value           uniform 0.12557;
    }
}


// ************************************************************************* //
