/*--------------------------------*- C++ -*----------------------------------*\
  =========                 |
  \\      /  F ield         | OpenFOAM: The Open Source CFD Toolbox
   \\    /   O peration     | Website:  https://openfoam.org
    \\  /    A nd           | Version:  7
     \\/     M anipulation  |
\*---------------------------------------------------------------------------*/
FoamFile
{
    version     2.0;
    format      ascii;
    class       volVectorField;
    location    "0.00017";
    object      U;
}
// * * * * * * * * * * * * * * * * * * * * * * * * * * * * * * * * * * * * * //

dimensions      [0 1 -1 0 0 0 0];

internalField   nonuniform List<vector> 
500
(
(2.34895 0 0)
(2.3491 0 0)
(2.34916 0 0)
(2.34918 0 0)
(2.34923 0 0)
(2.3493 0 0)
(2.34937 0 0)
(2.34942 0 0)
(2.34946 0 0)
(2.34945 0 0)
(2.3494 0 0)
(2.34932 0 0)
(2.3492 0 0)
(2.34905 0 0)
(2.3489 0 0)
(2.34874 0 0)
(2.34858 0 0)
(2.34844 0 0)
(2.34832 0 0)
(2.34821 0 0)
(2.34812 0 0)
(2.34804 0 0)
(2.34797 0 0)
(2.34791 0 0)
(2.34785 0 0)
(2.3478 0 0)
(2.34776 0 0)
(2.34771 0 0)
(2.34767 0 0)
(2.34762 0 0)
(2.34758 0 0)
(2.34753 0 0)
(2.34749 0 0)
(2.34745 0 0)
(2.3474 0 0)
(2.34736 0 0)
(2.34732 0 0)
(2.34727 0 0)
(2.34723 0 0)
(2.34718 0 0)
(2.34714 0 0)
(2.34709 0 0)
(2.34705 0 0)
(2.347 0 0)
(2.34695 0 0)
(2.34691 0 0)
(2.34686 0 0)
(2.34682 0 0)
(2.34677 0 0)
(2.34672 0 0)
(2.34667 0 0)
(2.34663 0 0)
(2.34658 0 0)
(2.34653 0 0)
(2.34648 0 0)
(2.34643 0 0)
(2.34638 0 0)
(2.34633 0 0)
(2.34628 0 0)
(2.34623 0 0)
(2.34618 0 0)
(2.34613 0 0)
(2.34608 0 0)
(2.34603 0 0)
(2.34598 0 0)
(2.34593 0 0)
(2.34587 0 0)
(2.34582 0 0)
(2.34577 0 0)
(2.34571 0 0)
(2.34566 0 0)
(2.3456 0 0)
(2.34555 0 0)
(2.34549 0 0)
(2.34544 0 0)
(2.34538 0 0)
(2.34532 0 0)
(2.34527 0 0)
(2.34521 0 0)
(2.34515 0 0)
(2.34509 0 0)
(2.34504 0 0)
(2.34498 0 0)
(2.34492 0 0)
(2.34486 0 0)
(2.3448 0 0)
(2.34473 0 0)
(2.34467 0 0)
(2.34461 0 0)
(2.34455 0 0)
(2.34449 0 0)
(2.34442 0 0)
(2.34436 0 0)
(2.34429 0 0)
(2.34423 0 0)
(2.34416 0 0)
(2.3441 0 0)
(2.34403 0 0)
(2.34396 0 0)
(2.34389 0 0)
(2.34383 0 0)
(2.34376 0 0)
(2.34369 0 0)
(2.34362 0 0)
(2.34355 0 0)
(2.34348 0 0)
(2.3434 0 0)
(2.34333 0 0)
(2.34326 0 0)
(2.34318 0 0)
(2.34311 0 0)
(2.34304 0 0)
(2.34296 0 0)
(2.34288 0 0)
(2.34281 0 0)
(2.34273 0 0)
(2.34265 0 0)
(2.34257 0 0)
(2.34249 0 0)
(2.34241 0 0)
(2.34233 0 0)
(2.34225 0 0)
(2.34217 0 0)
(2.34209 0 0)
(2.342 0 0)
(2.34191 0 0)
(2.34183 0 0)
(2.34175 0 0)
(2.34167 0 0)
(2.34158 0 0)
(2.34149 0 0)
(2.3414 0 0)
(2.34131 0 0)
(2.34123 0 0)
(2.34114 0 0)
(2.34105 0 0)
(2.34095 0 0)
(2.34086 0 0)
(2.34077 0 0)
(2.34068 0 0)
(2.34058 0 0)
(2.34049 0 0)
(2.34039 0 0)
(2.34029 0 0)
(2.3402 0 0)
(2.3401 0 0)
(2.34 0 0)
(2.3399 0 0)
(2.3398 0 0)
(2.3397 0 0)
(2.33959 0 0)
(2.33949 0 0)
(2.33939 0 0)
(2.33928 0 0)
(2.33918 0 0)
(2.33907 0 0)
(2.33896 0 0)
(2.33886 0 0)
(2.33875 0 0)
(2.33864 0 0)
(2.33853 0 0)
(2.33842 0 0)
(2.33831 0 0)
(2.33819 0 0)
(2.33808 0 0)
(2.33796 0 0)
(2.33785 0 0)
(2.33773 0 0)
(2.33762 0 0)
(2.3375 0 0)
(2.33738 0 0)
(2.33726 0 0)
(2.33714 0 0)
(2.33702 0 0)
(2.33689 0 0)
(2.33677 0 0)
(2.33665 0 0)
(2.33652 0 0)
(2.33639 0 0)
(2.33627 0 0)
(2.33614 0 0)
(2.33601 0 0)
(2.33588 0 0)
(2.33575 0 0)
(2.33562 0 0)
(2.33548 0 0)
(2.33535 0 0)
(2.33521 0 0)
(2.33508 0 0)
(2.33494 0 0)
(2.3348 0 0)
(2.33466 0 0)
(2.33452 0 0)
(2.33438 0 0)
(2.33424 0 0)
(2.33409 0 0)
(2.33395 0 0)
(2.3338 0 0)
(2.33365 0 0)
(2.3335 0 0)
(2.33335 0 0)
(2.3332 0 0)
(2.33305 0 0)
(2.33289 0 0)
(2.33274 0 0)
(2.33258 0 0)
(2.33242 0 0)
(2.33226 0 0)
(2.3321 0 0)
(2.33193 0 0)
(2.33177 0 0)
(2.3316 0 0)
(2.33144 0 0)
(2.33127 0 0)
(2.33109 0 0)
(2.33092 0 0)
(2.33075 0 0)
(2.33057 0 0)
(2.33039 0 0)
(2.33021 0 0)
(2.33003 0 0)
(2.32985 0 0)
(2.32966 0 0)
(2.32948 0 0)
(2.32929 0 0)
(2.3291 0 0)
(2.3289 0 0)
(2.32871 0 0)
(2.32851 0 0)
(2.32831 0 0)
(2.32811 0 0)
(2.32791 0 0)
(2.32771 0 0)
(2.3275 0 0)
(2.32729 0 0)
(2.32708 0 0)
(2.32687 0 0)
(2.32665 0 0)
(2.32644 0 0)
(2.32622 0 0)
(2.326 0 0)
(2.32577 0 0)
(2.32555 0 0)
(2.32532 0 0)
(2.32509 0 0)
(2.32486 0 0)
(2.32463 0 0)
(2.32439 0 0)
(2.32415 0 0)
(2.32391 0 0)
(2.32367 0 0)
(2.32341 0 0)
(2.32317 0 0)
(2.32294 0 0)
(2.32269 0 0)
(2.32243 0 0)
(2.32217 0 0)
(2.32192 0 0)
(2.32166 0 0)
(2.3214 0 0)
(2.32114 0 0)
(2.32088 0 0)
(2.32061 0 0)
(2.32035 0 0)
(2.32008 0 0)
(2.3198 0 0)
(2.31953 0 0)
(2.31925 0 0)
(2.31897 0 0)
(2.31869 0 0)
(2.31844 0 0)
(2.31821 0 0)
(2.31838 0 0)
(2.31951 0 0)
(2.32389 0 0)
(2.33773 0 0)
(2.37548 0 0)
(2.46835 0 0)
(2.68372 0 0)
(3.14448 0 0)
(4.01417 0 0)
(5.18564 0 0)
(6.4238 0 0)
(7.57074 0 0)
(8.58078 0 0)
(9.44368 0 0)
(10.1576 0 0)
(10.7454 0 0)
(11.234 0 0)
(11.6305 0 0)
(11.9465 0 0)
(12.2068 0 0)
(12.4308 0 0)
(12.6276 0 0)
(12.8022 0 0)
(12.9584 0 0)
(13.0992 0 0)
(13.2272 0 0)
(13.3443 0 0)
(13.452 0 0)
(13.5516 0 0)
(13.6439 0 0)
(13.73 0 0)
(13.8104 0 0)
(13.8858 0 0)
(13.9566 0 0)
(14.0234 0 0)
(14.0864 0 0)
(14.1459 0 0)
(14.2024 0 0)
(14.2559 0 0)
(14.3067 0 0)
(14.3537 0 0)
(14.3976 0 0)
(14.44 0 0)
(14.4808 0 0)
(14.5201 0 0)
(14.558 0 0)
(14.5945 0 0)
(14.6299 0 0)
(14.6642 0 0)
(14.6973 0 0)
(14.7295 0 0)
(14.7607 0 0)
(14.7911 0 0)
(14.8206 0 0)
(14.8494 0 0)
(14.8774 0 0)
(14.9048 0 0)
(14.9315 0 0)
(14.9576 0 0)
(14.9831 0 0)
(15.008 0 0)
(15.0324 0 0)
(15.0563 0 0)
(15.0796 0 0)
(15.1024 0 0)
(15.1247 0 0)
(15.1464 0 0)
(15.1676 0 0)
(15.1882 0 0)
(15.2082 0 0)
(15.2275 0 0)
(15.2462 0 0)
(15.2643 0 0)
(15.2816 0 0)
(15.2981 0 0)
(15.3139 0 0)
(15.3288 0 0)
(15.3429 0 0)
(15.3562 0 0)
(15.3685 0 0)
(15.38 0 0)
(15.3905 0 0)
(15.4001 0 0)
(15.4088 0 0)
(15.4165 0 0)
(15.4234 0 0)
(15.4293 0 0)
(15.4344 0 0)
(15.4387 0 0)
(15.4421 0 0)
(15.4448 0 0)
(15.4469 0 0)
(15.4482 0 0)
(15.449 0 0)
(15.4492 0 0)
(15.449 0 0)
(15.4483 0 0)
(15.4473 0 0)
(15.4461 0 0)
(15.4445 0 0)
(15.4428 0 0)
(15.4409 0 0)
(15.439 0 0)
(15.4372 0 0)
(15.4352 0 0)
(15.4337 0 0)
(15.4315 0 0)
(15.43 0 0)
(15.4283 0 0)
(15.4268 0 0)
(15.4255 0 0)
(15.4244 0 0)
(15.4234 0 0)
(15.4227 0 0)
(15.4221 0 0)
(15.4217 0 0)
(15.4215 0 0)
(15.4215 0 0)
(15.4215 0 0)
(15.4218 0 0)
(15.4221 0 0)
(15.4226 0 0)
(15.4231 0 0)
(15.4237 0 0)
(15.4244 0 0)
(15.4251 0 0)
(15.4259 0 0)
(15.4266 0 0)
(15.4274 0 0)
(15.4282 0 0)
(15.4289 0 0)
(15.4297 0 0)
(15.4304 0 0)
(15.4311 0 0)
(15.4317 0 0)
(15.4323 0 0)
(15.4328 0 0)
(15.4333 0 0)
(15.4338 0 0)
(15.4342 0 0)
(15.4345 0 0)
(15.4347 0 0)
(15.435 0 0)
(15.4351 0 0)
(15.4352 0 0)
(15.4353 0 0)
(15.4353 0 0)
(15.4352 0 0)
(15.4351 0 0)
(15.435 0 0)
(15.4348 0 0)
(15.4345 0 0)
(15.4343 0 0)
(15.434 0 0)
(15.4336 0 0)
(15.4333 0 0)
(15.4329 0 0)
(15.4324 0 0)
(15.432 0 0)
(15.4315 0 0)
(15.431 0 0)
(15.4305 0 0)
(15.43 0 0)
(15.4295 0 0)
(15.4289 0 0)
(15.4283 0 0)
(15.4277 0 0)
(15.4271 0 0)
(15.4265 0 0)
(15.4259 0 0)
(15.4253 0 0)
(15.4247 0 0)
(15.424 0 0)
(15.4234 0 0)
(15.4227 0 0)
(15.4221 0 0)
(15.4214 0 0)
(15.4207 0 0)
(15.4201 0 0)
(15.4194 0 0)
(15.4187 0 0)
(15.418 0 0)
(15.4173 0 0)
(15.4166 0 0)
(15.4159 0 0)
(15.4152 0 0)
(15.4145 0 0)
(15.4138 0 0)
(15.4131 0 0)
(15.4123 0 0)
(15.4116 0 0)
(15.4109 0 0)
(15.4101 0 0)
(15.4094 0 0)
(15.4087 0 0)
(15.4079 0 0)
(15.4072 0 0)
(15.4064 0 0)
(15.4057 0 0)
(15.4049 0 0)
(15.4042 0 0)
(15.4034 0 0)
(15.4026 0 0)
(15.4019 0 0)
(15.4011 0 0)
(15.4003 0 0)
(15.3995 0 0)
(15.3987 0 0)
(15.398 0 0)
(15.3972 0 0)
(15.3964 0 0)
(15.3956 0 0)
(15.3948 0 0)
(15.394 0 0)
(15.3931 0 0)
(15.3923 0 0)
(15.3915 0 0)
(15.3907 0 0)
(15.3899 0 0)
(15.3891 0 0)
(15.3882 0 0)
(15.3874 0 0)
(15.3866 0 0)
(15.3857 0 0)
(15.3849 0 0)
(15.384 0 0)
(15.3831 0 0)
(15.382 0 0)
)
;

boundaryField
{
    boundary
    {
        type            empty;
    }
    inlet
    {
        type            fixedValue;
        value           uniform (2.34893 0 0);
    }
    outlet
    {
        type            zeroGradient;
    }
}


// ************************************************************************* //
