/*--------------------------------*- C++ -*----------------------------------*\
  =========                 |
  \\      /  F ield         | OpenFOAM: The Open Source CFD Toolbox
   \\    /   O peration     | Website:  https://openfoam.org
    \\  /    A nd           | Version:  7
     \\/     M anipulation  |
\*---------------------------------------------------------------------------*/
FoamFile
{
    version     2.0;
    format      ascii;
    class       volScalarField;
    location    "0.00018";
    object      p;
}
// * * * * * * * * * * * * * * * * * * * * * * * * * * * * * * * * * * * * * //

dimensions      [1 -1 -2 0 0 0 0];

internalField   nonuniform List<scalar> 
124
(
103046
103046
103046
103046
103046
103046
103045
103045
103045
103045
103045
103045
103045
103045
103045
103045
103045
103045
103045
103045
103045
103045
103045
103045
103045
103045
103045
103045
103045
103045
103045
103045
103044
103044
103044
103044
103044
103044
103044
103044
103044
103044
103044
103044
103044
103044
103044
103044
103044
103044
103044
103044
103044
103043
103043
103043
103043
103043
103043
103043
103043
103043
103043
103043
103043
103043
103043
103043
103043
103043
103043
103043
103042
103042
103042
103042
103042
103042
103042
103042
103042
103042
103042
103042
103042
103042
103042
103042
103042
103041
103041
103041
103041
103041
103041
103041
103041
103041
103041
103041
103041
103041
103041
103041
103040
103040
103040
103040
103040
103040
103040
103040
103040
103040
103040
103040
103040
103040
103039
103039
103039
103039
103039
103039
)
;

boundaryField
{
    boundary
    {
        type            empty;
    }
    inlet
    {
        type            zeroGradient;
    }
    outlet
    {
        type            waveTransmissive;
        gamma           1.4;
        value           uniform 103039;
    }
    procBoundary0to1
    {
        type            processor;
        value           uniform 103046;
    }
}


// ************************************************************************* //
