/*--------------------------------*- C++ -*----------------------------------*\
  =========                 |
  \\      /  F ield         | OpenFOAM: The Open Source CFD Toolbox
   \\    /   O peration     | Website:  https://openfoam.org
    \\  /    A nd           | Version:  7
     \\/     M anipulation  |
\*---------------------------------------------------------------------------*/
FoamFile
{
    version     2.0;
    format      ascii;
    class       volScalarField;
    location    "1e-05";
    object      H;
}
// * * * * * * * * * * * * * * * * * * * * * * * * * * * * * * * * * * * * * //

dimensions      [0 0 0 0 0 0 0];

internalField   nonuniform List<scalar> 
125
(
1.44753e-41
2.01574e-41
2.15103e-41
2.18325e-41
2.19094e-41
2.19278e-41
2.19322e-41
2.19333e-41
2.19336e-41
2.19337e-41
2.19338e-41
2.19339e-41
2.1934e-41
2.19341e-41
2.19342e-41
2.19343e-41
2.19344e-41
2.19345e-41
2.19347e-41
2.19348e-41
2.19349e-41
2.19351e-41
2.19353e-41
2.19354e-41
2.19356e-41
2.19358e-41
2.1936e-41
2.19362e-41
2.19365e-41
2.19367e-41
2.19369e-41
2.19372e-41
2.19375e-41
2.19378e-41
2.1938e-41
2.19384e-41
2.19387e-41
2.1939e-41
2.19394e-41
2.19397e-41
2.19401e-41
2.19405e-41
2.19409e-41
2.19413e-41
2.19418e-41
2.19423e-41
2.19427e-41
2.19433e-41
2.19438e-41
2.19443e-41
2.19449e-41
2.19455e-41
2.19461e-41
2.19467e-41
2.19474e-41
2.19481e-41
2.19488e-41
2.19495e-41
2.19503e-41
2.19511e-41
2.19519e-41
2.19528e-41
2.19537e-41
2.19546e-41
2.19556e-41
2.19566e-41
2.19576e-41
2.19587e-41
2.19598e-41
2.1961e-41
2.19622e-41
2.19634e-41
2.19647e-41
2.19661e-41
2.19675e-41
2.19689e-41
2.19704e-41
2.1972e-41
2.19736e-41
2.19753e-41
2.1977e-41
2.19788e-41
2.19807e-41
2.19826e-41
2.19846e-41
2.19867e-41
2.19888e-41
2.19911e-41
2.19934e-41
2.19958e-41
2.19982e-41
2.20008e-41
2.20035e-41
2.20062e-41
2.20091e-41
2.20121e-41
2.20151e-41
2.20183e-41
2.20216e-41
2.2025e-41
2.20286e-41
2.20322e-41
2.2036e-41
2.204e-41
2.2044e-41
2.20482e-41
2.20526e-41
2.20571e-41
2.20618e-41
2.20666e-41
2.20716e-41
2.20768e-41
2.20821e-41
2.20877e-41
2.20934e-41
2.20994e-41
2.21055e-41
2.21118e-41
2.21184e-41
2.21252e-41
2.21321e-41
2.21391e-41
2.21458e-41
2.21515e-41
2.2156e-41
)
;

boundaryField
{
    boundary
    {
        type            empty;
    }
    inlet
    {
        type            fixedValue;
        value           uniform 0;
    }
    outlet
    {
        type            zeroGradient;
    }
    procBoundary2to3
    {
        type            processor;
        value           uniform 2.21616e-41;
    }
}


// ************************************************************************* //
