/*--------------------------------*- C++ -*----------------------------------*\
  =========                 |
  \\      /  F ield         | OpenFOAM: The Open Source CFD Toolbox
   \\    /   O peration     | Website:  https://openfoam.org
    \\  /    A nd           | Version:  7
     \\/     M anipulation  |
\*---------------------------------------------------------------------------*/
FoamFile
{
    version     2.0;
    format      ascii;
    class       volScalarField;
    location    "1e-05";
    object      H2O;
}
// * * * * * * * * * * * * * * * * * * * * * * * * * * * * * * * * * * * * * //

dimensions      [0 0 0 0 0 0 0];

internalField   nonuniform List<scalar> 
125
(
2.31092e-48
3.88157e-48
4.49095e-48
4.68786e-48
4.74435e-48
4.7593e-48
4.76305e-48
4.76395e-48
4.76417e-48
4.76422e-48
4.76424e-48
4.76425e-48
4.76425e-48
4.76426e-48
4.76426e-48
4.76427e-48
4.76427e-48
4.76428e-48
4.76429e-48
4.76429e-48
4.7643e-48
4.76431e-48
4.76432e-48
4.76433e-48
4.76434e-48
4.76435e-48
4.76436e-48
4.76437e-48
4.76438e-48
4.76439e-48
4.76441e-48
4.76442e-48
4.76444e-48
4.76445e-48
4.76447e-48
4.76448e-48
4.7645e-48
4.76452e-48
4.76454e-48
4.76456e-48
4.76458e-48
4.7646e-48
4.76462e-48
4.76464e-48
4.76467e-48
4.76469e-48
4.76472e-48
4.76474e-48
4.76477e-48
4.7648e-48
4.76483e-48
4.76486e-48
4.7649e-48
4.76493e-48
4.76497e-48
4.765e-48
4.76504e-48
4.76508e-48
4.76512e-48
4.76517e-48
4.76521e-48
4.76526e-48
4.7653e-48
4.76535e-48
4.76541e-48
4.76546e-48
4.76552e-48
4.76557e-48
4.76564e-48
4.7657e-48
4.76576e-48
4.76583e-48
4.7659e-48
4.76597e-48
4.76605e-48
4.76613e-48
4.76621e-48
4.76629e-48
4.76638e-48
4.76647e-48
4.76656e-48
4.76666e-48
4.76676e-48
4.76687e-48
4.76698e-48
4.76709e-48
4.76721e-48
4.76733e-48
4.76745e-48
4.76758e-48
4.76772e-48
4.76786e-48
4.768e-48
4.76816e-48
4.76831e-48
4.76847e-48
4.76864e-48
4.76882e-48
4.769e-48
4.76918e-48
4.76938e-48
4.76958e-48
4.76978e-48
4.77e-48
4.77022e-48
4.77045e-48
4.77069e-48
4.77094e-48
4.7712e-48
4.77147e-48
4.77174e-48
4.77203e-48
4.77232e-48
4.77263e-48
4.77295e-48
4.77327e-48
4.77361e-48
4.77397e-48
4.77433e-48
4.7747e-48
4.77502e-48
4.77496e-48
4.7718e-48
4.74521e-48
4.56422e-48
)
;

boundaryField
{
    boundary
    {
        type            empty;
    }
    inlet
    {
        type            fixedValue;
        value           uniform 0;
    }
    outlet
    {
        type            zeroGradient;
    }
    procBoundary2to3
    {
        type            processor;
        value           uniform 4.21994e-48;
    }
}


// ************************************************************************* //
