/*--------------------------------*- C++ -*----------------------------------*\
  =========                 |
  \\      /  F ield         | OpenFOAM: The Open Source CFD Toolbox
   \\    /   O peration     | Website:  https://openfoam.org
    \\  /    A nd           | Version:  7
     \\/     M anipulation  |
\*---------------------------------------------------------------------------*/
FoamFile
{
    version     2.0;
    format      ascii;
    class       volScalarField;
    location    "1e-05";
    object      H2O2;
}
// * * * * * * * * * * * * * * * * * * * * * * * * * * * * * * * * * * * * * //

dimensions      [0 0 0 0 0 0 0];

internalField   nonuniform List<scalar> 
125
(
3.88587e-53
6.45827e-53
7.43085e-53
7.73461e-53
7.81831e-53
7.83946e-53
7.84449e-53
7.84564e-53
7.8459e-53
7.84596e-53
7.84598e-53
7.84599e-53
7.846e-53
7.84601e-53
7.84603e-53
7.84604e-53
7.84605e-53
7.84607e-53
7.84609e-53
7.8461e-53
7.84612e-53
7.84614e-53
7.84616e-53
7.84618e-53
7.8462e-53
7.84623e-53
7.84625e-53
7.84628e-53
7.84631e-53
7.84634e-53
7.84637e-53
7.8464e-53
7.84643e-53
7.84647e-53
7.8465e-53
7.84654e-53
7.84658e-53
7.84662e-53
7.84667e-53
7.84671e-53
7.84676e-53
7.84681e-53
7.84686e-53
7.84691e-53
7.84697e-53
7.84703e-53
7.84709e-53
7.84715e-53
7.84722e-53
7.84728e-53
7.84735e-53
7.84743e-53
7.8475e-53
7.84758e-53
7.84767e-53
7.84775e-53
7.84784e-53
7.84793e-53
7.84803e-53
7.84813e-53
7.84823e-53
7.84834e-53
7.84845e-53
7.84857e-53
7.84869e-53
7.84881e-53
7.84894e-53
7.84908e-53
7.84922e-53
7.84936e-53
7.84951e-53
7.84967e-53
7.84983e-53
7.85e-53
7.85017e-53
7.85035e-53
7.85054e-53
7.85074e-53
7.85094e-53
7.85115e-53
7.85137e-53
7.85159e-53
7.85183e-53
7.85207e-53
7.85232e-53
7.85258e-53
7.85285e-53
7.85313e-53
7.85342e-53
7.85372e-53
7.85404e-53
7.85436e-53
7.85469e-53
7.85504e-53
7.8554e-53
7.85578e-53
7.85616e-53
7.85657e-53
7.85698e-53
7.85741e-53
7.85786e-53
7.85832e-53
7.8588e-53
7.8593e-53
7.85981e-53
7.86035e-53
7.8609e-53
7.86147e-53
7.86206e-53
7.86267e-53
7.86331e-53
7.86397e-53
7.86465e-53
7.86535e-53
7.86608e-53
7.86684e-53
7.86762e-53
7.86843e-53
7.86927e-53
7.87013e-53
7.87098e-53
7.87161e-53
7.87017e-53
7.85339e-53
7.74478e-53
)
;

boundaryField
{
    boundary
    {
        type            empty;
    }
    inlet
    {
        type            fixedValue;
        value           uniform 0;
    }
    outlet
    {
        type            zeroGradient;
    }
    procBoundary2to3
    {
        type            processor;
        value           uniform 7.55597e-53;
    }
}


// ************************************************************************* //
