/*--------------------------------*- C++ -*----------------------------------*\
  =========                 |
  \\      /  F ield         | OpenFOAM: The Open Source CFD Toolbox
   \\    /   O peration     | Website:  https://openfoam.org
    \\  /    A nd           | Version:  7
     \\/     M anipulation  |
\*---------------------------------------------------------------------------*/
FoamFile
{
    version     2.0;
    format      ascii;
    class       volScalarField;
    location    "1e-05";
    object      HO2;
}
// * * * * * * * * * * * * * * * * * * * * * * * * * * * * * * * * * * * * * //

dimensions      [0 0 0 0 0 0 0];

internalField   nonuniform List<scalar> 
125
(
2.83416e-38
4.31414e-38
4.81121e-38
4.95622e-38
4.9946e-38
5.00408e-38
5.00632e-38
5.00683e-38
5.00695e-38
5.00698e-38
5.00699e-38
5.007e-38
5.00701e-38
5.00701e-38
5.00702e-38
5.00703e-38
5.00703e-38
5.00704e-38
5.00705e-38
5.00706e-38
5.00707e-38
5.00708e-38
5.00709e-38
5.0071e-38
5.00712e-38
5.00713e-38
5.00714e-38
5.00716e-38
5.00717e-38
5.00719e-38
5.00721e-38
5.00722e-38
5.00724e-38
5.00726e-38
5.00728e-38
5.0073e-38
5.00733e-38
5.00735e-38
5.00737e-38
5.0074e-38
5.00742e-38
5.00745e-38
5.00748e-38
5.00751e-38
5.00754e-38
5.00757e-38
5.0076e-38
5.00764e-38
5.00767e-38
5.00771e-38
5.00775e-38
5.00779e-38
5.00783e-38
5.00788e-38
5.00792e-38
5.00797e-38
5.00802e-38
5.00807e-38
5.00812e-38
5.00818e-38
5.00823e-38
5.00829e-38
5.00835e-38
5.00842e-38
5.00849e-38
5.00855e-38
5.00863e-38
5.0087e-38
5.00878e-38
5.00886e-38
5.00894e-38
5.00903e-38
5.00912e-38
5.00921e-38
5.0093e-38
5.0094e-38
5.00951e-38
5.00961e-38
5.00973e-38
5.00984e-38
5.00996e-38
5.01009e-38
5.01021e-38
5.01035e-38
5.01049e-38
5.01063e-38
5.01078e-38
5.01093e-38
5.0111e-38
5.01126e-38
5.01143e-38
5.01161e-38
5.0118e-38
5.01199e-38
5.01219e-38
5.01239e-38
5.01261e-38
5.01283e-38
5.01306e-38
5.0133e-38
5.01354e-38
5.0138e-38
5.01406e-38
5.01433e-38
5.01462e-38
5.01491e-38
5.01522e-38
5.01553e-38
5.01586e-38
5.0162e-38
5.01655e-38
5.01691e-38
5.01728e-38
5.01767e-38
5.01807e-38
5.01849e-38
5.01892e-38
5.01937e-38
5.01983e-38
5.0203e-38
5.02077e-38
5.02111e-38
5.02044e-38
5.01257e-38
4.95192e-38
)
;

boundaryField
{
    boundary
    {
        type            empty;
    }
    inlet
    {
        type            fixedValue;
        value           uniform 0;
    }
    outlet
    {
        type            zeroGradient;
    }
    procBoundary2to3
    {
        type            processor;
        value           uniform 4.83519e-38;
    }
}


// ************************************************************************* //
