/*--------------------------------*- C++ -*----------------------------------*\
  =========                 |
  \\      /  F ield         | OpenFOAM: The Open Source CFD Toolbox
   \\    /   O peration     | Website:  https://openfoam.org
    \\  /    A nd           | Version:  7
     \\/     M anipulation  |
\*---------------------------------------------------------------------------*/
FoamFile
{
    version     2.0;
    format      ascii;
    class       volScalarField;
    location    "1e-05";
    object      O;
}
// * * * * * * * * * * * * * * * * * * * * * * * * * * * * * * * * * * * * * //

dimensions      [0 0 0 0 0 0 0];

internalField   nonuniform List<scalar> 
125
(
7.96922e-48
1.28537e-47
1.46524e-47
1.5229e-47
1.53969e-47
1.54425e-47
1.54544e-47
1.54574e-47
1.54581e-47
1.54583e-47
1.54584e-47
1.54584e-47
1.54584e-47
1.54584e-47
1.54585e-47
1.54585e-47
1.54585e-47
1.54585e-47
1.54586e-47
1.54586e-47
1.54586e-47
1.54587e-47
1.54587e-47
1.54588e-47
1.54588e-47
1.54589e-47
1.54589e-47
1.5459e-47
1.5459e-47
1.54591e-47
1.54591e-47
1.54592e-47
1.54593e-47
1.54593e-47
1.54594e-47
1.54595e-47
1.54596e-47
1.54597e-47
1.54597e-47
1.54598e-47
1.54599e-47
1.546e-47
1.54601e-47
1.54602e-47
1.54603e-47
1.54605e-47
1.54606e-47
1.54607e-47
1.54608e-47
1.5461e-47
1.54611e-47
1.54613e-47
1.54614e-47
1.54616e-47
1.54617e-47
1.54619e-47
1.54621e-47
1.54623e-47
1.54625e-47
1.54627e-47
1.54629e-47
1.54631e-47
1.54633e-47
1.54636e-47
1.54638e-47
1.54641e-47
1.54643e-47
1.54646e-47
1.54649e-47
1.54652e-47
1.54655e-47
1.54658e-47
1.54661e-47
1.54665e-47
1.54668e-47
1.54672e-47
1.54675e-47
1.54679e-47
1.54684e-47
1.54688e-47
1.54692e-47
1.54697e-47
1.54701e-47
1.54706e-47
1.54711e-47
1.54717e-47
1.54722e-47
1.54728e-47
1.54734e-47
1.5474e-47
1.54746e-47
1.54753e-47
1.54759e-47
1.54766e-47
1.54774e-47
1.54781e-47
1.54789e-47
1.54797e-47
1.54806e-47
1.54814e-47
1.54823e-47
1.54833e-47
1.54843e-47
1.54853e-47
1.54863e-47
1.54874e-47
1.54885e-47
1.54897e-47
1.54909e-47
1.54921e-47
1.54934e-47
1.54947e-47
1.54961e-47
1.54975e-47
1.5499e-47
1.55006e-47
1.55021e-47
1.55038e-47
1.55055e-47
1.55072e-47
1.55087e-47
1.55087e-47
1.54988e-47
1.54369e-47
1.51956e-47
)
;

boundaryField
{
    boundary
    {
        type            empty;
    }
    inlet
    {
        type            fixedValue;
        value           uniform 0;
    }
    outlet
    {
        type            zeroGradient;
    }
    procBoundary2to3
    {
        type            processor;
        value           uniform 1.49185e-47;
    }
}


// ************************************************************************* //
