/*--------------------------------*- C++ -*----------------------------------*\
  =========                 |
  \\      /  F ield         | OpenFOAM: The Open Source CFD Toolbox
   \\    /   O peration     | Website:  https://openfoam.org
    \\  /    A nd           | Version:  7
     \\/     M anipulation  |
\*---------------------------------------------------------------------------*/
FoamFile
{
    version     2.0;
    format      ascii;
    class       volScalarField;
    location    "1e-05";
    object      OH;
}
// * * * * * * * * * * * * * * * * * * * * * * * * * * * * * * * * * * * * * //

dimensions      [0 0 0 0 0 0 0];

internalField   nonuniform List<scalar> 
125
(
6.4412e-48
1.01072e-47
1.13976e-47
1.17989e-47
1.19135e-47
1.19442e-47
1.19521e-47
1.19541e-47
1.19546e-47
1.19548e-47
1.19548e-47
1.19548e-47
1.19548e-47
1.19549e-47
1.19549e-47
1.19549e-47
1.19549e-47
1.1955e-47
1.1955e-47
1.1955e-47
1.1955e-47
1.19551e-47
1.19551e-47
1.19552e-47
1.19552e-47
1.19552e-47
1.19553e-47
1.19553e-47
1.19554e-47
1.19554e-47
1.19555e-47
1.19555e-47
1.19556e-47
1.19556e-47
1.19557e-47
1.19558e-47
1.19558e-47
1.19559e-47
1.1956e-47
1.19561e-47
1.19562e-47
1.19562e-47
1.19563e-47
1.19564e-47
1.19565e-47
1.19566e-47
1.19567e-47
1.19568e-47
1.19569e-47
1.19571e-47
1.19572e-47
1.19573e-47
1.19574e-47
1.19576e-47
1.19577e-47
1.19579e-47
1.1958e-47
1.19582e-47
1.19584e-47
1.19585e-47
1.19587e-47
1.19589e-47
1.19591e-47
1.19593e-47
1.19595e-47
1.19597e-47
1.19599e-47
1.19602e-47
1.19604e-47
1.19607e-47
1.19609e-47
1.19612e-47
1.19615e-47
1.19618e-47
1.19621e-47
1.19624e-47
1.19627e-47
1.19631e-47
1.19634e-47
1.19638e-47
1.19642e-47
1.19645e-47
1.1965e-47
1.19654e-47
1.19658e-47
1.19663e-47
1.19667e-47
1.19672e-47
1.19677e-47
1.19683e-47
1.19688e-47
1.19694e-47
1.197e-47
1.19706e-47
1.19712e-47
1.19718e-47
1.19725e-47
1.19732e-47
1.19739e-47
1.19747e-47
1.19755e-47
1.19763e-47
1.19771e-47
1.1978e-47
1.19789e-47
1.19798e-47
1.19808e-47
1.19818e-47
1.19828e-47
1.19839e-47
1.1985e-47
1.19861e-47
1.19873e-47
1.19886e-47
1.19898e-47
1.19912e-47
1.19925e-47
1.19939e-47
1.19954e-47
1.19969e-47
1.19983e-47
1.19986e-47
1.19926e-47
1.19548e-47
1.17933e-47
)
;

boundaryField
{
    boundary
    {
        type            empty;
    }
    inlet
    {
        type            fixedValue;
        value           uniform 0;
    }
    outlet
    {
        type            zeroGradient;
    }
    procBoundary2to3
    {
        type            processor;
        value           uniform 1.16055e-47;
    }
}


// ************************************************************************* //
