/*--------------------------------*- C++ -*----------------------------------*\
  =========                 |
  \\      /  F ield         | OpenFOAM: The Open Source CFD Toolbox
   \\    /   O peration     | Website:  https://openfoam.org
    \\  /    A nd           | Version:  7
     \\/     M anipulation  |
\*---------------------------------------------------------------------------*/
FoamFile
{
    version     2.0;
    format      ascii;
    class       volScalarField;
    location    "1e-05";
    object      p;
}
// * * * * * * * * * * * * * * * * * * * * * * * * * * * * * * * * * * * * * //

dimensions      [1 -1 -2 0 0 0 0];

internalField   nonuniform List<scalar> 
125
(
101330
101330
101330
101330
101330
101330
101330
101330
101330
101330
101330
101330
101330
101330
101330
101331
101331
101331
101331
101331
101331
101331
101331
101332
101332
101332
101332
101332
101333
101333
101333
101333
101334
101334
101334
101334
101335
101335
101335
101336
101336
101336
101337
101337
101337
101338
101338
101339
101339
101340
101340
101341
101341
101342
101342
101343
101344
101344
101345
101346
101346
101347
101348
101349
101350
101350
101351
101352
101353
101354
101355
101356
101357
101358
101359
101361
101362
101363
101364
101366
101367
101368
101370
101371
101373
101375
101376
101378
101380
101381
101383
101385
101387
101389
101391
101394
101396
101398
101400
101403
101405
101408
101410
101413
101416
101419
101422
101425
101428
101431
101434
101438
101441
101445
101448
101452
101456
101459
101463
101468
101472
101476
101480
101485
101489
)
;

boundaryField
{
    boundary
    {
        type            empty;
    }
    inlet
    {
        type            zeroGradient;
    }
    outlet
    {
        type            waveTransmissive;
        gamma           1.4;
        value           nonuniform 0();
    }
    procBoundary2to3
    {
        type            processor;
        value           uniform 101494;
    }
}


// ************************************************************************* //
