/*--------------------------------*- C++ -*----------------------------------*\
  =========                 |
  \\      /  F ield         | OpenFOAM: The Open Source CFD Toolbox
   \\    /   O peration     | Website:  https://openfoam.org
    \\  /    A nd           | Version:  7
     \\/     M anipulation  |
\*---------------------------------------------------------------------------*/
FoamFile
{
    version     2.0;
    format      ascii;
    class       surfaceScalarField;
    location    "1e-05";
    object      phi;
}
// * * * * * * * * * * * * * * * * * * * * * * * * * * * * * * * * * * * * * //

dimensions      [1 0 -1 0 0 0 0];

internalField   nonuniform List<scalar> 
124
(
6.8076e-06
6.80599e-06
6.80438e-06
6.80276e-06
6.80114e-06
6.79951e-06
6.79786e-06
6.7962e-06
6.79453e-06
6.79283e-06
6.79111e-06
6.78937e-06
6.7876e-06
6.78581e-06
6.78398e-06
6.78212e-06
6.78023e-06
6.7783e-06
6.77633e-06
6.77432e-06
6.77226e-06
6.77016e-06
6.76801e-06
6.7658e-06
6.76354e-06
6.76122e-06
6.75884e-06
6.7564e-06
6.75388e-06
6.7513e-06
6.74865e-06
6.74592e-06
6.74312e-06
6.74023e-06
6.73725e-06
6.73419e-06
6.73103e-06
6.72777e-06
6.72442e-06
6.72096e-06
6.71739e-06
6.71371e-06
6.70992e-06
6.706e-06
6.70196e-06
6.69779e-06
6.69348e-06
6.68904e-06
6.68445e-06
6.67972e-06
6.67483e-06
6.66978e-06
6.66457e-06
6.65919e-06
6.65363e-06
6.64789e-06
6.64196e-06
6.63584e-06
6.62952e-06
6.623e-06
6.61626e-06
6.60931e-06
6.60212e-06
6.59471e-06
6.58705e-06
6.57915e-06
6.57099e-06
6.56257e-06
6.55388e-06
6.5449e-06
6.53565e-06
6.52609e-06
6.51623e-06
6.50606e-06
6.49557e-06
6.48475e-06
6.47358e-06
6.46207e-06
6.4502e-06
6.43795e-06
6.42533e-06
6.41232e-06
6.39891e-06
6.38509e-06
6.37084e-06
6.35617e-06
6.34105e-06
6.32548e-06
6.30944e-06
6.29292e-06
6.27592e-06
6.25841e-06
6.2404e-06
6.22185e-06
6.20278e-06
6.18315e-06
6.16296e-06
6.1422e-06
6.12085e-06
6.09891e-06
6.07635e-06
6.05317e-06
6.02936e-06
6.0049e-06
5.97978e-06
5.95398e-06
5.9275e-06
5.90032e-06
5.87243e-06
5.84382e-06
5.81448e-06
5.7844e-06
5.75355e-06
5.72194e-06
5.68955e-06
5.65638e-06
5.6224e-06
5.58762e-06
5.55201e-06
5.51559e-06
5.47832e-06
5.44021e-06
5.40126e-06
5.36144e-06
)
;

boundaryField
{
    boundary
    {
        type            empty;
        value           nonuniform 0();
    }
    inlet
    {
        type            calculated;
        value           uniform -6.80927e-06;
    }
    outlet
    {
        type            calculated;
        value           nonuniform 0();
    }
    procBoundary2to3
    {
        type            processor;
        value           uniform 5.32076e-06;
    }
}


// ************************************************************************* //
