/*--------------------------------*- C++ -*----------------------------------*\
  =========                 |
  \\      /  F ield         | OpenFOAM: The Open Source CFD Toolbox
   \\    /   O peration     | Website:  https://openfoam.org
    \\  /    A nd           | Version:  7
     \\/     M anipulation  |
\*---------------------------------------------------------------------------*/
FoamFile
{
    version     2.0;
    format      ascii;
    class       volScalarField;
    location    "1e-05";
    object      Qdot;
}
// * * * * * * * * * * * * * * * * * * * * * * * * * * * * * * * * * * * * * //

dimensions      [1 -1 -3 0 0 0 0];

internalField   nonuniform List<scalar> 
125
(
-2.35873e-27
-1.81362e-27
-1.68386e-27
-1.65294e-27
-1.64555e-27
-1.64378e-27
-1.64336e-27
-1.64326e-27
-1.64324e-27
-1.64325e-27
-1.64326e-27
-1.64328e-27
-1.64329e-27
-1.64331e-27
-1.64333e-27
-1.64335e-27
-1.64337e-27
-1.6434e-27
-1.64342e-27
-1.64345e-27
-1.64348e-27
-1.64351e-27
-1.64354e-27
-1.64357e-27
-1.64361e-27
-1.64364e-27
-1.64368e-27
-1.64372e-27
-1.64377e-27
-1.64381e-27
-1.64386e-27
-1.64391e-27
-1.64396e-27
-1.64402e-27
-1.64407e-27
-1.64413e-27
-1.64419e-27
-1.64426e-27
-1.64433e-27
-1.6444e-27
-1.64447e-27
-1.64454e-27
-1.64462e-27
-1.64471e-27
-1.64479e-27
-1.64488e-27
-1.64497e-27
-1.64507e-27
-1.64517e-27
-1.64527e-27
-1.64538e-27
-1.64549e-27
-1.64561e-27
-1.64573e-27
-1.64586e-27
-1.64599e-27
-1.64612e-27
-1.64626e-27
-1.64641e-27
-1.64656e-27
-1.64672e-27
-1.64688e-27
-1.64705e-27
-1.64723e-27
-1.64741e-27
-1.6476e-27
-1.64779e-27
-1.648e-27
-1.64821e-27
-1.64843e-27
-1.64865e-27
-1.64889e-27
-1.64913e-27
-1.64939e-27
-1.64965e-27
-1.64992e-27
-1.6502e-27
-1.65049e-27
-1.6508e-27
-1.65111e-27
-1.65143e-27
-1.65177e-27
-1.65212e-27
-1.65248e-27
-1.65285e-27
-1.65324e-27
-1.65364e-27
-1.65406e-27
-1.65449e-27
-1.65493e-27
-1.65539e-27
-1.65587e-27
-1.65637e-27
-1.65688e-27
-1.65741e-27
-1.65796e-27
-1.65852e-27
-1.65911e-27
-1.65972e-27
-1.66035e-27
-1.661e-27
-1.66167e-27
-1.66237e-27
-1.66309e-27
-1.66383e-27
-1.66461e-27
-1.6654e-27
-1.66623e-27
-1.66708e-27
-1.66796e-27
-1.66887e-27
-1.66981e-27
-1.67079e-27
-1.67179e-27
-1.67283e-27
-1.6739e-27
-1.67501e-27
-1.67616e-27
-1.67734e-27
-1.67857e-27
-1.67984e-27
-1.68121e-27
-1.68277e-27
-1.68475e-27
-1.68657e-27
)
;

boundaryField
{
    boundary
    {
        type            empty;
    }
    inlet
    {
        type            calculated;
        value           uniform 0;
    }
    outlet
    {
        type            calculated;
        value           nonuniform 0();
    }
    procBoundary2to3
    {
        type            processor;
        value           uniform 0;
    }
}


// ************************************************************************* //
