/*--------------------------------*- C++ -*----------------------------------*\
  =========                 |
  \\      /  F ield         | OpenFOAM: The Open Source CFD Toolbox
   \\    /   O peration     | Website:  https://openfoam.org
    \\  /    A nd           | Version:  7
     \\/     M anipulation  |
\*---------------------------------------------------------------------------*/
FoamFile
{
    version     2.0;
    format      ascii;
    class       volVectorField;
    location    "1e-05";
    object      U;
}
// * * * * * * * * * * * * * * * * * * * * * * * * * * * * * * * * * * * * * //

dimensions      [0 1 -1 0 0 0 0];

internalField   nonuniform List<vector> 
125
(
(2.34869 0 0)
(2.34809 0 0)
(2.34754 0 0)
(2.34698 0 0)
(2.34642 0 0)
(2.34586 0 0)
(2.3453 0 0)
(2.34473 0 0)
(2.34415 0 0)
(2.34357 0 0)
(2.34298 0 0)
(2.34238 0 0)
(2.34177 0 0)
(2.34115 0 0)
(2.34053 0 0)
(2.33989 0 0)
(2.33924 0 0)
(2.33858 0 0)
(2.3379 0 0)
(2.33722 0 0)
(2.33651 0 0)
(2.33579 0 0)
(2.33505 0 0)
(2.3343 0 0)
(2.33352 0 0)
(2.33273 0 0)
(2.33192 0 0)
(2.33108 0 0)
(2.33022 0 0)
(2.32934 0 0)
(2.32843 0 0)
(2.3275 0 0)
(2.32654 0 0)
(2.32555 0 0)
(2.32454 0 0)
(2.32349 0 0)
(2.32241 0 0)
(2.3213 0 0)
(2.32015 0 0)
(2.31897 0 0)
(2.31775 0 0)
(2.31649 0 0)
(2.3152 0 0)
(2.31386 0 0)
(2.31248 0 0)
(2.31106 0 0)
(2.30959 0 0)
(2.30807 0 0)
(2.3065 0 0)
(2.30489 0 0)
(2.30322 0 0)
(2.30149 0 0)
(2.29971 0 0)
(2.29787 0 0)
(2.29598 0 0)
(2.29402 0 0)
(2.29199 0 0)
(2.2899 0 0)
(2.28775 0 0)
(2.28552 0 0)
(2.28322 0 0)
(2.28084 0 0)
(2.27839 0 0)
(2.27586 0 0)
(2.27324 0 0)
(2.27054 0 0)
(2.26776 0 0)
(2.26488 0 0)
(2.26191 0 0)
(2.25885 0 0)
(2.25569 0 0)
(2.25242 0 0)
(2.24906 0 0)
(2.24558 0 0)
(2.242 0 0)
(2.2383 0 0)
(2.23449 0 0)
(2.23056 0 0)
(2.2265 0 0)
(2.22232 0 0)
(2.218 0 0)
(2.21356 0 0)
(2.20898 0 0)
(2.20425 0 0)
(2.19939 0 0)
(2.19437 0 0)
(2.18921 0 0)
(2.18388 0 0)
(2.1784 0 0)
(2.17276 0 0)
(2.16695 0 0)
(2.16096 0 0)
(2.15481 0 0)
(2.14847 0 0)
(2.14195 0 0)
(2.13524 0 0)
(2.12834 0 0)
(2.12124 0 0)
(2.11394 0 0)
(2.10644 0 0)
(2.09872 0 0)
(2.0908 0 0)
(2.08265 0 0)
(2.07429 0 0)
(2.06569 0 0)
(2.05687 0 0)
(2.04781 0 0)
(2.03852 0 0)
(2.02898 0 0)
(2.01919 0 0)
(2.00915 0 0)
(1.99886 0 0)
(1.9883 0 0)
(1.97749 0 0)
(1.9664 0 0)
(1.95505 0 0)
(1.94342 0 0)
(1.93151 0 0)
(1.91933 0 0)
(1.90686 0 0)
(1.8941 0 0)
(1.88105 0 0)
(1.86771 0 0)
(1.85404 0 0)
(1.84015 0 0)
)
;

boundaryField
{
    boundary
    {
        type            empty;
    }
    inlet
    {
        type            fixedValue;
        value           uniform (2.34893 0 0);
    }
    outlet
    {
        type            zeroGradient;
    }
    procBoundary2to3
    {
        type            processor;
        value           uniform (1.82608 0 0);
    }
}


// ************************************************************************* //
