/*--------------------------------*- C++ -*----------------------------------*\
  =========                 |
  \\      /  F ield         | OpenFOAM: The Open Source CFD Toolbox
   \\    /   O peration     | Website:  https://openfoam.org
    \\  /    A nd           | Version:  7
     \\/     M anipulation  |
\*---------------------------------------------------------------------------*/
FoamFile
{
    version     2.0;
    format      ascii;
    class       volScalarField;
    location    "0.00051";
    object      HO2;
}
// * * * * * * * * * * * * * * * * * * * * * * * * * * * * * * * * * * * * * //

dimensions      [0 0 0 0 0 0 0];

internalField   nonuniform List<scalar> 
125
(
5.60476e-38
1.27637e-37
1.99587e-37
2.71693e-37
3.43911e-37
4.16238e-37
4.88684e-37
5.61268e-37
6.34015e-37
7.06964e-37
7.80166e-37
8.53691e-37
9.2763e-37
1.0021e-36
1.07724e-36
1.15323e-36
1.23027e-36
1.3086e-36
1.38847e-36
1.47015e-36
1.55395e-36
1.64014e-36
1.72897e-36
1.82068e-36
1.91541e-36
2.01322e-36
2.11409e-36
2.21784e-36
2.32416e-36
2.43261e-36
2.54258e-36
2.65335e-36
2.76407e-36
2.87382e-36
2.98162e-36
3.08649e-36
3.18746e-36
3.28367e-36
3.37433e-36
3.45881e-36
3.53662e-36
3.60746e-36
3.67121e-36
3.72788e-36
3.77767e-36
3.82089e-36
3.85797e-36
3.88939e-36
3.91571e-36
3.9375e-36
3.95533e-36
3.96974e-36
3.98127e-36
3.99037e-36
3.9975e-36
4.003e-36
4.00721e-36
4.01039e-36
4.01278e-36
4.01454e-36
4.01584e-36
4.01678e-36
4.01746e-36
4.01794e-36
4.01828e-36
4.01852e-36
4.01869e-36
4.01881e-36
4.0189e-36
4.01896e-36
4.019e-36
4.01904e-36
4.01907e-36
4.01909e-36
4.01911e-36
4.01913e-36
4.01915e-36
4.01917e-36
4.01919e-36
4.01922e-36
4.01924e-36
4.01927e-36
4.0193e-36
4.01932e-36
4.01936e-36
4.01939e-36
4.01942e-36
4.01946e-36
4.0195e-36
4.01954e-36
4.01958e-36
4.01963e-36
4.01968e-36
4.01973e-36
4.01978e-36
4.01984e-36
4.0199e-36
4.01996e-36
4.02002e-36
4.02009e-36
4.02016e-36
4.02024e-36
4.02031e-36
4.0204e-36
4.02048e-36
4.02057e-36
4.02066e-36
4.02075e-36
4.02085e-36
4.02095e-36
4.02106e-36
4.02117e-36
4.02128e-36
4.0214e-36
4.02152e-36
4.02165e-36
4.02178e-36
4.02191e-36
4.02205e-36
4.02219e-36
4.02232e-36
4.0224e-36
4.02228e-36
4.02135e-36
4.01726e-36
)
;

boundaryField
{
    boundary
    {
        type            empty;
    }
    inlet
    {
        type            fixedValue;
        value           uniform 0;
    }
    outlet
    {
        type            zeroGradient;
    }
    procBoundary2to3
    {
        type            processor;
        value           uniform 4.00912e-36;
    }
}


// ************************************************************************* //
