/*--------------------------------*- C++ -*----------------------------------*\
  =========                 |
  \\      /  F ield         | OpenFOAM: The Open Source CFD Toolbox
   \\    /   O peration     | Website:  https://openfoam.org
    \\  /    A nd           | Version:  7
     \\/     M anipulation  |
\*---------------------------------------------------------------------------*/
FoamFile
{
    version     2.0;
    format      ascii;
    class       volVectorField;
    location    "0.00051";
    object      U;
}
// * * * * * * * * * * * * * * * * * * * * * * * * * * * * * * * * * * * * * //

dimensions      [0 1 -1 0 0 0 0];

internalField   nonuniform List<vector> 
125
(
(2.34893 0 0)
(2.34892 0 0)
(2.34889 0 0)
(2.34885 0 0)
(2.34883 0 0)
(2.3488 0 0)
(2.34877 0 0)
(2.34875 0 0)
(2.34872 0 0)
(2.3487 0 0)
(2.34868 0 0)
(2.34865 0 0)
(2.34863 0 0)
(2.34861 0 0)
(2.3486 0 0)
(2.34858 0 0)
(2.34857 0 0)
(2.34856 0 0)
(2.34856 0 0)
(2.34855 0 0)
(2.34855 0 0)
(2.34856 0 0)
(2.34856 0 0)
(2.34857 0 0)
(2.34858 0 0)
(2.34859 0 0)
(2.3486 0 0)
(2.34861 0 0)
(2.34861 0 0)
(2.34862 0 0)
(2.34862 0 0)
(2.34861 0 0)
(2.34859 0 0)
(2.34858 0 0)
(2.34855 0 0)
(2.34852 0 0)
(2.34848 0 0)
(2.34843 0 0)
(2.34838 0 0)
(2.34832 0 0)
(2.34826 0 0)
(2.3482 0 0)
(2.34814 0 0)
(2.34808 0 0)
(2.34801 0 0)
(2.34795 0 0)
(2.34789 0 0)
(2.34783 0 0)
(2.34778 0 0)
(2.34772 0 0)
(2.34767 0 0)
(2.34763 0 0)
(2.34758 0 0)
(2.34754 0 0)
(2.3475 0 0)
(2.34747 0 0)
(2.34743 0 0)
(2.3474 0 0)
(2.34737 0 0)
(2.34734 0 0)
(2.34731 0 0)
(2.34728 0 0)
(2.34725 0 0)
(2.34722 0 0)
(2.34719 0 0)
(2.34717 0 0)
(2.34714 0 0)
(2.34711 0 0)
(2.34709 0 0)
(2.34706 0 0)
(2.34704 0 0)
(2.34701 0 0)
(2.34698 0 0)
(2.34696 0 0)
(2.34693 0 0)
(2.34691 0 0)
(2.34688 0 0)
(2.34685 0 0)
(2.34683 0 0)
(2.3468 0 0)
(2.34678 0 0)
(2.34675 0 0)
(2.34673 0 0)
(2.3467 0 0)
(2.34668 0 0)
(2.34665 0 0)
(2.34662 0 0)
(2.3466 0 0)
(2.34657 0 0)
(2.34655 0 0)
(2.34652 0 0)
(2.3465 0 0)
(2.34647 0 0)
(2.34645 0 0)
(2.34642 0 0)
(2.3464 0 0)
(2.34637 0 0)
(2.34635 0 0)
(2.34632 0 0)
(2.3463 0 0)
(2.34627 0 0)
(2.34625 0 0)
(2.34622 0 0)
(2.3462 0 0)
(2.34617 0 0)
(2.34615 0 0)
(2.34612 0 0)
(2.3461 0 0)
(2.34607 0 0)
(2.34605 0 0)
(2.34603 0 0)
(2.346 0 0)
(2.34598 0 0)
(2.34595 0 0)
(2.34593 0 0)
(2.3459 0 0)
(2.34588 0 0)
(2.34586 0 0)
(2.34583 0 0)
(2.34581 0 0)
(2.34578 0 0)
(2.34576 0 0)
(2.34574 0 0)
(2.34571 0 0)
(2.34568 0 0)
)
;

boundaryField
{
    boundary
    {
        type            empty;
    }
    inlet
    {
        type            fixedValue;
        value           uniform (2.34893 0 0);
    }
    outlet
    {
        type            zeroGradient;
    }
    procBoundary2to3
    {
        type            processor;
        value           uniform (2.34566 0 0);
    }
}


// ************************************************************************* //
