/*--------------------------------*- C++ -*----------------------------------*\
  =========                 |
  \\      /  F ield         | OpenFOAM: The Open Source CFD Toolbox
   \\    /   O peration     | Website:  https://openfoam.org
    \\  /    A nd           | Version:  7
     \\/     M anipulation  |
\*---------------------------------------------------------------------------*/
FoamFile
{
    version     2.0;
    format      ascii;
    class       volScalarField;
    location    "0.0007";
    object      p;
}
// * * * * * * * * * * * * * * * * * * * * * * * * * * * * * * * * * * * * * //

dimensions      [1 -1 -2 0 0 0 0];

internalField   nonuniform List<scalar> 
125
(
103124
103124
103124
103124
103124
103124
103124
103124
103124
103124
103124
103124
103124
103124
103124
103124
103124
103124
103124
103124
103124
103124
103124
103124
103124
103123
103122
103121
103119
103116
103114
103112
103110
103108
103107
103105
103105
103104
103103
103103
103102
103102
103101
103101
103101
103101
103100
103100
103100
103100
103099
103099
103099
103099
103099
103099
103099
103098
103098
103098
103098
103098
103098
103098
103098
103098
103098
103098
103097
103097
103097
103097
103097
103097
103097
103097
103097
103097
103097
103097
103097
103097
103097
103097
103097
103097
103097
103096
103096
103096
103096
103096
103096
103096
103096
103096
103096
103096
103096
103096
103096
103096
103096
103096
103096
103096
103096
103096
103096
103096
103096
103096
103096
103096
103096
103096
103096
103096
103096
103096
103096
103095
103095
103095
103095
)
;

boundaryField
{
    boundary
    {
        type            empty;
    }
    inlet
    {
        type            zeroGradient;
    }
    outlet
    {
        type            waveTransmissive;
        gamma           1.4;
        value           nonuniform 0();
    }
    procBoundary1to0
    {
        type            processor;
        value           uniform 103095;
    }
    procBoundary1to3
    {
        type            processor;
        value           uniform 103124;
    }
}


// ************************************************************************* //
