/*--------------------------------*- C++ -*----------------------------------*\
  =========                 |
  \\      /  F ield         | OpenFOAM: The Open Source CFD Toolbox
   \\    /   O peration     | Website:  https://openfoam.org
    \\  /    A nd           | Version:  7
     \\/     M anipulation  |
\*---------------------------------------------------------------------------*/
FoamFile
{
    version     2.0;
    format      ascii;
    class       surfaceScalarField;
    location    "0.0007";
    object      phi;
}
// * * * * * * * * * * * * * * * * * * * * * * * * * * * * * * * * * * * * * //

dimensions      [1 0 -1 0 0 0 0];

internalField   nonuniform List<scalar> 
124
(
6.91294e-06
6.91305e-06
6.91315e-06
6.91326e-06
6.91337e-06
6.91347e-06
6.91359e-06
6.9137e-06
6.91381e-06
6.91393e-06
6.91404e-06
6.91416e-06
6.91428e-06
6.9144e-06
6.91452e-06
6.91463e-06
6.91476e-06
6.91489e-06
6.91505e-06
6.91531e-06
6.91587e-06
6.91734e-06
6.92147e-06
6.93298e-06
6.96148e-06
7.0136e-06
7.07303e-06
7.11841e-06
7.14784e-06
7.16725e-06
7.18071e-06
7.19007e-06
7.19594e-06
7.20013e-06
7.2039e-06
7.20712e-06
7.20962e-06
7.21165e-06
7.21333e-06
7.21477e-06
7.21601e-06
7.2171e-06
7.21806e-06
7.21893e-06
7.21971e-06
7.22043e-06
7.22108e-06
7.22168e-06
7.22223e-06
7.22274e-06
7.22322e-06
7.22367e-06
7.22409e-06
7.22448e-06
7.22485e-06
7.2252e-06
7.22553e-06
7.22584e-06
7.22613e-06
7.22641e-06
7.22667e-06
7.22691e-06
7.22713e-06
7.22734e-06
7.22754e-06
7.22774e-06
7.22792e-06
7.22809e-06
7.22826e-06
7.22842e-06
7.22857e-06
7.22872e-06
7.22886e-06
7.229e-06
7.22913e-06
7.22926e-06
7.22939e-06
7.22951e-06
7.22963e-06
7.22975e-06
7.22986e-06
7.22998e-06
7.23009e-06
7.2302e-06
7.2303e-06
7.23041e-06
7.23051e-06
7.23061e-06
7.23071e-06
7.2308e-06
7.2309e-06
7.23099e-06
7.23108e-06
7.23117e-06
7.23126e-06
7.23134e-06
7.23142e-06
7.2315e-06
7.23158e-06
7.23166e-06
7.23173e-06
7.23181e-06
7.23188e-06
7.23195e-06
7.23201e-06
7.23208e-06
7.23214e-06
7.23221e-06
7.23227e-06
7.23233e-06
7.23239e-06
7.23245e-06
7.2325e-06
7.23256e-06
7.23262e-06
7.23267e-06
7.23272e-06
7.23278e-06
7.23283e-06
7.23288e-06
7.23293e-06
7.23298e-06
7.23303e-06
7.23308e-06
)
;

boundaryField
{
    boundary
    {
        type            empty;
        value           nonuniform 0();
    }
    inlet
    {
        type            calculated;
        value           nonuniform 0();
    }
    outlet
    {
        type            calculated;
        value           nonuniform 0();
    }
    procBoundary1to0
    {
        type            processor;
        value           uniform 7.23312e-06;
    }
    procBoundary1to3
    {
        type            processor;
        value           uniform -6.91284e-06;
    }
}


// ************************************************************************* //
