/*--------------------------------*- C++ -*----------------------------------*\
  =========                 |
  \\      /  F ield         | OpenFOAM: The Open Source CFD Toolbox
   \\    /   O peration     | Website:  https://openfoam.org
    \\  /    A nd           | Version:  7
     \\/     M anipulation  |
\*---------------------------------------------------------------------------*/
FoamFile
{
    version     2.0;
    format      ascii;
    class       volScalarField;
    location    "0.0007";
    object      T;
}
// * * * * * * * * * * * * * * * * * * * * * * * * * * * * * * * * * * * * * //

dimensions      [0 0 0 1 0 0 0];

internalField   nonuniform List<scalar> 
125
(
301.476
301.474
301.472
301.47
301.467
301.465
301.462
301.46
301.457
301.455
301.452
301.449
301.446
301.444
301.442
301.44
301.442
301.452
301.487
301.588
301.881
302.715
305.087
311.803
330.362
376.945
470.497
608.414
763.322
914.965
1057.74
1188.13
1299.73
1394.6
1474.57
1538.01
1588.74
1631.65
1668.46
1700.56
1728.93
1754.29
1777.17
1797.97
1817.02
1834.55
1850.77
1865.84
1879.9
1893.05
1905.4
1917.02
1927.99
1938.37
1948.2
1957.53
1966.41
1974.87
1982.94
1990.64
1997.99
2004.82
2011.25
2017.48
2023.5
2029.33
2034.97
2040.44
2045.74
2050.89
2055.89
2060.75
2065.48
2070.07
2074.55
2078.91
2083.15
2087.29
2091.33
2095.27
2099.11
2102.87
2106.54
2110.13
2113.63
2117.06
2120.42
2123.7
2126.92
2130.07
2133.16
2136.18
2139.15
2142.05
2144.91
2147.7
2150.45
2153.15
2155.79
2158.39
2160.94
2163.45
2165.92
2168.34
2170.72
2173.07
2175.37
2177.64
2179.87
2182.06
2184.22
2186.35
2188.44
2190.5
2192.53
2194.53
2196.5
2198.45
2200.36
2202.24
2204.1
2205.93
2207.73
2209.51
2211.26
)
;

boundaryField
{
    boundary
    {
        type            empty;
    }
    inlet
    {
        type            fixedValue;
        value           nonuniform 0();
    }
    outlet
    {
        type            zeroGradient;
    }
    procBoundary1to0
    {
        type            processor;
        value           uniform 2212.98;
    }
    procBoundary1to3
    {
        type            processor;
        value           uniform 301.478;
    }
}


// ************************************************************************* //
