/*--------------------------------*- C++ -*----------------------------------*\
  =========                 |
  \\      /  F ield         | OpenFOAM: The Open Source CFD Toolbox
   \\    /   O peration     | Website:  https://openfoam.org
    \\  /    A nd           | Version:  7
     \\/     M anipulation  |
\*---------------------------------------------------------------------------*/
FoamFile
{
    version     2.0;
    format      ascii;
    class       volVectorField;
    location    "0.0007";
    object      U;
}
// * * * * * * * * * * * * * * * * * * * * * * * * * * * * * * * * * * * * * //

dimensions      [0 1 -1 0 0 0 0];

internalField   nonuniform List<vector> 
125
(
(2.35472 0 0)
(2.35474 0 0)
(2.35476 0 0)
(2.35478 0 0)
(2.3548 0 0)
(2.35482 0 0)
(2.35483 0 0)
(2.35485 0 0)
(2.35487 0 0)
(2.35489 0 0)
(2.35491 0 0)
(2.35492 0 0)
(2.35494 0 0)
(2.35496 0 0)
(2.35497 0 0)
(2.35499 0 0)
(2.35502 0 0)
(2.3551 0 0)
(2.35533 0 0)
(2.35607 0 0)
(2.3584 0 0)
(2.36536 0 0)
(2.38469 0 0)
(2.43382 0 0)
(2.55064 0 0)
(2.81514 0 0)
(3.37215 0 0)
(4.33662 0 0)
(5.54409 0 0)
(6.76559 0 0)
(7.87715 0 0)
(8.84716 0 0)
(9.67139 0 0)
(10.3614 0 0)
(10.9331 0 0)
(11.3929 0 0)
(11.7568 0 0)
(12.0536 0 0)
(12.3056 0 0)
(12.5244 0 0)
(12.7167 0 0)
(12.8875 0 0)
(13.0405 0 0)
(13.179 0 0)
(13.3051 0 0)
(13.4207 0 0)
(13.5273 0 0)
(13.6259 0 0)
(13.7176 0 0)
(13.8032 0 0)
(13.8832 0 0)
(13.9584 0 0)
(14.0291 0 0)
(14.0958 0 0)
(14.1589 0 0)
(14.2187 0 0)
(14.2754 0 0)
(14.3294 0 0)
(14.3807 0 0)
(14.4296 0 0)
(14.4762 0 0)
(14.5195 0 0)
(14.5601 0 0)
(14.5994 0 0)
(14.6373 0 0)
(14.674 0 0)
(14.7095 0 0)
(14.7438 0 0)
(14.7771 0 0)
(14.8093 0 0)
(14.8405 0 0)
(14.8709 0 0)
(14.9003 0 0)
(14.9289 0 0)
(14.9568 0 0)
(14.9838 0 0)
(15.0102 0 0)
(15.0358 0 0)
(15.0608 0 0)
(15.0852 0 0)
(15.109 0 0)
(15.1322 0 0)
(15.1548 0 0)
(15.1769 0 0)
(15.1985 0 0)
(15.2196 0 0)
(15.2402 0 0)
(15.2604 0 0)
(15.2801 0 0)
(15.2995 0 0)
(15.3184 0 0)
(15.3369 0 0)
(15.355 0 0)
(15.3728 0 0)
(15.3902 0 0)
(15.4073 0 0)
(15.424 0 0)
(15.4405 0 0)
(15.4566 0 0)
(15.4724 0 0)
(15.4879 0 0)
(15.5032 0 0)
(15.5182 0 0)
(15.5329 0 0)
(15.5473 0 0)
(15.5615 0 0)
(15.5755 0 0)
(15.5892 0 0)
(15.6027 0 0)
(15.616 0 0)
(15.6291 0 0)
(15.6419 0 0)
(15.6546 0 0)
(15.667 0 0)
(15.6793 0 0)
(15.6913 0 0)
(15.7032 0 0)
(15.7149 0 0)
(15.7264 0 0)
(15.7378 0 0)
(15.749 0 0)
(15.76 0 0)
(15.7708 0 0)
(15.7815 0 0)
(15.792 0 0)
)
;

boundaryField
{
    boundary
    {
        type            empty;
    }
    inlet
    {
        type            fixedValue;
        value           nonuniform 0();
    }
    outlet
    {
        type            zeroGradient;
    }
    procBoundary1to0
    {
        type            processor;
        value           uniform (15.8024 0 0);
    }
    procBoundary1to3
    {
        type            processor;
        value           uniform (2.3547 0 0);
    }
}


// ************************************************************************* //
