/*--------------------------------*- C++ -*----------------------------------*\
  =========                 |
  \\      /  F ield         | OpenFOAM: The Open Source CFD Toolbox
   \\    /   O peration     | Website:  https://openfoam.org
    \\  /    A nd           | Version:  7
     \\/     M anipulation  |
\*---------------------------------------------------------------------------*/
FoamFile
{
    version     2.0;
    format      ascii;
    class       volScalarField;
    location    "4e-05";
    object      H;
}
// * * * * * * * * * * * * * * * * * * * * * * * * * * * * * * * * * * * * * //

dimensions      [0 0 0 0 0 0 0];

internalField   nonuniform List<scalar> 
126
(
2.87527e-41
2.88371e-41
2.88572e-41
2.88598e-41
2.88576e-41
2.88538e-41
2.88494e-41
2.88445e-41
2.88394e-41
2.8834e-41
2.88282e-41
2.88222e-41
2.88158e-41
2.88092e-41
2.88023e-41
2.8795e-41
2.87875e-41
2.87797e-41
2.87716e-41
2.87631e-41
2.87544e-41
2.87454e-41
2.87361e-41
2.87264e-41
2.87165e-41
2.87063e-41
2.86957e-41
2.86848e-41
2.86737e-41
2.86622e-41
2.86504e-41
2.86382e-41
2.86258e-41
2.8613e-41
2.85999e-41
2.85865e-41
2.85727e-41
2.85586e-41
2.85442e-41
2.85294e-41
2.85143e-41
2.84988e-41
2.8483e-41
2.84668e-41
2.84502e-41
2.84333e-41
2.8416e-41
2.83984e-41
2.83803e-41
2.83619e-41
2.83431e-41
2.83238e-41
2.83042e-41
2.82842e-41
2.82638e-41
2.8243e-41
2.82217e-41
2.82001e-41
2.8178e-41
2.81555e-41
2.81326e-41
2.81092e-41
2.80854e-41
2.80612e-41
2.80365e-41
2.80114e-41
2.79858e-41
2.79598e-41
2.79334e-41
2.79065e-41
2.78792e-41
2.78515e-41
2.78233e-41
2.77947e-41
2.77657e-41
2.77363e-41
2.77064e-41
2.76761e-41
2.76454e-41
2.76144e-41
2.75829e-41
2.75511e-41
2.75189e-41
2.74863e-41
2.74534e-41
2.74202e-41
2.73867e-41
2.73529e-41
2.73187e-41
2.72843e-41
2.72497e-41
2.72148e-41
2.71797e-41
2.71444e-41
2.71089e-41
2.70733e-41
2.70375e-41
2.70016e-41
2.69655e-41
2.69294e-41
2.68933e-41
2.68571e-41
2.68208e-41
2.67847e-41
2.67495e-41
2.6719e-41
2.67169e-41
2.68817e-41
2.80287e-41
3.4955e-41
7.5879e-41
3.16728e-40
1.73284e-39
1.00555e-38
5.89524e-38
3.46145e-37
2.03251e-36
1.19324e-35
7.00384e-35
4.11032e-34
2.41192e-33
1.41519e-32
8.30332e-32
4.87181e-31
2.85856e-30
1.6774e-29
)
;

boundaryField
{
    boundary
    {
        type            empty;
    }
    inlet
    {
        type            fixedValue;
        value           nonuniform 0();
    }
    outlet
    {
        type            zeroGradient;
    }
    procBoundary3to1
    {
        type            processor;
        value           uniform 1.11524e-28;
    }
    procBoundary3to2
    {
        type            processor;
        value           uniform 2.87847e-41;
    }
}


// ************************************************************************* //
