/*--------------------------------*- C++ -*----------------------------------*\
  =========                 |
  \\      /  F ield         | OpenFOAM: The Open Source CFD Toolbox
   \\    /   O peration     | Website:  https://openfoam.org
    \\  /    A nd           | Version:  7
     \\/     M anipulation  |
\*---------------------------------------------------------------------------*/
FoamFile
{
    version     2.0;
    format      ascii;
    class       volScalarField;
    location    "4e-05";
    object      H2O;
}
// * * * * * * * * * * * * * * * * * * * * * * * * * * * * * * * * * * * * * //

dimensions      [0 0 0 0 0 0 0];

internalField   nonuniform List<scalar> 
126
(
4.21576e-47
4.32447e-47
4.4023e-47
4.45059e-47
4.47826e-47
4.49342e-47
4.50161e-47
4.50616e-47
4.50897e-47
4.51099e-47
4.51269e-47
4.51427e-47
4.51581e-47
4.51734e-47
4.51888e-47
4.52042e-47
4.52196e-47
4.52351e-47
4.52506e-47
4.52661e-47
4.52817e-47
4.52972e-47
4.53128e-47
4.53284e-47
4.53439e-47
4.53594e-47
4.53749e-47
4.53903e-47
4.54057e-47
4.54209e-47
4.54361e-47
4.54512e-47
4.54662e-47
4.54811e-47
4.54958e-47
4.55104e-47
4.55248e-47
4.5539e-47
4.5553e-47
4.55668e-47
4.55803e-47
4.55937e-47
4.56067e-47
4.56194e-47
4.56319e-47
4.5644e-47
4.56558e-47
4.56672e-47
4.56783e-47
4.56889e-47
4.56992e-47
4.5709e-47
4.57183e-47
4.57272e-47
4.57355e-47
4.57434e-47
4.57507e-47
4.57574e-47
4.57636e-47
4.57692e-47
4.57741e-47
4.57785e-47
4.57821e-47
4.57851e-47
4.57875e-47
4.57891e-47
4.57899e-47
4.57901e-47
4.57895e-47
4.57881e-47
4.57859e-47
4.5783e-47
4.57792e-47
4.57746e-47
4.57691e-47
4.57629e-47
4.57557e-47
4.57477e-47
4.57389e-47
4.57291e-47
4.57185e-47
4.5707e-47
4.56947e-47
4.56814e-47
4.56673e-47
4.56523e-47
4.56364e-47
4.56196e-47
4.5602e-47
4.55835e-47
4.55641e-47
4.55439e-47
4.55229e-47
4.55011e-47
4.54784e-47
4.54549e-47
4.54306e-47
4.54056e-47
4.53798e-47
4.53532e-47
4.53259e-47
4.52979e-47
4.52692e-47
4.524e-47
4.5211e-47
4.5188e-47
4.52052e-47
4.54809e-47
4.73915e-47
5.96305e-47
1.37073e-46
6.26008e-46
3.71181e-45
2.32067e-44
1.46858e-43
9.39677e-43
6.15263e-42
4.22407e-41
3.15542e-40
2.66247e-39
2.5694e-38
2.7696e-37
3.20157e-36
3.83441e-35
4.65945e-34
5.68568e-33
)
;

boundaryField
{
    boundary
    {
        type            empty;
    }
    inlet
    {
        type            fixedValue;
        value           nonuniform 0();
    }
    outlet
    {
        type            zeroGradient;
    }
    procBoundary3to1
    {
        type            processor;
        value           uniform 1.2844e-31;
    }
    procBoundary3to2
    {
        type            processor;
        value           uniform 4.35747e-47;
    }
}


// ************************************************************************* //
