/*--------------------------------*- C++ -*----------------------------------*\
  =========                 |
  \\      /  F ield         | OpenFOAM: The Open Source CFD Toolbox
   \\    /   O peration     | Website:  https://openfoam.org
    \\  /    A nd           | Version:  7
     \\/     M anipulation  |
\*---------------------------------------------------------------------------*/
FoamFile
{
    version     2.0;
    format      ascii;
    class       volScalarField;
    location    "4e-05";
    object      H2O2;
}
// * * * * * * * * * * * * * * * * * * * * * * * * * * * * * * * * * * * * * //

dimensions      [0 0 0 0 0 0 0];

internalField   nonuniform List<scalar> 
126
(
9.57371e-52
9.87975e-52
1.00871e-51
1.02049e-51
1.02657e-51
1.02959e-51
1.03112e-51
1.03195e-51
1.03248e-51
1.03287e-51
1.03321e-51
1.03354e-51
1.03386e-51
1.03418e-51
1.03449e-51
1.03481e-51
1.03513e-51
1.03545e-51
1.03578e-51
1.0361e-51
1.03642e-51
1.03674e-51
1.03706e-51
1.03738e-51
1.0377e-51
1.03802e-51
1.03834e-51
1.03865e-51
1.03897e-51
1.03928e-51
1.03959e-51
1.0399e-51
1.0402e-51
1.0405e-51
1.04079e-51
1.04109e-51
1.04137e-51
1.04166e-51
1.04194e-51
1.04221e-51
1.04247e-51
1.04273e-51
1.04299e-51
1.04323e-51
1.04347e-51
1.0437e-51
1.04392e-51
1.04413e-51
1.04433e-51
1.04452e-51
1.04471e-51
1.04488e-51
1.04504e-51
1.04518e-51
1.04532e-51
1.04544e-51
1.04555e-51
1.04564e-51
1.04572e-51
1.04579e-51
1.04584e-51
1.04587e-51
1.04589e-51
1.04589e-51
1.04588e-51
1.04585e-51
1.0458e-51
1.04573e-51
1.04564e-51
1.04553e-51
1.04541e-51
1.04526e-51
1.04509e-51
1.04491e-51
1.0447e-51
1.04448e-51
1.04423e-51
1.04396e-51
1.04367e-51
1.04336e-51
1.04303e-51
1.04267e-51
1.0423e-51
1.0419e-51
1.04148e-51
1.04105e-51
1.04059e-51
1.0401e-51
1.0396e-51
1.03908e-51
1.03854e-51
1.03798e-51
1.03739e-51
1.03679e-51
1.03617e-51
1.03553e-51
1.03488e-51
1.0342e-51
1.03351e-51
1.0328e-51
1.03207e-51
1.03133e-51
1.03057e-51
1.02979e-51
1.02901e-51
1.02823e-51
1.0276e-51
1.02794e-51
1.03445e-51
1.0797e-51
1.36802e-51
3.1813e-51
1.4563e-50
8.59897e-50
5.3438e-49
3.3532e-48
2.11633e-47
1.35608e-46
9.10397e-46
6.92441e-45
6.73536e-44
8.81719e-43
1.41687e-41
2.4885e-40
4.48827e-39
8.11852e-38
)
;

boundaryField
{
    boundary
    {
        type            empty;
    }
    inlet
    {
        type            fixedValue;
        value           nonuniform 0();
    }
    outlet
    {
        type            zeroGradient;
    }
    procBoundary3to1
    {
        type            processor;
        value           uniform 3.0726e-36;
    }
    procBoundary3to2
    {
        type            processor;
        value           uniform 9.96749e-52;
    }
}


// ************************************************************************* //
