/*--------------------------------*- C++ -*----------------------------------*\
  =========                 |
  \\      /  F ield         | OpenFOAM: The Open Source CFD Toolbox
   \\    /   O peration     | Website:  https://openfoam.org
    \\  /    A nd           | Version:  7
     \\/     M anipulation  |
\*---------------------------------------------------------------------------*/
FoamFile
{
    version     2.0;
    format      ascii;
    class       volScalarField;
    location    "4e-05";
    object      HO2;
}
// * * * * * * * * * * * * * * * * * * * * * * * * * * * * * * * * * * * * * //

dimensions      [0 0 0 0 0 0 0];

internalField   nonuniform List<scalar> 
126
(
2.19592e-37
2.23513e-37
2.26139e-37
2.27632e-37
2.28401e-37
2.28779e-37
2.28965e-37
2.29064e-37
2.29124e-37
2.29168e-37
2.29206e-37
2.29242e-37
2.29277e-37
2.29312e-37
2.29347e-37
2.29382e-37
2.29417e-37
2.29452e-37
2.29487e-37
2.29522e-37
2.29557e-37
2.29591e-37
2.29626e-37
2.2966e-37
2.29694e-37
2.29728e-37
2.29762e-37
2.29795e-37
2.29827e-37
2.2986e-37
2.29892e-37
2.29923e-37
2.29954e-37
2.29984e-37
2.30013e-37
2.30042e-37
2.3007e-37
2.30097e-37
2.30123e-37
2.30148e-37
2.30172e-37
2.30195e-37
2.30217e-37
2.30238e-37
2.30257e-37
2.30275e-37
2.30291e-37
2.30306e-37
2.30319e-37
2.30331e-37
2.30341e-37
2.30349e-37
2.30355e-37
2.3036e-37
2.30362e-37
2.30362e-37
2.3036e-37
2.30356e-37
2.30349e-37
2.3034e-37
2.30328e-37
2.30314e-37
2.30298e-37
2.30278e-37
2.30256e-37
2.30231e-37
2.30203e-37
2.30173e-37
2.30139e-37
2.30103e-37
2.30063e-37
2.3002e-37
2.29974e-37
2.29925e-37
2.29872e-37
2.29817e-37
2.29758e-37
2.29696e-37
2.2963e-37
2.29561e-37
2.29489e-37
2.29414e-37
2.29335e-37
2.29253e-37
2.29168e-37
2.2908e-37
2.28988e-37
2.28893e-37
2.28795e-37
2.28694e-37
2.2859e-37
2.28483e-37
2.28373e-37
2.2826e-37
2.28144e-37
2.28026e-37
2.27905e-37
2.27781e-37
2.27655e-37
2.27526e-37
2.27395e-37
2.27262e-37
2.27126e-37
2.26989e-37
2.2685e-37
2.26714e-37
2.26608e-37
2.26696e-37
2.27984e-37
2.36671e-37
2.9096e-37
6.26517e-37
2.69782e-36
1.54843e-35
9.44204e-35
5.81522e-34
3.58319e-33
2.2021e-32
1.34564e-31
8.14164e-31
4.85191e-30
2.83296e-29
1.61484e-28
8.98749e-28
4.91074e-27
2.66177e-26
)
;

boundaryField
{
    boundary
    {
        type            empty;
    }
    inlet
    {
        type            fixedValue;
        value           nonuniform 0();
    }
    outlet
    {
        type            zeroGradient;
    }
    procBoundary3to1
    {
        type            processor;
        value           uniform 1.64618e-25;
    }
    procBoundary3to2
    {
        type            processor;
        value           uniform 2.24581e-37;
    }
}


// ************************************************************************* //
