/*--------------------------------*- C++ -*----------------------------------*\
  =========                 |
  \\      /  F ield         | OpenFOAM: The Open Source CFD Toolbox
   \\    /   O peration     | Website:  https://openfoam.org
    \\  /    A nd           | Version:  7
     \\/     M anipulation  |
\*---------------------------------------------------------------------------*/
FoamFile
{
    version     2.0;
    format      ascii;
    class       volScalarField;
    location    "4e-05";
    object      O;
}
// * * * * * * * * * * * * * * * * * * * * * * * * * * * * * * * * * * * * * //

dimensions      [0 0 0 0 0 0 0];

internalField   nonuniform List<scalar> 
126
(
7.05815e-47
7.19607e-47
7.28027e-47
7.32579e-47
7.34971e-47
7.36266e-47
7.36998e-47
7.37432e-47
7.37708e-47
7.37907e-47
7.38068e-47
7.38215e-47
7.38355e-47
7.38494e-47
7.38632e-47
7.3877e-47
7.38907e-47
7.39045e-47
7.39183e-47
7.3932e-47
7.39457e-47
7.39593e-47
7.39729e-47
7.39863e-47
7.39997e-47
7.4013e-47
7.40261e-47
7.40391e-47
7.40519e-47
7.40645e-47
7.40769e-47
7.40891e-47
7.4101e-47
7.41127e-47
7.41241e-47
7.41351e-47
7.41459e-47
7.41562e-47
7.41662e-47
7.41757e-47
7.41848e-47
7.41935e-47
7.42016e-47
7.42092e-47
7.42163e-47
7.42227e-47
7.42286e-47
7.42338e-47
7.42384e-47
7.42422e-47
7.42453e-47
7.42477e-47
7.42492e-47
7.42499e-47
7.42498e-47
7.42487e-47
7.42468e-47
7.42439e-47
7.424e-47
7.42351e-47
7.42291e-47
7.42221e-47
7.4214e-47
7.42048e-47
7.41944e-47
7.41828e-47
7.417e-47
7.4156e-47
7.41408e-47
7.41242e-47
7.41064e-47
7.40873e-47
7.40669e-47
7.40451e-47
7.4022e-47
7.39976e-47
7.39717e-47
7.39445e-47
7.39159e-47
7.3886e-47
7.38546e-47
7.38219e-47
7.37878e-47
7.37523e-47
7.37155e-47
7.36773e-47
7.36378e-47
7.3597e-47
7.35549e-47
7.35115e-47
7.34668e-47
7.34209e-47
7.33738e-47
7.33255e-47
7.32761e-47
7.32255e-47
7.31738e-47
7.31211e-47
7.30673e-47
7.30125e-47
7.29568e-47
7.29001e-47
7.28426e-47
7.27849e-47
7.27302e-47
7.27e-47
7.28291e-47
7.39733e-47
8.15591e-47
1.29955e-46
4.36469e-46
2.37194e-45
1.45608e-44
9.11364e-44
5.7189e-43
3.60426e-42
2.30635e-41
1.53234e-40
1.0951e-39
8.74446e-39
7.9295e-38
8.00684e-37
8.65457e-36
9.66445e-35
1.08991e-33
1.2263e-32
)
;

boundaryField
{
    boundary
    {
        type            empty;
    }
    inlet
    {
        type            fixedValue;
        value           nonuniform 0();
    }
    outlet
    {
        type            zeroGradient;
    }
    procBoundary3to1
    {
        type            processor;
        value           uniform 2.54804e-31;
    }
    procBoundary3to2
    {
        type            processor;
        value           uniform 7.19523e-47;
    }
}


// ************************************************************************* //
