/*--------------------------------*- C++ -*----------------------------------*\
  =========                 |
  \\      /  F ield         | OpenFOAM: The Open Source CFD Toolbox
   \\    /   O peration     | Website:  https://openfoam.org
    \\  /    A nd           | Version:  7
     \\/     M anipulation  |
\*---------------------------------------------------------------------------*/
FoamFile
{
    version     2.0;
    format      ascii;
    class       volScalarField;
    location    "4e-05";
    object      OH;
}
// * * * * * * * * * * * * * * * * * * * * * * * * * * * * * * * * * * * * * //

dimensions      [0 0 0 0 0 0 0];

internalField   nonuniform List<scalar> 
126
(
3.52971e-47
3.56867e-47
3.59024e-47
3.60118e-47
3.60652e-47
3.60914e-47
3.61044e-47
3.61108e-47
3.6114e-47
3.61155e-47
3.61164e-47
3.61169e-47
3.61173e-47
3.61176e-47
3.61179e-47
3.61181e-47
3.61183e-47
3.61184e-47
3.61185e-47
3.61185e-47
3.61185e-47
3.61184e-47
3.61182e-47
3.61179e-47
3.61176e-47
3.61171e-47
3.61166e-47
3.61159e-47
3.61152e-47
3.61142e-47
3.61132e-47
3.6112e-47
3.61106e-47
3.61091e-47
3.61074e-47
3.61055e-47
3.61034e-47
3.61011e-47
3.60986e-47
3.60958e-47
3.60928e-47
3.60895e-47
3.60859e-47
3.60821e-47
3.60779e-47
3.60734e-47
3.60686e-47
3.60635e-47
3.6058e-47
3.60521e-47
3.60458e-47
3.60391e-47
3.6032e-47
3.60245e-47
3.60165e-47
3.6008e-47
3.59991e-47
3.59897e-47
3.59798e-47
3.59694e-47
3.59584e-47
3.59469e-47
3.59348e-47
3.59222e-47
3.5909e-47
3.58952e-47
3.58808e-47
3.58658e-47
3.58502e-47
3.5834e-47
3.58171e-47
3.57996e-47
3.57814e-47
3.57626e-47
3.57432e-47
3.57231e-47
3.57023e-47
3.56809e-47
3.56588e-47
3.56361e-47
3.56128e-47
3.55888e-47
3.55642e-47
3.55389e-47
3.5513e-47
3.54866e-47
3.54595e-47
3.54318e-47
3.54036e-47
3.53748e-47
3.53455e-47
3.53157e-47
3.52853e-47
3.52545e-47
3.52232e-47
3.51915e-47
3.51594e-47
3.51268e-47
3.50939e-47
3.50605e-47
3.50269e-47
3.49929e-47
3.49587e-47
3.49244e-47
3.4891e-47
3.48647e-47
3.4884e-47
3.51886e-47
3.7272e-47
5.04517e-47
1.32928e-46
6.49484e-46
3.90511e-45
2.47322e-44
1.62217e-43
1.12513e-42
8.5435e-42
7.31906e-41
7.09629e-40
7.57664e-39
8.57405e-38
9.97034e-37
1.16865e-35
1.36639e-34
1.58512e-33
1.81962e-32
)
;

boundaryField
{
    boundary
    {
        type            empty;
    }
    inlet
    {
        type            fixedValue;
        value           nonuniform 0();
    }
    outlet
    {
        type            zeroGradient;
    }
    procBoundary3to1
    {
        type            processor;
        value           uniform 3.62679e-31;
    }
    procBoundary3to2
    {
        type            processor;
        value           uniform 3.56671e-47;
    }
}


// ************************************************************************* //
