/*--------------------------------*- C++ -*----------------------------------*\
  =========                 |
  \\      /  F ield         | OpenFOAM: The Open Source CFD Toolbox
   \\    /   O peration     | Website:  https://openfoam.org
    \\  /    A nd           | Version:  7
     \\/     M anipulation  |
\*---------------------------------------------------------------------------*/
FoamFile
{
    version     2.0;
    format      ascii;
    class       volScalarField;
    location    "4e-05";
    object      p;
}
// * * * * * * * * * * * * * * * * * * * * * * * * * * * * * * * * * * * * * //

dimensions      [1 -1 -2 0 0 0 0];

internalField   nonuniform List<scalar> 
126
(
102474
102475
102475
102476
102476
102477
102477
102477
102478
102478
102478
102479
102479
102479
102479
102480
102480
102480
102480
102480
102480
102480
102480
102480
102480
102480
102480
102479
102479
102479
102479
102478
102478
102478
102477
102477
102476
102476
102475
102475
102474
102473
102473
102472
102471
102470
102469
102469
102468
102467
102466
102465
102464
102463
102462
102460
102459
102458
102457
102456
102454
102453
102452
102450
102449
102448
102446
102445
102443
102442
102440
102439
102437
102435
102434
102432
102430
102429
102427
102425
102423
102422
102420
102418
102416
102414
102412
102410
102408
102407
102405
102403
102401
102399
102397
102395
102393
102391
102389
102386
102384
102382
102380
102378
102376
102374
102372
102370
102368
102365
102363
102361
102359
102357
102355
102353
102350
102348
102346
102344
102342
102340
102338
102335
102333
102331
)
;

boundaryField
{
    boundary
    {
        type            empty;
    }
    inlet
    {
        type            zeroGradient;
    }
    outlet
    {
        type            waveTransmissive;
        gamma           1.4;
        value           nonuniform 0();
    }
    procBoundary3to1
    {
        type            processor;
        value           uniform 102329;
    }
    procBoundary3to2
    {
        type            processor;
        value           uniform 102474;
    }
}


// ************************************************************************* //
