/*--------------------------------*- C++ -*----------------------------------*\
  =========                 |
  \\      /  F ield         | OpenFOAM: The Open Source CFD Toolbox
   \\    /   O peration     | Website:  https://openfoam.org
    \\  /    A nd           | Version:  7
     \\/     M anipulation  |
\*---------------------------------------------------------------------------*/
FoamFile
{
    version     2.0;
    format      ascii;
    class       surfaceScalarField;
    location    "4e-05";
    object      phi;
}
// * * * * * * * * * * * * * * * * * * * * * * * * * * * * * * * * * * * * * //

dimensions      [1 0 -1 0 0 0 0];

internalField   nonuniform List<scalar> 
125
(
4.90577e-06
4.89628e-06
4.88664e-06
4.87685e-06
4.86691e-06
4.85679e-06
4.84649e-06
4.83601e-06
4.82535e-06
4.81449e-06
4.80343e-06
4.79216e-06
4.78068e-06
4.76899e-06
4.75707e-06
4.74493e-06
4.73256e-06
4.71995e-06
4.7071e-06
4.69401e-06
4.68068e-06
4.66709e-06
4.65325e-06
4.63915e-06
4.62479e-06
4.61016e-06
4.59527e-06
4.58011e-06
4.56469e-06
4.54899e-06
4.53301e-06
4.51676e-06
4.50024e-06
4.48343e-06
4.46635e-06
4.44899e-06
4.43135e-06
4.41343e-06
4.39523e-06
4.37675e-06
4.358e-06
4.33896e-06
4.31965e-06
4.30007e-06
4.2802e-06
4.26007e-06
4.23967e-06
4.21899e-06
4.19805e-06
4.17684e-06
4.15538e-06
4.13365e-06
4.11167e-06
4.08943e-06
4.06694e-06
4.04421e-06
4.02123e-06
3.99801e-06
3.97456e-06
3.95087e-06
3.92696e-06
3.90283e-06
3.87847e-06
3.8539e-06
3.82913e-06
3.80415e-06
3.77896e-06
3.75359e-06
3.72802e-06
3.70228e-06
3.67635e-06
3.65025e-06
3.62398e-06
3.59755e-06
3.57097e-06
3.54423e-06
3.51735e-06
3.49034e-06
3.46319e-06
3.43591e-06
3.40851e-06
3.381e-06
3.35339e-06
3.32567e-06
3.29785e-06
3.26995e-06
3.24196e-06
3.2139e-06
3.18577e-06
3.15758e-06
3.12933e-06
3.10102e-06
3.07268e-06
3.04429e-06
3.01588e-06
2.98744e-06
2.95898e-06
2.93051e-06
2.90203e-06
2.87356e-06
2.84509e-06
2.81663e-06
2.78819e-06
2.75978e-06
2.7314e-06
2.70306e-06
2.67476e-06
2.64652e-06
2.61832e-06
2.59019e-06
2.56213e-06
2.53414e-06
2.50623e-06
2.4784e-06
2.45067e-06
2.42303e-06
2.39549e-06
2.36806e-06
2.34075e-06
2.31355e-06
2.28647e-06
2.25952e-06
2.2327e-06
2.20602e-06
2.17949e-06
)
;

boundaryField
{
    boundary
    {
        type            empty;
        value           nonuniform 0();
    }
    inlet
    {
        type            calculated;
        value           nonuniform 0();
    }
    outlet
    {
        type            calculated;
        value           nonuniform 0();
    }
    procBoundary3to1
    {
        type            processor;
        value           uniform 2.15308e-06;
    }
    procBoundary3to2
    {
        type            processor;
        value           uniform -4.91511e-06;
    }
}


// ************************************************************************* //
