/*--------------------------------*- C++ -*----------------------------------*\
  =========                 |
  \\      /  F ield         | OpenFOAM: The Open Source CFD Toolbox
   \\    /   O peration     | Website:  https://openfoam.org
    \\  /    A nd           | Version:  7
     \\/     M anipulation  |
\*---------------------------------------------------------------------------*/
FoamFile
{
    version     2.0;
    format      ascii;
    class       volScalarField;
    location    "4e-05";
    object      Qdot;
}
// * * * * * * * * * * * * * * * * * * * * * * * * * * * * * * * * * * * * * //

dimensions      [1 -1 -3 0 0 0 0];

internalField   nonuniform List<scalar> 
126
(
-2.27032e-27
-2.26268e-27
-2.26115e-27
-2.26104e-27
-2.26124e-27
-2.26149e-27
-2.26174e-27
-2.26195e-27
-2.26213e-27
-2.26229e-27
-2.26241e-27
-2.2625e-27
-2.26255e-27
-2.26257e-27
-2.26256e-27
-2.26252e-27
-2.26244e-27
-2.26232e-27
-2.26217e-27
-2.26199e-27
-2.26177e-27
-2.26151e-27
-2.26122e-27
-2.26089e-27
-2.26052e-27
-2.26012e-27
-2.25968e-27
-2.2592e-27
-2.25868e-27
-2.25813e-27
-2.25753e-27
-2.2569e-27
-2.25623e-27
-2.25552e-27
-2.25477e-27
-2.25398e-27
-2.25315e-27
-2.25228e-27
-2.25137e-27
-2.25041e-27
-2.24942e-27
-2.24838e-27
-2.2473e-27
-2.24619e-27
-2.24502e-27
-2.24382e-27
-2.24257e-27
-2.24128e-27
-2.23995e-27
-2.23857e-27
-2.23715e-27
-2.23568e-27
-2.23417e-27
-2.23261e-27
-2.23102e-27
-2.22937e-27
-2.22768e-27
-2.22595e-27
-2.22417e-27
-2.22234e-27
-2.22047e-27
-2.21856e-27
-2.21659e-27
-2.21459e-27
-2.21253e-27
-2.21044e-27
-2.20829e-27
-2.20611e-27
-2.20387e-27
-2.2016e-27
-2.19927e-27
-2.19691e-27
-2.1945e-27
-2.19205e-27
-2.18955e-27
-2.18702e-27
-2.18444e-27
-2.18182e-27
-2.17916e-27
-2.17646e-27
-2.17373e-27
-2.17095e-27
-2.16815e-27
-2.1653e-27
-2.16242e-27
-2.15951e-27
-2.15657e-27
-2.1536e-27
-2.1506e-27
-2.14757e-27
-2.14452e-27
-2.14144e-27
-2.13834e-27
-2.13522e-27
-2.13208e-27
-2.12892e-27
-2.12574e-27
-2.12255e-27
-2.11935e-27
-2.11614e-27
-2.11292e-27
-2.10969e-27
-2.10645e-27
-2.10319e-27
-2.09988e-27
-2.09619e-27
-2.09035e-27
-2.07186e-27
-1.97884e-27
-1.44719e-27
1.66499e-27
1.99532e-26
1.27455e-25
7.59205e-25
4.47035e-24
2.62625e-23
1.54178e-22
9.04737e-22
5.30718e-21
3.11218e-20
1.82448e-19
1.06933e-18
6.26607e-18
3.6713e-17
2.15084e-16
1.26005e-15
)
;

boundaryField
{
    boundary
    {
        type            empty;
    }
    inlet
    {
        type            calculated;
        value           nonuniform 0();
    }
    outlet
    {
        type            calculated;
        value           nonuniform 0();
    }
    procBoundary3to1
    {
        type            processor;
        value           uniform 0;
    }
    procBoundary3to2
    {
        type            processor;
        value           uniform 0;
    }
}


// ************************************************************************* //
