/*--------------------------------*- C++ -*----------------------------------*\
  =========                 |
  \\      /  F ield         | OpenFOAM: The Open Source CFD Toolbox
   \\    /   O peration     | Website:  https://openfoam.org
    \\  /    A nd           | Version:  7
     \\/     M anipulation  |
\*---------------------------------------------------------------------------*/
FoamFile
{
    version     2.0;
    format      ascii;
    class       volScalarField;
    location    "4e-05";
    object      T;
}
// * * * * * * * * * * * * * * * * * * * * * * * * * * * * * * * * * * * * * //

dimensions      [0 0 0 1 0 0 0];

internalField   nonuniform List<scalar> 
126
(
300.957
300.958
300.959
300.959
300.959
300.959
300.96
300.96
300.96
300.96
300.96
300.96
300.96
300.96
300.96
300.959
300.959
300.959
300.959
300.959
300.958
300.958
300.957
300.957
300.956
300.956
300.955
300.955
300.954
300.953
300.953
300.952
300.951
300.95
300.949
300.948
300.947
300.946
300.945
300.944
300.942
300.941
300.94
300.938
300.937
300.935
300.934
300.932
300.93
300.929
300.927
300.925
300.923
300.921
300.919
300.917
300.915
300.912
300.91
300.908
300.905
300.903
300.9
300.898
300.895
300.892
300.889
300.886
300.883
300.88
300.877
300.874
300.871
300.867
300.864
300.861
300.857
300.853
300.85
300.846
300.842
300.838
300.835
300.831
300.827
300.822
300.818
300.814
300.81
300.806
300.801
300.797
300.792
300.788
300.783
300.779
300.774
300.77
300.765
300.76
300.756
300.751
300.746
300.742
300.737
300.732
300.727
300.722
300.718
300.713
300.708
300.703
300.698
300.693
300.689
300.684
300.679
300.674
300.669
300.664
300.659
300.654
300.65
300.645
300.639
300.634
)
;

boundaryField
{
    boundary
    {
        type            empty;
    }
    inlet
    {
        type            fixedValue;
        value           nonuniform 0();
    }
    outlet
    {
        type            zeroGradient;
    }
    procBoundary3to1
    {
        type            processor;
        value           uniform 300.629;
    }
    procBoundary3to2
    {
        type            processor;
        value           uniform 300.957;
    }
}


// ************************************************************************* //
