/*--------------------------------*- C++ -*----------------------------------*\
  =========                 |
  \\      /  F ield         | OpenFOAM: The Open Source CFD Toolbox
   \\    /   O peration     | Website:  https://openfoam.org
    \\  /    A nd           | Version:  7
     \\/     M anipulation  |
\*---------------------------------------------------------------------------*/
FoamFile
{
    version     2.0;
    format      ascii;
    class       volVectorField;
    location    "4e-05";
    object      U;
}
// * * * * * * * * * * * * * * * * * * * * * * * * * * * * * * * * * * * * * //

dimensions      [0 1 -1 0 0 0 0];

internalField   nonuniform List<vector> 
126
(
(1.68027 0 0)
(1.67718 0 0)
(1.67385 0 0)
(1.67045 0 0)
(1.6671 0 0)
(1.66367 0 0)
(1.66017 0 0)
(1.65661 0 0)
(1.65299 0 0)
(1.6493 0 0)
(1.64553 0 0)
(1.64173 0 0)
(1.63782 0 0)
(1.63386 0 0)
(1.62982 0 0)
(1.6257 0 0)
(1.6215 0 0)
(1.61722 0 0)
(1.61287 0 0)
(1.60843 0 0)
(1.6039 0 0)
(1.5993 0 0)
(1.5946 0 0)
(1.58982 0 0)
(1.58494 0 0)
(1.58 0 0)
(1.57494 0 0)
(1.56979 0 0)
(1.56457 0 0)
(1.55927 0 0)
(1.55384 0 0)
(1.54829 0 0)
(1.5427 0 0)
(1.53701 0 0)
(1.53121 0 0)
(1.52532 0 0)
(1.51933 0 0)
(1.51325 0 0)
(1.50708 0 0)
(1.5008 0 0)
(1.49443 0 0)
(1.48798 0 0)
(1.48141 0 0)
(1.47475 0 0)
(1.46803 0 0)
(1.4612 0 0)
(1.45428 0 0)
(1.4472 0 0)
(1.44009 0 0)
(1.43291 0 0)
(1.42561 0 0)
(1.41822 0 0)
(1.41075 0 0)
(1.40319 0 0)
(1.39554 0 0)
(1.38781 0 0)
(1.38 0 0)
(1.37209 0 0)
(1.36413 0 0)
(1.35605 0 0)
(1.3479 0 0)
(1.33974 0 0)
(1.33143 0 0)
(1.32303 0 0)
(1.3146 0 0)
(1.30611 0 0)
(1.29753 0 0)
(1.28889 0 0)
(1.28018 0 0)
(1.2714 0 0)
(1.26257 0 0)
(1.25367 0 0)
(1.24472 0 0)
(1.2357 0 0)
(1.22665 0 0)
(1.21749 0 0)
(1.20837 0 0)
(1.19915 0 0)
(1.18986 0 0)
(1.18056 0 0)
(1.17121 0 0)
(1.16182 0 0)
(1.1524 0 0)
(1.14293 0 0)
(1.13343 0 0)
(1.1239 0 0)
(1.11434 0 0)
(1.10476 0 0)
(1.09515 0 0)
(1.0855 0 0)
(1.07588 0 0)
(1.06618 0 0)
(1.05648 0 0)
(1.04679 0 0)
(1.03708 0 0)
(1.02735 0 0)
(1.01761 0 0)
(1.00788 0 0)
(0.998135 0 0)
(0.988391 0 0)
(0.978649 0 0)
(0.968913 0 0)
(0.959181 0 0)
(0.949429 0 0)
(0.939775 0 0)
(0.930024 0 0)
(0.920321 0 0)
(0.910668 0 0)
(0.901013 0 0)
(0.891372 0 0)
(0.881757 0 0)
(0.872166 0 0)
(0.862601 0 0)
(0.853064 0 0)
(0.84356 0 0)
(0.834094 0 0)
(0.824622 0 0)
(0.815256 0 0)
(0.80591 0 0)
(0.796494 0 0)
(0.787215 0 0)
(0.778009 0 0)
(0.768808 0 0)
(0.759635 0 0)
(0.750518 0 0)
(0.741411 0 0)
)
;

boundaryField
{
    boundary
    {
        type            empty;
    }
    inlet
    {
        type            fixedValue;
        value           nonuniform 0();
    }
    outlet
    {
        type            zeroGradient;
    }
    procBoundary3to1
    {
        type            processor;
        value           uniform (0.732411 0 0);
    }
    procBoundary3to2
    {
        type            processor;
        value           uniform (1.68341 0 0);
    }
}


// ************************************************************************* //
