/*--------------------------------*- C++ -*----------------------------------*\
  =========                 |
  \\      /  F ield         | OpenFOAM: The Open Source CFD Toolbox
   \\    /   O peration     | Website:  https://openfoam.org
    \\  /    A nd           | Version:  7
     \\/     M anipulation  |
\*---------------------------------------------------------------------------*/
FoamFile
{
    version     2.0;
    format      ascii;
    class       volScalarField;
    location    "0.00096";
    object      N2;
}
// * * * * * * * * * * * * * * * * * * * * * * * * * * * * * * * * * * * * * //

dimensions      [0 0 0 0 0 0 0];

internalField   nonuniform List<scalar> 
125
(
0.74522
0.74522
0.74522
0.74522
0.74522
0.74522
0.74522
0.74522
0.74522
0.74522
0.74522
0.74522
0.74522
0.74522
0.74522
0.745221
0.745224
0.745228
0.745236
0.745254
0.745289
0.745353
0.745459
0.745585
0.745615
0.745418
0.74505
0.744545
0.743989
0.743642
0.743671
0.743941
0.74412
0.744726
0.744952
0.745112
0.745214
0.745277
0.745315
0.745337
0.745349
0.745355
0.745356
0.745356
0.745353
0.74535
0.745347
0.745343
0.745339
0.745335
0.74533
0.745326
0.745322
0.745318
0.745314
0.74531
0.745307
0.745303
0.7453
0.745297
0.745294
0.745291
0.745288
0.745286
0.745284
0.745282
0.74528
0.745279
0.745277
0.745276
0.745275
0.745274
0.745273
0.745272
0.745271
0.745271
0.74527
0.745269
0.745269
0.745268
0.745268
0.745267
0.745266
0.745266
0.745265
0.745265
0.745264
0.745263
0.745263
0.745262
0.745261
0.745261
0.74526
0.745259
0.745259
0.745258
0.745257
0.745257
0.745256
0.745255
0.745255
0.745254
0.745254
0.745253
0.745253
0.745252
0.745252
0.745251
0.745251
0.745251
0.74525
0.74525
0.745249
0.745249
0.745249
0.745248
0.745248
0.745248
0.745248
0.745247
0.745247
0.745247
0.745247
0.745247
0.745246
)
;

boundaryField
{
    boundary
    {
        type            empty;
    }
    inlet
    {
        type            fixedValue;
        value           nonuniform 0();
    }
    outlet
    {
        type            zeroGradient;
    }
    procBoundary1to0
    {
        type            processor;
        value           uniform 0.745246;
    }
    procBoundary1to3
    {
        type            processor;
        value           uniform 0.74522;
    }
}


// ************************************************************************* //
