/*--------------------------------*- C++ -*----------------------------------*\
  =========                 |
  \\      /  F ield         | OpenFOAM: The Open Source CFD Toolbox
   \\    /   O peration     | Website:  https://openfoam.org
    \\  /    A nd           | Version:  7
     \\/     M anipulation  |
\*---------------------------------------------------------------------------*/
FoamFile
{
    version     2.0;
    format      ascii;
    class       volVectorField;
    location    "0.00096";
    object      U;
}
// * * * * * * * * * * * * * * * * * * * * * * * * * * * * * * * * * * * * * //

dimensions      [0 1 -1 0 0 0 0];

internalField   nonuniform List<vector> 
125
(
(2.34902 0 0)
(2.34901 0 0)
(2.349 0 0)
(2.34899 0 0)
(2.34898 0 0)
(2.34897 0 0)
(2.34896 0 0)
(2.34895 0 0)
(2.34894 0 0)
(2.34893 0 0)
(2.34892 0 0)
(2.34891 0 0)
(2.3489 0 0)
(2.34889 0 0)
(2.34888 0 0)
(2.34888 0 0)
(2.34893 0 0)
(2.34915 0 0)
(2.34993 0 0)
(2.35247 0 0)
(2.36011 0 0)
(2.38129 0 0)
(2.43485 0 0)
(2.56169 0 0)
(2.84681 0 0)
(3.44301 0 0)
(4.44131 0 0)
(5.65875 0 0)
(6.87183 0 0)
(7.96911 0 0)
(8.92337 0 0)
(9.73174 0 0)
(10.4092 0 0)
(10.9727 0 0)
(11.426 0 0)
(11.7832 0 0)
(12.0738 0 0)
(12.321 0 0)
(12.5362 0 0)
(12.7256 0 0)
(12.8939 0 0)
(13.045 0 0)
(13.1817 0 0)
(13.3063 0 0)
(13.4207 0 0)
(13.5261 0 0)
(13.6237 0 0)
(13.7145 0 0)
(13.7992 0 0)
(13.8785 0 0)
(13.953 0 0)
(14.0231 0 0)
(14.0892 0 0)
(14.1518 0 0)
(14.2111 0 0)
(14.2674 0 0)
(14.3209 0 0)
(14.3719 0 0)
(14.4205 0 0)
(14.4669 0 0)
(14.5112 0 0)
(14.5524 0 0)
(14.591 0 0)
(14.6285 0 0)
(14.6648 0 0)
(14.6999 0 0)
(14.7338 0 0)
(14.7667 0 0)
(14.7986 0 0)
(14.8295 0 0)
(14.8596 0 0)
(14.8888 0 0)
(14.9171 0 0)
(14.9447 0 0)
(14.9715 0 0)
(14.9977 0 0)
(15.0231 0 0)
(15.0479 0 0)
(15.0721 0 0)
(15.0956 0 0)
(15.1186 0 0)
(15.1411 0 0)
(15.163 0 0)
(15.1844 0 0)
(15.2054 0 0)
(15.2258 0 0)
(15.2459 0 0)
(15.2654 0 0)
(15.2846 0 0)
(15.3034 0 0)
(15.3217 0 0)
(15.3397 0 0)
(15.3574 0 0)
(15.3747 0 0)
(15.3916 0 0)
(15.4082 0 0)
(15.4245 0 0)
(15.4405 0 0)
(15.4563 0 0)
(15.4717 0 0)
(15.4868 0 0)
(15.5017 0 0)
(15.5163 0 0)
(15.5306 0 0)
(15.5447 0 0)
(15.5586 0 0)
(15.5722 0 0)
(15.5856 0 0)
(15.5988 0 0)
(15.6118 0 0)
(15.6246 0 0)
(15.6371 0 0)
(15.6495 0 0)
(15.6617 0 0)
(15.6736 0 0)
(15.6854 0 0)
(15.6971 0 0)
(15.7085 0 0)
(15.7198 0 0)
(15.7309 0 0)
(15.7419 0 0)
(15.7526 0 0)
(15.7633 0 0)
(15.7737 0 0)
(15.784 0 0)
)
;

boundaryField
{
    boundary
    {
        type            empty;
    }
    inlet
    {
        type            fixedValue;
        value           nonuniform 0();
    }
    outlet
    {
        type            zeroGradient;
    }
    procBoundary1to0
    {
        type            processor;
        value           uniform (15.7941 0 0);
    }
    procBoundary1to3
    {
        type            processor;
        value           uniform (2.34903 0 0);
    }
}


// ************************************************************************* //
