/*--------------------------------*- C++ -*----------------------------------*\
  =========                 |
  \\      /  F ield         | OpenFOAM: The Open Source CFD Toolbox
   \\    /   O peration     | Website:  https://openfoam.org
    \\  /    A nd           | Version:  7
     \\/     M anipulation  |
\*---------------------------------------------------------------------------*/
FoamFile
{
    version     2.0;
    format      ascii;
    class       volScalarField;
    location    "0.00073";
    object      Qdot;
}
// * * * * * * * * * * * * * * * * * * * * * * * * * * * * * * * * * * * * * //

dimensions      [1 -1 -3 0 0 0 0];

internalField   nonuniform List<scalar> 
125
(
1.41194e-09
5.00168e-09
1.83387e-08
6.97919e-08
2.7544e-07
1.1233e-06
4.71014e-06
2.01967e-05
8.81176e-05
0.000389575
0.00173984
0.00783275
0.0355071
0.162042
0.745081
3.45874
16.2669
81.9113
451.835
2932.42
22558.5
184626
1.68714e+06
1.60906e+07
1.4749e+08
1.09777e+09
4.78797e+09
1.04757e+10
1.33805e+10
1.38612e+10
1.39069e+10
1.37667e+10
1.29342e+10
1.1245e+10
9.21033e+09
7.47971e+09
6.16533e+09
5.15676e+09
4.38938e+09
3.79839e+09
3.33474e+09
2.96364e+09
2.66087e+09
2.40953e+09
2.19771e+09
2.01686e+09
1.8607e+09
1.72457e+09
1.6049e+09
1.49893e+09
1.4045e+09
1.31987e+09
1.24363e+09
1.17465e+09
1.11197e+09
1.05481e+09
1.00249e+09
9.54467e+08
9.10259e+08
8.69475e+08
8.31835e+08
7.97937e+08
7.66875e+08
7.37656e+08
7.10206e+08
6.84361e+08
6.59993e+08
6.36971e+08
6.15199e+08
5.94582e+08
5.75034e+08
5.5648e+08
5.38847e+08
5.22076e+08
5.06107e+08
4.90887e+08
4.76367e+08
4.62504e+08
4.49257e+08
4.36588e+08
4.24462e+08
4.12848e+08
4.01716e+08
3.91039e+08
3.80791e+08
3.70949e+08
3.61491e+08
3.52397e+08
3.43647e+08
3.35223e+08
3.2711e+08
3.19291e+08
3.11752e+08
3.04479e+08
2.97458e+08
2.9068e+08
2.84132e+08
2.77802e+08
2.71682e+08
2.65762e+08
2.60032e+08
2.54485e+08
2.49111e+08
2.43905e+08
2.38858e+08
2.33964e+08
2.29217e+08
2.2461e+08
2.20138e+08
2.15796e+08
2.11577e+08
2.07478e+08
2.03494e+08
1.9962e+08
1.95853e+08
1.92187e+08
1.8862e+08
1.85148e+08
1.81767e+08
1.78475e+08
1.75268e+08
1.72144e+08
1.69101e+08
1.6614e+08
1.6326e+08
)
;

boundaryField
{
    boundary
    {
        type            empty;
    }
    inlet
    {
        type            calculated;
        value           nonuniform 0();
    }
    outlet
    {
        type            calculated;
        value           nonuniform 0();
    }
    procBoundary1to0
    {
        type            processor;
        value           uniform 0;
    }
    procBoundary1to3
    {
        type            processor;
        value           uniform 0;
    }
}


// ************************************************************************* //
