/*--------------------------------*- C++ -*----------------------------------*\
  =========                 |
  \\      /  F ield         | OpenFOAM: The Open Source CFD Toolbox
   \\    /   O peration     | Website:  https://openfoam.org
    \\  /    A nd           | Version:  7
     \\/     M anipulation  |
\*---------------------------------------------------------------------------*/
FoamFile
{
    version     2.0;
    format      ascii;
    class       volScalarField;
    location    "0.00073";
    object      T;
}
// * * * * * * * * * * * * * * * * * * * * * * * * * * * * * * * * * * * * * //

dimensions      [0 0 0 1 0 0 0];

internalField   nonuniform List<scalar> 
125
(
301.479
301.477
301.475
301.473
301.471
301.469
301.467
301.464
301.462
301.459
301.457
301.454
301.452
301.449
301.447
301.446
301.449
301.46
301.499
301.614
301.945
302.888
305.572
313.169
334.038
385.408
485.065
626.624
781.811
932.498
1073.98
1202.42
1311.22
1404.19
1482.77
1545.18
1594.76
1636.83
1673
1704.59
1732.54
1757.56
1780.15
1800.7
1819.53
1836.87
1852.93
1867.85
1881.77
1894.81
1907.05
1918.57
1929.45
1939.75
1949.51
1958.78
1967.6
1976
1984.02
1991.68
1998.99
2005.79
2012.2
2018.4
2024.39
2030.2
2035.82
2041.27
2046.55
2051.68
2056.66
2061.51
2066.21
2070.79
2075.25
2079.59
2083.82
2087.94
2091.96
2095.89
2099.72
2103.46
2107.11
2110.68
2114.18
2117.59
2120.93
2124.2
2127.41
2130.54
2133.62
2136.63
2139.58
2142.48
2145.32
2148.1
2150.84
2153.52
2156.16
2158.75
2161.29
2163.79
2166.25
2168.66
2171.03
2173.37
2175.67
2177.92
2180.15
2182.34
2184.49
2186.61
2188.7
2190.75
2192.78
2194.77
2196.74
2198.67
2200.58
2202.46
2204.32
2206.14
2207.94
2209.71
2211.45
)
;

boundaryField
{
    boundary
    {
        type            empty;
    }
    inlet
    {
        type            fixedValue;
        value           nonuniform 0();
    }
    outlet
    {
        type            zeroGradient;
    }
    procBoundary1to0
    {
        type            processor;
        value           uniform 2213.17;
    }
    procBoundary1to3
    {
        type            processor;
        value           uniform 301.481;
    }
}


// ************************************************************************* //
