/*--------------------------------*- C++ -*----------------------------------*\
  =========                 |
  \\      /  F ield         | OpenFOAM: The Open Source CFD Toolbox
   \\    /   O peration     | Website:  https://openfoam.org
    \\  /    A nd           | Version:  7
     \\/     M anipulation  |
\*---------------------------------------------------------------------------*/
FoamFile
{
    version     2.0;
    format      ascii;
    class       volScalarField;
    location    "0.00022";
    object      H2O2;
}
// * * * * * * * * * * * * * * * * * * * * * * * * * * * * * * * * * * * * * //

dimensions      [0 0 0 0 0 0 0];

internalField   nonuniform List<scalar> 
125
(
2.02208e-52
6.53594e-52
1.30888e-51
2.17561e-51
3.26252e-51
4.57826e-51
6.12942e-51
7.91783e-51
9.93754e-51
1.21717e-50
1.45901e-50
1.71484e-50
1.97886e-50
2.24434e-50
2.50407e-50
2.75106e-50
2.9792e-50
3.18382e-50
3.36198e-50
3.51258e-50
3.63621e-50
3.73482e-50
3.81128e-50
3.86895e-50
3.91129e-50
3.94157e-50
3.96269e-50
3.97705e-50
3.98659e-50
3.99278e-50
3.9967e-50
3.99914e-50
4.00062e-50
4.0015e-50
4.00201e-50
4.0023e-50
4.00246e-50
4.00254e-50
4.00259e-50
4.00261e-50
4.00262e-50
4.00262e-50
4.00263e-50
4.00263e-50
4.00263e-50
4.00263e-50
4.00263e-50
4.00263e-50
4.00263e-50
4.00263e-50
4.00264e-50
4.00264e-50
4.00265e-50
4.00266e-50
4.00267e-50
4.00268e-50
4.0027e-50
4.00271e-50
4.00273e-50
4.00275e-50
4.00277e-50
4.00279e-50
4.00282e-50
4.00285e-50
4.00288e-50
4.00291e-50
4.00295e-50
4.00299e-50
4.00303e-50
4.00308e-50
4.00313e-50
4.00318e-50
4.00323e-50
4.00329e-50
4.00336e-50
4.00342e-50
4.00349e-50
4.00357e-50
4.00364e-50
4.00373e-50
4.00381e-50
4.00391e-50
4.004e-50
4.0041e-50
4.00421e-50
4.00432e-50
4.00443e-50
4.00455e-50
4.00467e-50
4.0048e-50
4.00494e-50
4.00508e-50
4.00523e-50
4.00538e-50
4.00553e-50
4.0057e-50
4.00587e-50
4.00604e-50
4.00622e-50
4.00641e-50
4.0066e-50
4.00679e-50
4.007e-50
4.00721e-50
4.00742e-50
4.00765e-50
4.00787e-50
4.00811e-50
4.00835e-50
4.00859e-50
4.00885e-50
4.0091e-50
4.00937e-50
4.00964e-50
4.00991e-50
4.01019e-50
4.01048e-50
4.01077e-50
4.01107e-50
4.01136e-50
4.01163e-50
4.01184e-50
4.01183e-50
4.01128e-50
4.00951e-50
)
;

boundaryField
{
    boundary
    {
        type            empty;
    }
    inlet
    {
        type            fixedValue;
        value           uniform 0;
    }
    outlet
    {
        type            zeroGradient;
    }
    procBoundary2to3
    {
        type            processor;
        value           uniform 4.00597e-50;
    }
}


// ************************************************************************* //
