/*--------------------------------*- C++ -*----------------------------------*\
  =========                 |
  \\      /  F ield         | OpenFOAM: The Open Source CFD Toolbox
   \\    /   O peration     | Website:  https://openfoam.org
    \\  /    A nd           | Version:  7
     \\/     M anipulation  |
\*---------------------------------------------------------------------------*/
FoamFile
{
    version     2.0;
    format      ascii;
    class       volScalarField;
    location    "0.00022";
    object      Qdot;
}
// * * * * * * * * * * * * * * * * * * * * * * * * * * * * * * * * * * * * * //

dimensions      [1 -1 -3 0 0 0 0];

internalField   nonuniform List<scalar> 
125
(
-2.4565e-27
-1.87372e-27
-1.75492e-27
-1.73848e-27
-1.74729e-27
-1.76546e-27
-1.7901e-27
-1.82098e-27
-1.85828e-27
-1.90208e-27
-1.95217e-27
-2.00799e-27
-2.06854e-27
-2.13239e-27
-2.19779e-27
-2.26277e-27
-2.32535e-27
-2.38374e-27
-2.43651e-27
-2.48272e-27
-2.52196e-27
-2.55428e-27
-2.58014e-27
-2.60024e-27
-2.61546e-27
-2.62668e-27
-2.63475e-27
-2.64041e-27
-2.64429e-27
-2.64689e-27
-2.6486e-27
-2.64969e-27
-2.65038e-27
-2.65081e-27
-2.65106e-27
-2.65121e-27
-2.6513e-27
-2.65135e-27
-2.65138e-27
-2.65139e-27
-2.6514e-27
-2.6514e-27
-2.6514e-27
-2.6514e-27
-2.6514e-27
-2.6514e-27
-2.6514e-27
-2.65141e-27
-2.65141e-27
-2.65141e-27
-2.65141e-27
-2.65142e-27
-2.65142e-27
-2.65142e-27
-2.65143e-27
-2.65144e-27
-2.65144e-27
-2.65145e-27
-2.65146e-27
-2.65147e-27
-2.65148e-27
-2.65149e-27
-2.6515e-27
-2.65152e-27
-2.65153e-27
-2.65155e-27
-2.65156e-27
-2.65158e-27
-2.6516e-27
-2.65162e-27
-2.65165e-27
-2.65167e-27
-2.6517e-27
-2.65173e-27
-2.65176e-27
-2.65179e-27
-2.65182e-27
-2.65185e-27
-2.65189e-27
-2.65193e-27
-2.65197e-27
-2.65202e-27
-2.65206e-27
-2.65211e-27
-2.65216e-27
-2.65221e-27
-2.65227e-27
-2.65232e-27
-2.65238e-27
-2.65244e-27
-2.65251e-27
-2.65258e-27
-2.65265e-27
-2.65272e-27
-2.6528e-27
-2.65287e-27
-2.65295e-27
-2.65304e-27
-2.65313e-27
-2.65322e-27
-2.65331e-27
-2.6534e-27
-2.6535e-27
-2.65361e-27
-2.65371e-27
-2.65382e-27
-2.65393e-27
-2.65404e-27
-2.65416e-27
-2.65428e-27
-2.6544e-27
-2.65453e-27
-2.65466e-27
-2.65479e-27
-2.65493e-27
-2.65506e-27
-2.6552e-27
-2.65535e-27
-2.65549e-27
-2.65564e-27
-2.65579e-27
-2.65594e-27
-2.6561e-27
-2.65625e-27
-2.65644e-27
)
;

boundaryField
{
    boundary
    {
        type            empty;
    }
    inlet
    {
        type            calculated;
        value           uniform 0;
    }
    outlet
    {
        type            calculated;
        value           nonuniform 0();
    }
    procBoundary2to3
    {
        type            processor;
        value           uniform 0;
    }
}


// ************************************************************************* //
