/*--------------------------------*- C++ -*----------------------------------*\
  =========                 |
  \\      /  F ield         | OpenFOAM: The Open Source CFD Toolbox
   \\    /   O peration     | Website:  https://openfoam.org
    \\  /    A nd           | Version:  7
     \\/     M anipulation  |
\*---------------------------------------------------------------------------*/
FoamFile
{
    version     2.0;
    format      ascii;
    class       volScalarField;
    location    "0.00011";
    object      p;
}
// * * * * * * * * * * * * * * * * * * * * * * * * * * * * * * * * * * * * * //

dimensions      [1 -1 -2 0 0 0 0];

internalField   nonuniform List<scalar> 
125
(
102945
102946
102946
102946
102946
102946
102946
102946
102946
102946
102946
102946
102946
102947
102947
102947
102947
102947
102947
102947
102947
102947
102947
102947
102947
102947
102947
102947
102947
102946
102944
102942
102940
102937
102935
102934
102932
102931
102930
102929
102928
102927
102927
102927
102926
102926
102926
102925
102925
102925
102925
102924
102924
102924
102924
102924
102924
102923
102923
102923
102923
102923
102923
102923
102923
102923
102923
102922
102922
102922
102922
102922
102922
102922
102922
102922
102922
102922
102922
102922
102922
102921
102921
102921
102921
102921
102921
102921
102921
102921
102921
102921
102921
102921
102921
102921
102920
102920
102920
102920
102920
102920
102920
102920
102920
102920
102920
102920
102920
102920
102920
102919
102919
102919
102919
102919
102919
102919
102919
102919
102919
102919
102919
102919
102919
)
;

boundaryField
{
    boundary
    {
        type            empty;
    }
    inlet
    {
        type            zeroGradient;
    }
    outlet
    {
        type            waveTransmissive;
        gamma           1.4;
        value           nonuniform 0();
    }
    procBoundary1to0
    {
        type            processor;
        value           uniform 102919;
    }
    procBoundary1to3
    {
        type            processor;
        value           uniform 102945;
    }
}


// ************************************************************************* //
