/*--------------------------------*- C++ -*----------------------------------*\
  =========                 |
  \\      /  F ield         | OpenFOAM: The Open Source CFD Toolbox
   \\    /   O peration     | Website:  https://openfoam.org
    \\  /    A nd           | Version:  7
     \\/     M anipulation  |
\*---------------------------------------------------------------------------*/
FoamFile
{
    version     2.0;
    format      ascii;
    class       surfaceScalarField;
    location    "0.00011";
    object      phi;
}
// * * * * * * * * * * * * * * * * * * * * * * * * * * * * * * * * * * * * * //

dimensions      [1 0 -1 0 0 0 0];

internalField   nonuniform List<scalar> 
124
(
6.42137e-06
6.4209e-06
6.42041e-06
6.41991e-06
6.41939e-06
6.41885e-06
6.41829e-06
6.41772e-06
6.41713e-06
6.41652e-06
6.4159e-06
6.41526e-06
6.41461e-06
6.41394e-06
6.41326e-06
6.41256e-06
6.41184e-06
6.41111e-06
6.41035e-06
6.40959e-06
6.40884e-06
6.4082e-06
6.40797e-06
6.40901e-06
6.41354e-06
6.42695e-06
6.46133e-06
6.53742e-06
6.65949e-06
6.78197e-06
6.86887e-06
6.92459e-06
6.96183e-06
6.98816e-06
7.00711e-06
7.02087e-06
7.03074e-06
7.03814e-06
7.0439e-06
7.04873e-06
7.05308e-06
7.05724e-06
7.06132e-06
7.06537e-06
7.06937e-06
7.07329e-06
7.07708e-06
7.08073e-06
7.08421e-06
7.08748e-06
7.09052e-06
7.09325e-06
7.09559e-06
7.09744e-06
7.09868e-06
7.09915e-06
7.0987e-06
7.09716e-06
7.09436e-06
7.09013e-06
7.08432e-06
7.07727e-06
7.06851e-06
7.05792e-06
7.04542e-06
7.03093e-06
7.01441e-06
6.99584e-06
6.97525e-06
6.95268e-06
6.92822e-06
6.90199e-06
6.87414e-06
6.84484e-06
6.81428e-06
6.78269e-06
6.75029e-06
6.71732e-06
6.68403e-06
6.65066e-06
6.61745e-06
6.58463e-06
6.55242e-06
6.52102e-06
6.49062e-06
6.46138e-06
6.43346e-06
6.40696e-06
6.38201e-06
6.35866e-06
6.33699e-06
6.31702e-06
6.29876e-06
6.28222e-06
6.26738e-06
6.25418e-06
6.24258e-06
6.23252e-06
6.22392e-06
6.21669e-06
6.21075e-06
6.20599e-06
6.20231e-06
6.19963e-06
6.19782e-06
6.1968e-06
6.19647e-06
6.19673e-06
6.19749e-06
6.19868e-06
6.2002e-06
6.202e-06
6.204e-06
6.20615e-06
6.2084e-06
6.21069e-06
6.213e-06
6.21528e-06
6.21752e-06
6.21968e-06
6.22175e-06
6.22372e-06
6.22558e-06
6.22734e-06
)
;

boundaryField
{
    boundary
    {
        type            empty;
        value           nonuniform 0();
    }
    inlet
    {
        type            calculated;
        value           nonuniform 0();
    }
    outlet
    {
        type            calculated;
        value           nonuniform 0();
    }
    procBoundary1to0
    {
        type            processor;
        value           uniform 6.229e-06;
    }
    procBoundary1to3
    {
        type            processor;
        value           uniform -6.42183e-06;
    }
}


// ************************************************************************* //
