/*--------------------------------*- C++ -*----------------------------------*\
  =========                 |
  \\      /  F ield         | OpenFOAM: The Open Source CFD Toolbox
   \\    /   O peration     | Website:  https://openfoam.org
    \\  /    A nd           | Version:  7
     \\/     M anipulation  |
\*---------------------------------------------------------------------------*/
FoamFile
{
    version     2.0;
    format      ascii;
    class       volScalarField;
    location    "0.00011";
    object      Qdot;
}
// * * * * * * * * * * * * * * * * * * * * * * * * * * * * * * * * * * * * * //

dimensions      [1 -1 -3 0 0 0 0];

internalField   nonuniform List<scalar> 
125
(
9.25348e-14
6.09971e-13
3.95972e-12
2.52973e-11
1.58955e-10
9.81805e-10
5.95811e-09
3.55083e-08
2.07744e-07
1.19284e-06
6.72072e-06
3.71549e-05
0.000201599
0.00107395
0.00562138
0.0289446
0.146853
0.735912
3.65484
18.0784
95.198
544.448
3725.21
28135.1
235997
2.18958e+06
2.10062e+07
1.91566e+08
1.36991e+09
5.50605e+09
1.10579e+10
1.34634e+10
1.37687e+10
1.37796e+10
1.35483e+10
1.25887e+10
1.08496e+10
8.85336e+09
7.19001e+09
5.93876e+09
4.98078e+09
4.25125e+09
3.68785e+09
3.24402e+09
2.88693e+09
2.59385e+09
2.34895e+09
2.14109e+09
1.96224e+09
1.80653e+09
1.66956e+09
1.54795e+09
1.43907e+09
1.34087e+09
1.25167e+09
1.17015e+09
1.09522e+09
1.02599e+09
9.6174e+08
9.01898e+08
8.46085e+08
7.95231e+08
7.48107e+08
7.0326e+08
6.60671e+08
6.20161e+08
5.81595e+08
5.44882e+08
5.09935e+08
4.76696e+08
4.45103e+08
4.15108e+08
3.86666e+08
3.59736e+08
3.34276e+08
3.10245e+08
2.87599e+08
2.66294e+08
2.46284e+08
2.27517e+08
2.09945e+08
1.93512e+08
1.7817e+08
1.6386e+08
1.5053e+08
1.38125e+08
1.26596e+08
1.1589e+08
1.05958e+08
9.67549e+07
8.82362e+07
8.03563e+07
7.30797e+07
6.63665e+07
6.01808e+07
5.44884e+07
4.92567e+07
4.44552e+07
4.00611e+07
3.60372e+07
3.23616e+07
2.90093e+07
2.59566e+07
2.31784e+07
2.06596e+07
1.83759e+07
1.63112e+07
1.44431e+07
1.27582e+07
1.12403e+07
9.87519e+06
8.64955e+06
7.55043e+06
6.56663e+06
5.68755e+06
4.90294e+06
4.20392e+06
3.58211e+06
3.02972e+06
2.54002e+06
2.10527e+06
1.71863e+06
1.37062e+06
1.04249e+06
710369
)
;

boundaryField
{
    boundary
    {
        type            empty;
    }
    inlet
    {
        type            calculated;
        value           nonuniform 0();
    }
    outlet
    {
        type            calculated;
        value           nonuniform 0();
    }
    procBoundary1to0
    {
        type            processor;
        value           uniform 0;
    }
    procBoundary1to3
    {
        type            processor;
        value           uniform 0;
    }
}


// ************************************************************************* //
