/*--------------------------------*- C++ -*----------------------------------*\
  =========                 |
  \\      /  F ield         | OpenFOAM: The Open Source CFD Toolbox
   \\    /   O peration     | Website:  https://openfoam.org
    \\  /    A nd           | Version:  7
     \\/     M anipulation  |
\*---------------------------------------------------------------------------*/
FoamFile
{
    version     2.0;
    format      ascii;
    class       volScalarField;
    location    "0.00035";
    object      O;
}
// * * * * * * * * * * * * * * * * * * * * * * * * * * * * * * * * * * * * * //

dimensions      [0 0 0 0 0 0 0];

internalField   nonuniform List<scalar> 
125
(
1.58188e-47
3.78009e-47
5.9988e-47
8.22954e-47
1.04736e-46
1.27356e-46
1.50218e-46
1.73405e-46
1.97013e-46
2.21156e-46
2.45955e-46
2.71541e-46
2.98039e-46
3.25564e-46
3.54203e-46
3.8401e-46
4.14983e-46
4.47064e-46
4.80121e-46
5.13951e-46
5.48281e-46
5.82774e-46
6.17045e-46
6.50677e-46
6.83247e-46
7.14348e-46
7.43612e-46
7.7073e-46
7.95469e-46
8.17681e-46
8.37304e-46
8.54359e-46
8.68943e-46
8.81211e-46
8.91364e-46
8.99634e-46
9.06261e-46
9.11489e-46
9.15549e-46
9.18654e-46
9.20992e-46
9.22728e-46
9.23996e-46
9.2491e-46
9.25559e-46
9.26014e-46
9.26328e-46
9.26542e-46
9.26686e-46
9.26782e-46
9.26844e-46
9.26885e-46
9.26911e-46
9.26928e-46
9.26939e-46
9.26947e-46
9.26952e-46
9.26955e-46
9.26959e-46
9.26961e-46
9.26964e-46
9.26967e-46
9.2697e-46
9.26973e-46
9.26977e-46
9.26981e-46
9.26985e-46
9.2699e-46
9.26995e-46
9.27e-46
9.27006e-46
9.27013e-46
9.2702e-46
9.27028e-46
9.27036e-46
9.27045e-46
9.27054e-46
9.27064e-46
9.27075e-46
9.27086e-46
9.27098e-46
9.27111e-46
9.27124e-46
9.27139e-46
9.27154e-46
9.2717e-46
9.27186e-46
9.27204e-46
9.27222e-46
9.27242e-46
9.27262e-46
9.27284e-46
9.27306e-46
9.27329e-46
9.27354e-46
9.27379e-46
9.27406e-46
9.27433e-46
9.27462e-46
9.27492e-46
9.27523e-46
9.27555e-46
9.27588e-46
9.27623e-46
9.27658e-46
9.27695e-46
9.27734e-46
9.27773e-46
9.27814e-46
9.27856e-46
9.27899e-46
9.27944e-46
9.2799e-46
9.28037e-46
9.28085e-46
9.28135e-46
9.28186e-46
9.28239e-46
9.28292e-46
9.28347e-46
9.28402e-46
9.28456e-46
9.28506e-46
9.28537e-46
9.28491e-46
)
;

boundaryField
{
    boundary
    {
        type            empty;
    }
    inlet
    {
        type            fixedValue;
        value           uniform 0;
    }
    outlet
    {
        type            zeroGradient;
    }
    procBoundary2to3
    {
        type            processor;
        value           uniform 9.28302e-46;
    }
}


// ************************************************************************* //
