/*--------------------------------*- C++ -*----------------------------------*\
  =========                 |
  \\      /  F ield         | OpenFOAM: The Open Source CFD Toolbox
   \\    /   O peration     | Website:  https://openfoam.org
    \\  /    A nd           | Version:  7
     \\/     M anipulation  |
\*---------------------------------------------------------------------------*/
FoamFile
{
    version     2.0;
    format      ascii;
    class       volScalarField;
    location    "0.00075";
    object      Qdot;
}
// * * * * * * * * * * * * * * * * * * * * * * * * * * * * * * * * * * * * * //

dimensions      [1 -1 -3 0 0 0 0];

internalField   nonuniform List<scalar> 
125
(
1.5626e-09
5.53893e-09
2.03294e-08
7.74757e-08
3.06289e-07
1.25157e-06
5.25911e-06
2.25993e-05
9.88174e-05
0.000437794
0.00195907
0.00883598
0.0401238
0.183413
0.844748
3.92852
18.5163
94.1188
525.605
3531.34
26552.7
220987
2.03832e+06
1.94343e+07
1.76626e+08
1.27402e+09
5.25435e+09
1.08723e+10
1.3482e+10
1.3871e+10
1.39117e+10
1.37275e+10
1.28166e+10
1.10858e+10
9.0566e+09
7.35424e+09
6.06866e+09
5.08346e+09
4.33342e+09
3.75494e+09
3.30031e+09
2.93577e+09
2.63786e+09
2.39019e+09
2.1812e+09
2.00256e+09
1.84817e+09
1.71347e+09
1.59498e+09
1.49e+09
1.3964e+09
1.31247e+09
1.23685e+09
1.1684e+09
1.1062e+09
1.04945e+09
9.97501e+08
9.49806e+08
9.05897e+08
8.65384e+08
8.2799e+08
7.94312e+08
7.63449e+08
7.34416e+08
7.07141e+08
6.81459e+08
6.57245e+08
6.34369e+08
6.12736e+08
5.92251e+08
5.72829e+08
5.54394e+08
5.36875e+08
5.20213e+08
5.04347e+08
4.89226e+08
4.748e+08
4.61027e+08
4.47864e+08
4.35275e+08
4.23225e+08
4.11683e+08
4.00617e+08
3.90003e+08
3.79814e+08
3.70026e+08
3.60619e+08
3.51571e+08
3.42864e+08
3.3448e+08
3.26403e+08
3.18618e+08
3.1111e+08
3.03865e+08
2.9687e+08
2.90116e+08
2.83589e+08
2.7728e+08
2.71179e+08
2.65276e+08
2.59562e+08
2.5403e+08
2.48671e+08
2.43479e+08
2.38445e+08
2.33564e+08
2.28828e+08
2.24233e+08
2.19773e+08
2.15441e+08
2.11233e+08
2.07145e+08
2.03171e+08
1.99307e+08
1.9555e+08
1.91894e+08
1.88336e+08
1.84873e+08
1.81502e+08
1.78219e+08
1.75021e+08
1.71906e+08
1.68873e+08
1.65923e+08
1.6306e+08
)
;

boundaryField
{
    boundary
    {
        type            empty;
    }
    inlet
    {
        type            calculated;
        value           nonuniform 0();
    }
    outlet
    {
        type            calculated;
        value           nonuniform 0();
    }
    procBoundary1to0
    {
        type            processor;
        value           uniform 0;
    }
    procBoundary1to3
    {
        type            processor;
        value           uniform 0;
    }
}


// ************************************************************************* //
