/*--------------------------------*- C++ -*----------------------------------*\
  =========                 |
  \\      /  F ield         | OpenFOAM: The Open Source CFD Toolbox
   \\    /   O peration     | Website:  https://openfoam.org
    \\  /    A nd           | Version:  7
     \\/     M anipulation  |
\*---------------------------------------------------------------------------*/
FoamFile
{
    version     2.0;
    format      ascii;
    class       volScalarField;
    location    "0.00089";
    object      H2O;
}
// * * * * * * * * * * * * * * * * * * * * * * * * * * * * * * * * * * * * * //

dimensions      [0 0 0 0 0 0 0];

internalField   nonuniform List<scalar> 
500
(
7.88458e-48
2.27856e-47
4.09963e-47
6.14432e-47
8.33995e-47
1.06374e-46
1.30032e-46
1.54146e-46
1.78559e-46
2.0316e-46
2.27872e-46
2.52639e-46
2.77423e-46
3.022e-46
3.26953e-46
3.51678e-46
3.76377e-46
4.01059e-46
4.25739e-46
4.50437e-46
4.75178e-46
4.99988e-46
5.24895e-46
5.49926e-46
5.75109e-46
6.0047e-46
6.26034e-46
6.51823e-46
6.7786e-46
7.04167e-46
7.30767e-46
7.57686e-46
7.84954e-46
8.12606e-46
8.40684e-46
8.69237e-46
8.98324e-46
9.28015e-46
9.58386e-46
9.89525e-46
1.02153e-45
1.0545e-45
1.08856e-45
1.1238e-45
1.16035e-45
1.19832e-45
1.23782e-45
1.27892e-45
1.32172e-45
1.36627e-45
1.41261e-45
1.46073e-45
1.51061e-45
1.56219e-45
1.61537e-45
1.67e-45
1.72591e-45
1.78288e-45
1.84067e-45
1.899e-45
1.95755e-45
2.01601e-45
2.07403e-45
2.13129e-45
2.18743e-45
2.24213e-45
2.29509e-45
2.34602e-45
2.39467e-45
2.44082e-45
2.48432e-45
2.52502e-45
2.56284e-45
2.59774e-45
2.62972e-45
2.65881e-45
2.6851e-45
2.70868e-45
2.72968e-45
2.74826e-45
2.76458e-45
2.77881e-45
2.79114e-45
2.80174e-45
2.8108e-45
2.81849e-45
2.82497e-45
2.83039e-45
2.8349e-45
2.83863e-45
2.84169e-45
2.84419e-45
2.84621e-45
2.84784e-45
2.84915e-45
2.85019e-45
2.85101e-45
2.85166e-45
2.85217e-45
2.85257e-45
2.85289e-45
2.85313e-45
2.85332e-45
2.85347e-45
2.85359e-45
2.85369e-45
2.85377e-45
2.85384e-45
2.85389e-45
2.85394e-45
2.85399e-45
2.85403e-45
2.85407e-45
2.85412e-45
2.85416e-45
2.8542e-45
2.85425e-45
2.85429e-45
2.85434e-45
2.85438e-45
2.85443e-45
2.85444e-45
2.85435e-45
2.85389e-45
2.85206e-45
2.84866e-45
2.84872e-45
2.84879e-45
2.84887e-45
2.84895e-45
2.84903e-45
2.84912e-45
2.84922e-45
2.84932e-45
2.84942e-45
2.84953e-45
2.84965e-45
2.84977e-45
2.84989e-45
2.85002e-45
2.85015e-45
2.85029e-45
2.85042e-45
2.85056e-45
2.85071e-45
2.85086e-45
2.85102e-45
2.8512e-45
2.85139e-45
2.85159e-45
2.85182e-45
2.85207e-45
2.85235e-45
2.85266e-45
2.85299e-45
2.85336e-45
2.85375e-45
2.85417e-45
2.85461e-45
2.85507e-45
2.85555e-45
2.85603e-45
2.85652e-45
2.857e-45
2.85748e-45
2.85794e-45
2.85838e-45
2.8588e-45
2.85919e-45
2.85956e-45
2.8599e-45
2.86021e-45
2.8605e-45
2.86076e-45
2.861e-45
2.86123e-45
2.86144e-45
2.86164e-45
2.86184e-45
2.86204e-45
2.86223e-45
2.86244e-45
2.86265e-45
2.86287e-45
2.8631e-45
2.86335e-45
2.86361e-45
2.86387e-45
2.86415e-45
2.86444e-45
2.86474e-45
2.86504e-45
2.86536e-45
2.86569e-45
2.86609e-45
2.86671e-45
2.86811e-45
2.87224e-45
2.8857e-45
2.93102e-45
3.08463e-45
3.60458e-45
5.35879e-45
1.12556e-44
3.10085e-44
9.69669e-44
3.16619e-43
1.04654e-42
3.46866e-42
1.15014e-41
3.81527e-41
1.2672e-40
4.21927e-40
1.41034e-39
4.7403e-39
1.60479e-38
5.48158e-38
1.89217e-37
6.60959e-37
2.33873e-36
8.38698e-36
3.04832e-35
1.12238e-34
4.18268e-34
1.57576e-33
5.99308e-33
2.29787e-32
8.86995e-32
3.44266e-31
1.34204e-30
5.24961e-30
2.05892e-29
8.09142e-29
3.18464e-28
1.25478e-27
4.94769e-27
1.95187e-26
7.70231e-26
3.03972e-25
1.19957e-24
4.73301e-24
1.86691e-23
7.36106e-23
2.90101e-22
1.14266e-21
4.49805e-21
1.7695e-20
6.95641e-20
2.73296e-19
1.07301e-18
4.21039e-18
1.66021e-17
6.5251e-17
2.55879e-16
1.00279e-15
3.92936e-15
1.5398e-14
6.03531e-14
2.36631e-13
9.28147e-13
3.64218e-12
1.42994e-11
5.61688e-11
2.20741e-10
8.67901e-10
3.41377e-09
1.34322e-08
5.28658e-08
2.08098e-07
8.19114e-07
3.22293e-06
1.26655e-05
4.95969e-05
0.000192286
0.000725044
0.00254347
0.00762161
0.0179339
0.0329233
0.0513737
0.0736575
0.0992445
0.124939
0.146932
0.163571
0.175246
0.183184
0.188561
0.192265
0.194901
0.196862
0.198393
0.199646
0.200715
0.201657
0.20251
0.203295
0.204027
0.204715
0.205368
0.205988
0.20658
0.207147
0.207691
0.208212
0.208715
0.209198
0.209664
0.210114
0.210549
0.210968
0.211374
0.211754
0.212116
0.21247
0.212815
0.213151
0.21348
0.213801
0.214115
0.214422
0.214723
0.215017
0.215304
0.215586
0.215863
0.216134
0.216399
0.21666
0.216915
0.217166
0.217412
0.217654
0.217892
0.218125
0.218354
0.21858
0.218801
0.219019
0.219234
0.219445
0.219652
0.219857
0.220058
0.220256
0.220451
0.220643
0.220832
0.221018
0.221202
0.221383
0.221562
0.221737
0.221911
0.222082
0.222251
0.222417
0.222581
0.222743
0.222902
0.22306
0.223215
0.223369
0.22352
0.22367
0.223817
0.223963
0.224107
0.224249
0.224389
0.224527
0.224664
0.224799
0.224932
0.225064
0.225193
0.225321
0.225449
0.225575
0.2257
0.225823
0.225945
0.226066
0.226185
0.226303
0.22642
0.226536
0.22665
0.226764
0.226876
0.226987
0.227097
0.227206
0.227314
0.227421
0.227527
0.227632
0.227736
0.227839
0.227941
0.228043
0.228143
0.228243
0.228341
0.228439
0.228536
0.228632
0.228727
0.228822
0.228916
0.229009
0.229101
0.229192
0.229282
0.229372
0.229461
0.229549
0.229637
0.229724
0.22981
0.229895
0.22998
0.230064
0.230147
0.230229
0.230311
0.230392
0.230473
0.230553
0.230632
0.23071
0.230788
0.230866
0.230942
0.231018
0.231094
0.231168
0.231242
0.231316
0.231389
0.231461
0.231533
0.231605
0.231675
0.231745
0.231815
0.231884
0.231952
0.23202
0.232088
0.232155
0.232221
0.232287
0.232352
0.232417
0.232482
0.232546
0.232609
0.232672
0.232734
0.232796
0.232858
0.232919
0.232979
0.23304
0.233099
0.233159
0.233218
0.233276
0.233334
0.233392
0.23345
0.233507
0.233563
0.23362
0.233676
0.233732
0.233787
0.233842
0.233897
0.233952
0.234006
0.23406
0.234114
0.234168
0.234222
0.234275
0.234329
0.234382
0.234435
0.234488
0.234541
0.234594
0.234646
0.234698
0.234748
0.234797
0.234843
0.234882
0.234908
)
;

boundaryField
{
    boundary
    {
        type            empty;
    }
    inlet
    {
        type            fixedValue;
        value           uniform 0;
    }
    outlet
    {
        type            zeroGradient;
    }
}


// ************************************************************************* //
