/*--------------------------------*- C++ -*----------------------------------*\
  =========                 |
  \\      /  F ield         | OpenFOAM: The Open Source CFD Toolbox
   \\    /   O peration     | Website:  https://openfoam.org
    \\  /    A nd           | Version:  7
     \\/     M anipulation  |
\*---------------------------------------------------------------------------*/
FoamFile
{
    version     2.0;
    format      ascii;
    class       volScalarField;
    location    "0.00089";
    object      H2O2;
}
// * * * * * * * * * * * * * * * * * * * * * * * * * * * * * * * * * * * * * //

dimensions      [0 0 0 0 0 0 0];

internalField   nonuniform List<scalar> 
500
(
1.99287e-52
6.40293e-52
1.27292e-51
2.09719e-51
3.11299e-51
4.32006e-51
5.71795e-51
7.30606e-51
9.08355e-51
1.10494e-50
1.32026e-50
1.55419e-50
1.80664e-50
2.0775e-50
2.36672e-50
2.6743e-50
3.00026e-50
3.34471e-50
3.70781e-50
4.08978e-50
4.49089e-50
4.91148e-50
5.35191e-50
5.81259e-50
6.29394e-50
6.79641e-50
7.32044e-50
7.86651e-50
8.43514e-50
9.02688e-50
9.64233e-50
1.02822e-49
1.09473e-49
1.16385e-49
1.2357e-49
1.31041e-49
1.38814e-49
1.46904e-49
1.55334e-49
1.64124e-49
1.73299e-49
1.82886e-49
1.92911e-49
2.03404e-49
2.14393e-49
2.25905e-49
2.37965e-49
2.50597e-49
2.63816e-49
2.77636e-49
2.92059e-49
3.07082e-49
3.22689e-49
3.38856e-49
3.55545e-49
3.72707e-49
3.90283e-49
4.08198e-49
4.2637e-49
4.44707e-49
4.63106e-49
4.81463e-49
4.99666e-49
5.17604e-49
5.35169e-49
5.52254e-49
5.68761e-49
5.846e-49
5.99692e-49
6.13972e-49
6.27387e-49
6.39898e-49
6.51483e-49
6.62132e-49
6.71849e-49
6.80651e-49
6.88567e-49
6.95633e-49
7.01896e-49
7.07406e-49
7.12218e-49
7.16392e-49
7.19985e-49
7.23058e-49
7.25666e-49
7.27865e-49
7.29706e-49
7.31237e-49
7.32501e-49
7.33539e-49
7.34384e-49
7.35069e-49
7.3562e-49
7.36061e-49
7.36412e-49
7.36689e-49
7.36907e-49
7.37078e-49
7.37211e-49
7.37315e-49
7.37395e-49
7.37458e-49
7.37507e-49
7.37545e-49
7.37575e-49
7.376e-49
7.3762e-49
7.37637e-49
7.37652e-49
7.37665e-49
7.37677e-49
7.37689e-49
7.377e-49
7.37712e-49
7.37723e-49
7.37735e-49
7.37747e-49
7.3776e-49
7.37773e-49
7.37786e-49
7.37797e-49
7.37798e-49
7.37758e-49
7.37556e-49
7.36714e-49
7.35047e-49
7.35066e-49
7.35086e-49
7.35107e-49
7.3513e-49
7.35153e-49
7.35178e-49
7.35204e-49
7.35232e-49
7.35261e-49
7.35292e-49
7.35324e-49
7.35357e-49
7.35392e-49
7.35427e-49
7.35463e-49
7.355e-49
7.35537e-49
7.35576e-49
7.35617e-49
7.35659e-49
7.35705e-49
7.35753e-49
7.35807e-49
7.35866e-49
7.35931e-49
7.36005e-49
7.36087e-49
7.36178e-49
7.36279e-49
7.3639e-49
7.36511e-49
7.36641e-49
7.36779e-49
7.36924e-49
7.37074e-49
7.37227e-49
7.37381e-49
7.37534e-49
7.37683e-49
7.37826e-49
7.37962e-49
7.38089e-49
7.38205e-49
7.38311e-49
7.38407e-49
7.38493e-49
7.3857e-49
7.38639e-49
7.38703e-49
7.38763e-49
7.38822e-49
7.38881e-49
7.38943e-49
7.39008e-49
7.3908e-49
7.39158e-49
7.39244e-49
7.39338e-49
7.3944e-49
7.39549e-49
7.39666e-49
7.39789e-49
7.39917e-49
7.40049e-49
7.40183e-49
7.40319e-49
7.40454e-49
7.40588e-49
7.40719e-49
7.40847e-49
7.4097e-49
7.4109e-49
7.41212e-49
7.41366e-49
7.41701e-49
7.42916e-49
7.48326e-49
7.7349e-49
8.91059e-49
1.43845e-48
3.97435e-48
1.56613e-47
6.92452e-47
3.13695e-46
1.42344e-45
6.43766e-45
2.89904e-44
1.29982e-43
5.80318e-43
2.58035e-42
1.14289e-41
5.04343e-41
2.21786e-40
9.72116e-40
4.24786e-39
1.8509e-38
8.04358e-38
3.48707e-37
1.50837e-36
6.51145e-36
2.8058e-35
1.20705e-34
5.1851e-34
2.22447e-33
9.53223e-33
4.08057e-32
1.74523e-31
7.45822e-31
3.18492e-30
1.35916e-29
5.79647e-29
2.47053e-28
1.05233e-27
4.4796e-27
1.90567e-26
8.10141e-26
3.44162e-25
1.46096e-24
6.19687e-24
2.62638e-23
1.11222e-22
4.70623e-22
1.98987e-21
8.40755e-21
3.55013e-20
1.50677e-19
6.37243e-19
2.68919e-18
1.13428e-17
4.78418e-17
2.01827e-16
8.51714e-16
3.59583e-15
1.5189e-14
6.41956e-14
2.71481e-13
1.14877e-12
4.86379e-12
2.0604e-11
8.73253e-11
3.70267e-10
1.57052e-09
6.66316e-09
2.82701e-08
1.19868e-07
5.06822e-07
2.12027e-06
8.54182e-06
3.04337e-05
7.7773e-05
0.000116433
0.000119481
7.70497e-05
3.52264e-05
1.40861e-05
6.51747e-06
4.56351e-06
4.57027e-06
5.1543e-06
5.78172e-06
6.27067e-06
6.58342e-06
6.73985e-06
6.77578e-06
6.72565e-06
6.61721e-06
6.47107e-06
6.30173e-06
6.11951e-06
5.93137e-06
5.74206e-06
5.55477e-06
5.37159e-06
5.19386e-06
5.02239e-06
4.85763e-06
4.69978e-06
4.54886e-06
4.40479e-06
4.26737e-06
4.13639e-06
4.0116e-06
3.89273e-06
3.77952e-06
3.67174e-06
3.56919e-06
3.47464e-06
3.38567e-06
3.30025e-06
3.2182e-06
3.13935e-06
3.06356e-06
2.99066e-06
2.92051e-06
2.853e-06
2.78798e-06
2.72535e-06
2.66498e-06
2.60678e-06
2.55064e-06
2.49646e-06
2.44415e-06
2.39363e-06
2.34482e-06
2.29763e-06
2.252e-06
2.20786e-06
2.16514e-06
2.12379e-06
2.08373e-06
2.04492e-06
2.0073e-06
1.97082e-06
1.93544e-06
1.90111e-06
1.86779e-06
1.83544e-06
1.80401e-06
1.77348e-06
1.7438e-06
1.71495e-06
1.68689e-06
1.6596e-06
1.63304e-06
1.60718e-06
1.58201e-06
1.5575e-06
1.53361e-06
1.51034e-06
1.48766e-06
1.46554e-06
1.44398e-06
1.42294e-06
1.40242e-06
1.38239e-06
1.36284e-06
1.34375e-06
1.32511e-06
1.30691e-06
1.28912e-06
1.27174e-06
1.25476e-06
1.23815e-06
1.22192e-06
1.20605e-06
1.19054e-06
1.17536e-06
1.16053e-06
1.14603e-06
1.13187e-06
1.11799e-06
1.10433e-06
1.09094e-06
1.07783e-06
1.06498e-06
1.05238e-06
1.04004e-06
1.02793e-06
1.01607e-06
1.00443e-06
9.93018e-07
9.8182e-07
9.70834e-07
9.60053e-07
9.49471e-07
9.39084e-07
9.28886e-07
9.18873e-07
9.09039e-07
8.9938e-07
8.89891e-07
8.80569e-07
8.71409e-07
8.62407e-07
8.5356e-07
8.44863e-07
8.36313e-07
8.27907e-07
8.19642e-07
8.11513e-07
8.03519e-07
7.95655e-07
7.87919e-07
7.80309e-07
7.72821e-07
7.65453e-07
7.58203e-07
7.51067e-07
7.44044e-07
7.3713e-07
7.30324e-07
7.23624e-07
7.17027e-07
7.10531e-07
7.04134e-07
6.97834e-07
6.91629e-07
6.85518e-07
6.79498e-07
6.73567e-07
6.67724e-07
6.61967e-07
6.56294e-07
6.50704e-07
6.45195e-07
6.39765e-07
6.34413e-07
6.29137e-07
6.23937e-07
6.1881e-07
6.13755e-07
6.08771e-07
6.03856e-07
5.99009e-07
5.9423e-07
5.89516e-07
5.84866e-07
5.8028e-07
5.75757e-07
5.71294e-07
5.66891e-07
5.62548e-07
5.58262e-07
5.54033e-07
5.49861e-07
5.45744e-07
5.4168e-07
5.3767e-07
5.33713e-07
5.29807e-07
5.25951e-07
5.22146e-07
5.18389e-07
5.14681e-07
5.1102e-07
5.07405e-07
5.03836e-07
5.00312e-07
4.96833e-07
4.93397e-07
4.90004e-07
4.86652e-07
4.83343e-07
4.80073e-07
4.76844e-07
4.73654e-07
4.70502e-07
4.67389e-07
4.64312e-07
4.61272e-07
4.58268e-07
4.55299e-07
4.52365e-07
4.49465e-07
4.46598e-07
4.43764e-07
4.40962e-07
4.38193e-07
4.35455e-07
4.32748e-07
4.30072e-07
4.27427e-07
4.24814e-07
4.22234e-07
4.19688e-07
4.1718e-07
4.14713e-07
4.12295e-07
4.09939e-07
4.07668e-07
4.05519e-07
4.03558e-07
4.01912e-07
4.00829e-07
)
;

boundaryField
{
    boundary
    {
        type            empty;
    }
    inlet
    {
        type            fixedValue;
        value           uniform 0;
    }
    outlet
    {
        type            zeroGradient;
    }
}


// ************************************************************************* //
