/*--------------------------------*- C++ -*----------------------------------*\
  =========                 |
  \\      /  F ield         | OpenFOAM: The Open Source CFD Toolbox
   \\    /   O peration     | Website:  https://openfoam.org
    \\  /    A nd           | Version:  7
     \\/     M anipulation  |
\*---------------------------------------------------------------------------*/
FoamFile
{
    version     2.0;
    format      ascii;
    class       volScalarField;
    location    "0.00089";
    object      HO2;
}
// * * * * * * * * * * * * * * * * * * * * * * * * * * * * * * * * * * * * * //

dimensions      [0 0 0 0 0 0 0];

internalField   nonuniform List<scalar> 
500
(
5.59315e-38
1.27299e-37
1.9894e-37
2.70645e-37
3.42365e-37
4.14079e-37
4.85768e-37
5.57412e-37
6.28986e-37
7.00464e-37
7.71818e-37
8.43023e-37
9.14058e-37
9.84911e-37
1.05558e-36
1.12607e-36
1.1964e-36
1.26661e-36
1.33673e-36
1.40683e-36
1.47695e-36
1.54717e-36
1.61755e-36
1.68816e-36
1.75906e-36
1.83031e-36
1.90196e-36
1.97406e-36
2.04666e-36
2.11981e-36
2.19355e-36
2.26793e-36
2.34301e-36
2.41885e-36
2.49555e-36
2.5732e-36
2.65192e-36
2.73184e-36
2.81313e-36
2.89595e-36
2.98052e-36
3.06702e-36
3.15569e-36
3.24675e-36
3.34042e-36
3.43691e-36
3.53641e-36
3.6391e-36
3.74509e-36
3.85447e-36
3.96726e-36
4.08343e-36
4.20284e-36
4.32533e-36
4.4506e-36
4.57832e-36
4.70804e-36
4.83925e-36
4.97139e-36
5.1038e-36
5.23582e-36
5.36674e-36
5.49583e-36
5.62237e-36
5.74565e-36
5.86502e-36
5.97987e-36
6.08963e-36
6.19385e-36
6.29215e-36
6.38422e-36
6.46988e-36
6.54901e-36
6.62162e-36
6.68778e-36
6.74763e-36
6.80141e-36
6.84938e-36
6.89189e-36
6.92928e-36
6.96196e-36
6.99031e-36
7.01473e-36
7.03564e-36
7.05341e-36
7.06842e-36
7.081e-36
7.09148e-36
7.10016e-36
7.1073e-36
7.11313e-36
7.11786e-36
7.12168e-36
7.12475e-36
7.12719e-36
7.12913e-36
7.13067e-36
7.13187e-36
7.13281e-36
7.13355e-36
7.13412e-36
7.13457e-36
7.13492e-36
7.1352e-36
7.13542e-36
7.13559e-36
7.13574e-36
7.13586e-36
7.13597e-36
7.13606e-36
7.13615e-36
7.13623e-36
7.13631e-36
7.13639e-36
7.13647e-36
7.13656e-36
7.13664e-36
7.13673e-36
7.13682e-36
7.13691e-36
7.13699e-36
7.13703e-36
7.13686e-36
7.13591e-36
7.13184e-36
7.1238e-36
7.12393e-36
7.12407e-36
7.12421e-36
7.12437e-36
7.12453e-36
7.12471e-36
7.1249e-36
7.12509e-36
7.1253e-36
7.12552e-36
7.12575e-36
7.12598e-36
7.12623e-36
7.12648e-36
7.12673e-36
7.12698e-36
7.12724e-36
7.1275e-36
7.12777e-36
7.12804e-36
7.12833e-36
7.12863e-36
7.12896e-36
7.12931e-36
7.12969e-36
7.13012e-36
7.13059e-36
7.13111e-36
7.13168e-36
7.13231e-36
7.13298e-36
7.1337e-36
7.13447e-36
7.13526e-36
7.13609e-36
7.13692e-36
7.13776e-36
7.13859e-36
7.1394e-36
7.14018e-36
7.14092e-36
7.14161e-36
7.14226e-36
7.14285e-36
7.14339e-36
7.14388e-36
7.14434e-36
7.14476e-36
7.14516e-36
7.14555e-36
7.14594e-36
7.14634e-36
7.14675e-36
7.1472e-36
7.14768e-36
7.1482e-36
7.14877e-36
7.14938e-36
7.15003e-36
7.15072e-36
7.15146e-36
7.15222e-36
7.15301e-36
7.15381e-36
7.15463e-36
7.15545e-36
7.15627e-36
7.15707e-36
7.15786e-36
7.15863e-36
7.15937e-36
7.16007e-36
7.16074e-36
7.16138e-36
7.16197e-36
7.16252e-36
7.16303e-36
7.1635e-36
7.16393e-36
7.16431e-36
7.16465e-36
7.16495e-36
7.16522e-36
7.16545e-36
7.1657e-36
7.16609e-36
7.16699e-36
7.16965e-36
7.17804e-36
7.20477e-36
7.28982e-36
7.55967e-36
8.41325e-36
1.11061e-35
1.95815e-35
4.62023e-35
1.29674e-34
3.91048e-34
1.20873e-33
3.76569e-33
1.17633e-32
3.68035e-32
1.15363e-31
3.62644e-31
1.14485e-30
3.63629e-30
1.16461e-29
3.77113e-29
1.2383e-28
4.13634e-28
1.40982e-27
4.9154e-27
1.75594e-26
6.42985e-26
2.41136e-25
9.24367e-25
3.61212e-24
1.43442e-23
5.77093e-23
2.34558e-22
9.60809e-22
3.9587e-21
1.63805e-20
6.79912e-20
2.82851e-19
1.18526e-18
4.95752e-18
2.07157e-17
8.65952e-17
3.62197e-16
1.51584e-15
6.34749e-15
2.65932e-14
1.11464e-13
4.67377e-13
1.96036e-12
8.22434e-12
3.45082e-11
1.44795e-10
6.07485e-10
2.54801e-09
1.06819e-08
4.47353e-08
1.86926e-07
7.76651e-07
3.18629e-06
1.27335e-05
4.79215e-05
0.000157328
0.000378439
0.000518939
0.000479734
0.000372334
0.000266901
0.000187389
0.000131075
9.1354e-05
6.39237e-05
4.56477e-05
3.38658e-05
2.62838e-05
2.13437e-05
1.80397e-05
1.57488e-05
1.40935e-05
1.28459e-05
1.18682e-05
1.10755e-05
1.04146e-05
9.85089e-06
9.36162e-06
8.93094e-06
8.54763e-06
8.2034e-06
7.892e-06
7.60857e-06
7.34927e-06
7.11095e-06
6.89108e-06
6.6875e-06
6.49844e-06
6.32236e-06
6.15797e-06
6.00418e-06
5.86005e-06
5.72487e-06
5.60179e-06
5.48713e-06
5.37807e-06
5.27422e-06
5.1752e-06
5.08069e-06
4.99037e-06
4.90398e-06
4.82127e-06
4.74202e-06
4.666e-06
4.59303e-06
4.52294e-06
4.45556e-06
4.39073e-06
4.32833e-06
4.26821e-06
4.21026e-06
4.15436e-06
4.10042e-06
4.04833e-06
3.998e-06
3.94935e-06
3.9023e-06
3.85677e-06
3.81269e-06
3.77e-06
3.72864e-06
3.68854e-06
3.64966e-06
3.61194e-06
3.57533e-06
3.53979e-06
3.50526e-06
3.47173e-06
3.43913e-06
3.40744e-06
3.37663e-06
3.34665e-06
3.31748e-06
3.28909e-06
3.26145e-06
3.23453e-06
3.20831e-06
3.18277e-06
3.15787e-06
3.13361e-06
3.10995e-06
3.08688e-06
3.06437e-06
3.04242e-06
3.021e-06
3.00009e-06
2.97969e-06
2.95976e-06
2.94031e-06
2.92131e-06
2.90275e-06
2.88463e-06
2.86692e-06
2.84963e-06
2.83274e-06
2.81625e-06
2.80019e-06
2.78446e-06
2.76897e-06
2.7538e-06
2.73895e-06
2.72441e-06
2.71016e-06
2.69621e-06
2.68255e-06
2.66915e-06
2.65602e-06
2.64315e-06
2.63053e-06
2.61815e-06
2.60601e-06
2.59409e-06
2.58239e-06
2.57091e-06
2.55964e-06
2.54857e-06
2.53769e-06
2.52701e-06
2.51651e-06
2.5062e-06
2.49606e-06
2.48609e-06
2.4763e-06
2.46666e-06
2.45719e-06
2.44787e-06
2.43871e-06
2.4297e-06
2.42083e-06
2.41211e-06
2.40353e-06
2.39508e-06
2.38677e-06
2.37859e-06
2.37055e-06
2.36263e-06
2.35483e-06
2.34716e-06
2.3396e-06
2.33217e-06
2.32485e-06
2.31764e-06
2.31055e-06
2.30356e-06
2.29668e-06
2.28991e-06
2.28324e-06
2.27667e-06
2.27019e-06
2.26382e-06
2.25754e-06
2.25135e-06
2.24526e-06
2.23925e-06
2.23333e-06
2.2275e-06
2.22175e-06
2.21608e-06
2.2105e-06
2.20499e-06
2.19957e-06
2.19422e-06
2.18894e-06
2.18374e-06
2.17862e-06
2.17356e-06
2.16857e-06
2.16366e-06
2.15881e-06
2.15403e-06
2.14931e-06
2.14466e-06
2.14008e-06
2.13555e-06
2.13109e-06
2.12668e-06
2.12234e-06
2.11805e-06
2.11383e-06
2.10966e-06
2.10554e-06
2.10148e-06
2.09747e-06
2.09351e-06
2.0896e-06
2.08574e-06
2.08193e-06
2.07817e-06
2.07445e-06
2.07077e-06
2.06713e-06
2.06354e-06
2.05999e-06
2.05647e-06
2.05298e-06
2.04953e-06
2.04612e-06
2.04273e-06
2.03937e-06
2.03603e-06
2.03272e-06
2.02943e-06
2.02616e-06
2.0229e-06
2.01966e-06
2.01643e-06
2.01321e-06
2.00999e-06
2.00678e-06
2.00357e-06
2.00035e-06
1.99713e-06
1.99391e-06
1.99067e-06
1.98744e-06
1.98422e-06
1.98102e-06
1.97789e-06
1.97491e-06
1.97228e-06
1.97042e-06
)
;

boundaryField
{
    boundary
    {
        type            empty;
    }
    inlet
    {
        type            fixedValue;
        value           uniform 0;
    }
    outlet
    {
        type            zeroGradient;
    }
}


// ************************************************************************* //
