/*--------------------------------*- C++ -*----------------------------------*\
  =========                 |
  \\      /  F ield         | OpenFOAM: The Open Source CFD Toolbox
   \\    /   O peration     | Website:  https://openfoam.org
    \\  /    A nd           | Version:  7
     \\/     M anipulation  |
\*---------------------------------------------------------------------------*/
FoamFile
{
    version     2.0;
    format      ascii;
    class       volScalarField;
    location    "0.00089";
    object      O;
}
// * * * * * * * * * * * * * * * * * * * * * * * * * * * * * * * * * * * * * //

dimensions      [0 0 0 0 0 0 0];

internalField   nonuniform List<scalar> 
500
(
1.57764e-47
3.76433e-47
5.96346e-47
8.16361e-47
1.0362e-46
1.25576e-46
1.47497e-46
1.69375e-46
1.912e-46
2.12964e-46
2.34656e-46
2.56269e-46
2.77796e-46
2.99234e-46
3.20583e-46
3.41848e-46
3.63037e-46
3.84163e-46
4.05242e-46
4.26294e-46
4.47341e-46
4.68408e-46
4.8952e-46
5.10701e-46
5.31976e-46
5.5337e-46
5.74904e-46
5.96601e-46
6.18482e-46
6.40569e-46
6.62885e-46
6.85455e-46
7.08306e-46
7.31472e-46
7.5499e-46
7.78903e-46
8.0326e-46
8.2812e-46
8.53545e-46
8.79606e-46
9.06378e-46
9.33943e-46
9.62384e-46
9.91786e-46
1.02223e-45
1.05381e-45
1.08658e-45
1.12061e-45
1.15597e-45
1.19267e-45
1.23075e-45
1.2702e-45
1.31099e-45
1.35306e-45
1.39634e-45
1.44072e-45
1.48607e-45
1.53222e-45
1.57899e-45
1.62617e-45
1.67353e-45
1.72082e-45
1.76781e-45
1.81424e-45
1.85984e-45
1.90438e-45
1.94761e-45
1.98933e-45
2.02933e-45
2.06744e-45
2.10352e-45
2.13745e-45
2.16916e-45
2.1986e-45
2.22576e-45
2.25063e-45
2.27327e-45
2.29373e-45
2.31211e-45
2.32851e-45
2.34304e-45
2.35583e-45
2.36702e-45
2.37673e-45
2.38512e-45
2.39232e-45
2.39845e-45
2.40364e-45
2.408e-45
2.41165e-45
2.41469e-45
2.41719e-45
2.41924e-45
2.42092e-45
2.42228e-45
2.42338e-45
2.42426e-45
2.42496e-45
2.42552e-45
2.42596e-45
2.42631e-45
2.42659e-45
2.4268e-45
2.42697e-45
2.42711e-45
2.42722e-45
2.42731e-45
2.42738e-45
2.42744e-45
2.42749e-45
2.42754e-45
2.42758e-45
2.42762e-45
2.42766e-45
2.4277e-45
2.42774e-45
2.42778e-45
2.42782e-45
2.42785e-45
2.42789e-45
2.4279e-45
2.42787e-45
2.42769e-45
2.4271e-45
2.42528e-45
2.42264e-45
2.4227e-45
2.42276e-45
2.42283e-45
2.4229e-45
2.42297e-45
2.42305e-45
2.42313e-45
2.42322e-45
2.42332e-45
2.42342e-45
2.42352e-45
2.42363e-45
2.42375e-45
2.42387e-45
2.424e-45
2.42413e-45
2.42428e-45
2.42443e-45
2.42459e-45
2.42476e-45
2.42495e-45
2.42516e-45
2.42538e-45
2.42562e-45
2.42588e-45
2.42617e-45
2.42647e-45
2.4268e-45
2.42715e-45
2.42751e-45
2.42789e-45
2.42827e-45
2.42867e-45
2.42907e-45
2.42947e-45
2.42986e-45
2.43024e-45
2.43062e-45
2.43098e-45
2.43132e-45
2.43165e-45
2.43195e-45
2.43224e-45
2.43252e-45
2.43278e-45
2.43302e-45
2.43325e-45
2.43347e-45
2.43367e-45
2.43388e-45
2.43407e-45
2.43427e-45
2.43446e-45
2.43465e-45
2.43485e-45
2.43504e-45
2.43524e-45
2.43545e-45
2.43566e-45
2.43587e-45
2.43609e-45
2.43631e-45
2.43655e-45
2.43681e-45
2.43718e-45
2.43791e-45
2.43986e-45
2.44609e-45
2.46712e-45
2.5391e-45
2.7856e-45
3.62692e-45
6.48548e-45
1.61522e-44
4.86864e-44
1.57667e-43
5.21025e-43
1.72699e-42
5.71165e-42
1.88198e-41
6.1757e-41
2.01818e-40
6.56847e-40
2.12936e-39
6.87647e-39
2.21245e-38
7.09303e-38
2.26623e-37
7.21697e-37
2.29113e-36
7.25202e-36
2.28902e-35
7.20598e-35
2.26287e-34
7.08953e-34
2.21635e-33
6.91497e-33
2.15348e-32
6.69508e-32
2.07825e-31
6.44212e-31
1.99436e-30
6.16708e-30
1.90503e-29
5.87922e-29
1.81289e-28
5.58587e-28
1.71992e-27
5.29239e-27
1.62756e-26
5.0024e-26
1.53669e-25
4.7181e-25
1.44784e-24
4.44069e-24
1.36129e-23
4.17084e-23
1.27722e-22
3.90913e-22
1.19584e-21
3.6564e-21
1.11747e-20
3.41385e-20
1.04257e-19
3.18305e-19
9.75962e-19
2.98701e-18
9.12467e-18
2.786e-17
8.50623e-17
2.59758e-16
7.9345e-16
2.42444e-15
7.41068e-15
2.26603e-14
6.93158e-14
2.12106e-13
6.49256e-13
1.98796e-12
6.08846e-12
1.86509e-11
5.71433e-11
1.75106e-10
5.36715e-10
1.6464e-09
5.06756e-09
1.58245e-08
5.22678e-08
2.0549e-07
1.12508e-06
7.81557e-06
4.54844e-05
0.00019913
0.000685644
0.00167914
0.00301746
0.00432839
0.00533987
0.00598887
0.00632826
0.00645309
0.00644219
0.00635153
0.00621733
0.00606178
0.00589793
0.00573327
0.00557192
0.00541605
0.00526671
0.00512427
0.00498875
0.00485995
0.00473758
0.00462129
0.00451072
0.00440551
0.00430531
0.00420979
0.00411866
0.00403162
0.00394841
0.00386879
0.00379256
0.00371951
0.00364951
0.00358443
0.00352292
0.00346344
0.00340587
0.00335013
0.0032961
0.00324372
0.00319291
0.00314359
0.0030957
0.00304917
0.00300395
0.00295998
0.00291721
0.00287558
0.00283505
0.00279558
0.00275713
0.00271965
0.00268311
0.00264746
0.00261269
0.00257875
0.00254562
0.00251326
0.00248165
0.00245077
0.00242058
0.00239106
0.0023622
0.00233397
0.00230634
0.00227931
0.00225284
0.00222693
0.00220156
0.0021767
0.00215235
0.00212849
0.0021051
0.00208217
0.00205969
0.00203765
0.00201603
0.00199482
0.00197401
0.0019536
0.00193356
0.00191389
0.00189458
0.00187563
0.00185701
0.00183873
0.00182077
0.00180313
0.0017858
0.00176877
0.00175204
0.00173559
0.00171943
0.00170355
0.00168795
0.00167263
0.00165759
0.00164278
0.00162812
0.00161369
0.00159948
0.0015855
0.00157174
0.00155818
0.00154483
0.00153168
0.00151872
0.00150595
0.00149337
0.00148096
0.00146874
0.00145669
0.0014448
0.00143308
0.00142153
0.00141013
0.00139888
0.00138779
0.00137684
0.00136604
0.00135538
0.00134486
0.00133448
0.00132424
0.00131412
0.00130414
0.00129428
0.00128455
0.00127494
0.00126545
0.00125608
0.00124683
0.0012377
0.00122868
0.00121977
0.00121097
0.00120229
0.0011937
0.00118523
0.00117685
0.00116858
0.00116041
0.00115234
0.00114436
0.00113648
0.0011287
0.00112101
0.00111341
0.0011059
0.00109848
0.00109114
0.00108389
0.00107673
0.00106965
0.00106265
0.00105573
0.00104889
0.00104213
0.00103544
0.00102883
0.0010223
0.00101584
0.00100945
0.00100314
0.000996891
0.000990716
0.000984609
0.00097857
0.000972598
0.000966692
0.000960852
0.000955075
0.000949363
0.000943712
0.000938124
0.000932597
0.00092713
0.000921723
0.000916374
0.000911084
0.00090585
0.000900674
0.000895552
0.000890486
0.000885474
0.000880516
0.00087561
0.000870755
0.000865952
0.000861199
0.000856496
0.000851841
0.000847235
0.000842675
0.000838161
0.000833694
0.00082927
0.000824891
0.000820555
0.000816261
0.000812009
0.000807797
0.000803626
0.000799494
0.000795402
0.000791348
0.000787333
0.000783357
0.00077942
0.000775524
0.00077167
0.000767864
0.00076411
0.000760418
0.000756804
0.000753292
0.00074992
0.000746752
0.000743897
0.000741544
0.000740036
)
;

boundaryField
{
    boundary
    {
        type            empty;
    }
    inlet
    {
        type            fixedValue;
        value           uniform 0;
    }
    outlet
    {
        type            zeroGradient;
    }
}


// ************************************************************************* //
