/*--------------------------------*- C++ -*----------------------------------*\
  =========                 |
  \\      /  F ield         | OpenFOAM: The Open Source CFD Toolbox
   \\    /   O peration     | Website:  https://openfoam.org
    \\  /    A nd           | Version:  7
     \\/     M anipulation  |
\*---------------------------------------------------------------------------*/
FoamFile
{
    version     2.0;
    format      ascii;
    class       volScalarField;
    location    "0.00089";
    object      O2;
}
// * * * * * * * * * * * * * * * * * * * * * * * * * * * * * * * * * * * * * //

dimensions      [0 0 0 0 0 0 0];

internalField   nonuniform List<scalar> 
500
(
0.226269
0.226269
0.226269
0.226269
0.226269
0.226269
0.226269
0.226269
0.226269
0.226269
0.226269
0.226269
0.226269
0.226269
0.226269
0.226269
0.226269
0.226269
0.226269
0.226269
0.226269
0.226269
0.226269
0.226269
0.226269
0.226269
0.226269
0.226269
0.226269
0.226269
0.226269
0.226269
0.226269
0.226269
0.226269
0.226269
0.226269
0.226269
0.226269
0.226269
0.226269
0.226269
0.226269
0.226269
0.226269
0.226269
0.226269
0.226269
0.226269
0.226269
0.226269
0.226269
0.226269
0.226269
0.226269
0.226269
0.226269
0.226269
0.226269
0.226269
0.226269
0.226269
0.226269
0.226269
0.226269
0.226269
0.226269
0.226269
0.226269
0.226269
0.226269
0.226269
0.226269
0.226269
0.226269
0.226269
0.226269
0.226269
0.226269
0.226269
0.226269
0.226269
0.226269
0.226269
0.226269
0.226269
0.226269
0.226269
0.226269
0.226269
0.226269
0.226269
0.226269
0.226269
0.226269
0.226269
0.226269
0.226269
0.226269
0.226269
0.226269
0.226269
0.226269
0.226269
0.226269
0.226269
0.226269
0.226269
0.226269
0.226269
0.226269
0.226269
0.226269
0.226269
0.226269
0.226269
0.226269
0.226269
0.226269
0.226269
0.226269
0.226269
0.226269
0.226269
0.226269
0.226269
0.226269
0.226269
0.226269
0.226269
0.226269
0.226269
0.226269
0.226269
0.226269
0.226269
0.226269
0.226269
0.226269
0.226269
0.226269
0.226269
0.226269
0.226269
0.226269
0.226269
0.226269
0.226269
0.226269
0.226269
0.226269
0.226269
0.226269
0.226269
0.226269
0.226269
0.226269
0.226269
0.226269
0.226269
0.226269
0.226269
0.226269
0.226269
0.226269
0.226269
0.226269
0.226269
0.226269
0.226269
0.226269
0.226269
0.226269
0.226269
0.226269
0.226269
0.226269
0.226269
0.226269
0.226269
0.226269
0.226269
0.226269
0.226269
0.226269
0.226269
0.226269
0.226269
0.226269
0.226269
0.226269
0.226269
0.226269
0.226269
0.226269
0.226269
0.226269
0.226269
0.226269
0.226269
0.226269
0.226269
0.226269
0.226269
0.226269
0.226269
0.226269
0.226269
0.226269
0.226269
0.226269
0.226269
0.226269
0.226269
0.226269
0.226269
0.226269
0.226269
0.226269
0.226269
0.226269
0.226269
0.226269
0.226269
0.226269
0.226269
0.226269
0.226269
0.226269
0.226269
0.226269
0.226269
0.226269
0.226269
0.226269
0.226269
0.226269
0.226269
0.226269
0.226269
0.226269
0.226269
0.226269
0.226269
0.226269
0.226269
0.226269
0.226269
0.226269
0.226269
0.226269
0.226269
0.226269
0.226269
0.226269
0.226269
0.226269
0.226269
0.226269
0.226269
0.226269
0.226269
0.226269
0.226269
0.226269
0.226269
0.226269
0.22627
0.226271
0.226273
0.226276
0.226278
0.226264
0.226168
0.225739
0.224245
0.220152
0.211563
0.198954
0.18302
0.162587
0.137759
0.111846
0.0891007
0.0715655
0.0590909
0.0505237
0.0447017
0.0407123
0.0379146
0.0358845
0.0343497
0.0331385
0.0321434
0.0312967
0.0305558
0.0298932
0.0292908
0.0287366
0.028222
0.0277411
0.0272893
0.0268631
0.0264597
0.0260769
0.0257128
0.0253657
0.0250343
0.0247174
0.024414
0.0241234
0.0238449
0.0235863
0.0233404
0.0231022
0.0228711
0.0226468
0.022429
0.0222173
0.0220114
0.021811
0.0216158
0.0214257
0.0212403
0.0210595
0.0208831
0.0207108
0.0205426
0.0203781
0.0202174
0.0200601
0.0199063
0.0197557
0.0196082
0.0194638
0.0193222
0.0191835
0.0190475
0.0189141
0.0187832
0.0186548
0.0185287
0.0184049
0.0182834
0.018164
0.0180467
0.0179314
0.017818
0.0177066
0.0175971
0.0174894
0.0173834
0.0172792
0.0171766
0.0170757
0.0169764
0.0168787
0.0167824
0.0166877
0.0165944
0.0165026
0.0164121
0.016323
0.0162353
0.0161488
0.0160636
0.0159797
0.015897
0.0158155
0.0157352
0.015656
0.015578
0.0155011
0.0154254
0.0153509
0.0152777
0.0152054
0.0151335
0.0150624
0.0149923
0.0149229
0.0148545
0.0147868
0.01472
0.0146539
0.0145885
0.0145239
0.01446
0.0143968
0.0143343
0.0142724
0.0142111
0.0141505
0.0140905
0.014031
0.0139722
0.0139139
0.0138561
0.0137989
0.0137422
0.0136861
0.0136304
0.0135753
0.0135207
0.0134665
0.0134128
0.0133597
0.013307
0.0132547
0.013203
0.0131517
0.0131008
0.0130504
0.0130005
0.012951
0.0129019
0.0128533
0.0128052
0.0127574
0.0127101
0.0126632
0.0126167
0.0125707
0.012525
0.0124798
0.012435
0.0123905
0.0123465
0.0123028
0.0122595
0.0122166
0.0121741
0.012132
0.0120902
0.0120487
0.0120077
0.0119669
0.0119266
0.0118865
0.0118469
0.0118075
0.0117685
0.0117298
0.0116915
0.0116534
0.0116157
0.0115783
0.0115412
0.0115044
0.011468
0.0114318
0.0113959
0.0113603
0.0113251
0.0112901
0.0112554
0.011221
0.0111868
0.011153
0.0111194
0.0110861
0.011053
0.0110202
0.0109876
0.0109553
0.0109232
0.0108914
0.0108598
0.0108284
0.0107972
0.0107662
0.0107354
0.0107048
0.0106743
0.010644
0.0106139
0.0105839
0.010554
0.0105243
0.0104947
0.0104651
0.0104356
0.0104062
0.0103769
0.0103475
0.0103182
0.0102889
0.0102595
0.0102301
0.0102007
0.0101711
0.0101415
0.0101117
0.0100819
0.010052
0.0100223
0.00999302
0.00996512
0.00994037
0.00992301
)
;

boundaryField
{
    boundary
    {
        type            empty;
    }
    inlet
    {
        type            fixedValue;
        value           uniform 0.226269;
    }
    outlet
    {
        type            zeroGradient;
    }
}


// ************************************************************************* //
