/*--------------------------------*- C++ -*----------------------------------*\
  =========                 |
  \\      /  F ield         | OpenFOAM: The Open Source CFD Toolbox
   \\    /   O peration     | Website:  https://openfoam.org
    \\  /    A nd           | Version:  7
     \\/     M anipulation  |
\*---------------------------------------------------------------------------*/
FoamFile
{
    version     2.0;
    format      ascii;
    class       volScalarField;
    location    "0.00089";
    object      OH;
}
// * * * * * * * * * * * * * * * * * * * * * * * * * * * * * * * * * * * * * //

dimensions      [0 0 0 0 0 0 0];

internalField   nonuniform List<scalar> 
500
(
9.38504e-48
1.82916e-47
2.43829e-47
2.85092e-47
3.12998e-47
3.31894e-47
3.44722e-47
3.53462e-47
3.5944e-47
3.63544e-47
3.66367e-47
3.68309e-47
3.69634e-47
3.70524e-47
3.71101e-47
3.71454e-47
3.71643e-47
3.71717e-47
3.71714e-47
3.71664e-47
3.71595e-47
3.7153e-47
3.7149e-47
3.71493e-47
3.71555e-47
3.7169e-47
3.71909e-47
3.7222e-47
3.72632e-47
3.73151e-47
3.73781e-47
3.74527e-47
3.75395e-47
3.7639e-47
3.7752e-47
3.78792e-47
3.80218e-47
3.8181e-47
3.83584e-47
3.85556e-47
3.87748e-47
3.90179e-47
3.92875e-47
3.95858e-47
3.99156e-47
4.02791e-47
4.06791e-47
4.11178e-47
4.15973e-47
4.21196e-47
4.26861e-47
4.3298e-47
4.39559e-47
4.46596e-47
4.54087e-47
4.62016e-47
4.70365e-47
4.79103e-47
4.88197e-47
4.97602e-47
5.07269e-47
5.17142e-47
5.27159e-47
5.37255e-47
5.47361e-47
5.57408e-47
5.67326e-47
5.77048e-47
5.86509e-47
5.95649e-47
6.04416e-47
6.12762e-47
6.2065e-47
6.28051e-47
6.34943e-47
6.41315e-47
6.47162e-47
6.5249e-47
6.5731e-47
6.61638e-47
6.65498e-47
6.68916e-47
6.71921e-47
6.74546e-47
6.76824e-47
6.78786e-47
6.80466e-47
6.81894e-47
6.83101e-47
6.84115e-47
6.8496e-47
6.85662e-47
6.8624e-47
6.86714e-47
6.871e-47
6.87413e-47
6.87666e-47
6.87869e-47
6.88031e-47
6.8816e-47
6.88262e-47
6.88343e-47
6.88408e-47
6.88459e-47
6.885e-47
6.88533e-47
6.8856e-47
6.88582e-47
6.88601e-47
6.88618e-47
6.88632e-47
6.88645e-47
6.88658e-47
6.8867e-47
6.88682e-47
6.88693e-47
6.88705e-47
6.88717e-47
6.8873e-47
6.88742e-47
6.88755e-47
6.88767e-47
6.88776e-47
6.88776e-47
6.88748e-47
6.88701e-47
6.88719e-47
6.88739e-47
6.8876e-47
6.88783e-47
6.88809e-47
6.88837e-47
6.88867e-47
6.889e-47
6.88936e-47
6.88974e-47
6.89014e-47
6.89056e-47
6.89098e-47
6.89139e-47
6.8918e-47
6.8922e-47
6.89258e-47
6.89294e-47
6.89328e-47
6.8936e-47
6.8939e-47
6.89418e-47
6.89446e-47
6.89472e-47
6.89499e-47
6.89527e-47
6.89555e-47
6.89585e-47
6.89617e-47
6.89651e-47
6.89687e-47
6.89726e-47
6.89766e-47
6.89809e-47
6.89854e-47
6.89901e-47
6.89949e-47
6.89998e-47
6.90048e-47
6.901e-47
6.90151e-47
6.90203e-47
6.90256e-47
6.90309e-47
6.90362e-47
6.90415e-47
6.90469e-47
6.90523e-47
6.90577e-47
6.90631e-47
6.90686e-47
6.90741e-47
6.90797e-47
6.90853e-47
6.90909e-47
6.90966e-47
6.91024e-47
6.91082e-47
6.9114e-47
6.91198e-47
6.91257e-47
6.91316e-47
6.91375e-47
6.91434e-47
6.91495e-47
6.91562e-47
6.91649e-47
6.91811e-47
6.92232e-47
6.93546e-47
6.97925e-47
7.12752e-47
7.63026e-47
9.32965e-47
1.50494e-46
3.42123e-46
9.8118e-46
3.10264e-45
1.01137e-44
3.31823e-44
1.08761e-43
3.55347e-43
1.1566e-42
3.74999e-42
1.2112e-41
3.89759e-41
1.24975e-40
3.99355e-40
1.27195e-39
4.03854e-39
1.27846e-38
4.0358e-38
1.27063e-37
3.99052e-37
1.25034e-36
3.90919e-36
1.21976e-35
3.79888e-35
1.18114e-34
3.66667e-34
1.13666e-33
3.51914e-33
1.08829e-32
3.36205e-32
1.03769e-31
3.20024e-31
9.86253e-31
3.0376e-30
9.35082e-30
2.87736e-29
8.85151e-29
2.72263e-28
8.37529e-28
2.57741e-27
7.9384e-27
2.44864e-26
7.57133e-26
2.34999e-25
7.33598e-25
2.3096e-24
7.36052e-24
2.38585e-23
7.91094e-23
2.69995e-22
9.53955e-22
3.5228e-21
1.34995e-20
5.36529e-20
2.20508e-19
9.31981e-19
4.02634e-18
1.76822e-17
7.85785e-17
3.52123e-16
1.58704e-15
7.18109e-15
3.25797e-14
1.48076e-13
6.73833e-13
3.06899e-12
1.39867e-11
6.37757e-11
2.92549e-10
1.35881e-09
6.36486e-09
3.00129e-08
1.44284e-07
7.38714e-07
4.36927e-06
2.97859e-05
0.000175816
0.000530455
0.000790259
0.000944655
0.00128839
0.0020424
0.00321597
0.00461392
0.00599991
0.00720846
0.00819842
0.00898154
0.00959211
0.0100673
0.010439
0.0107324
0.0109661
0.0111538
0.0113055
0.0114287
0.0115288
0.01161
0.0116756
0.011728
0.0117693
0.0118012
0.011825
0.0118417
0.0118524
0.0118579
0.0118587
0.0118554
0.0118487
0.0118388
0.0118261
0.011811
0.0117944
0.0117764
0.011757
0.0117362
0.0117141
0.0116908
0.0116666
0.0116414
0.0116153
0.0115885
0.011561
0.0115329
0.0115043
0.0114751
0.0114455
0.0114155
0.0113852
0.0113545
0.0113236
0.0112924
0.0112611
0.0112295
0.0111978
0.011166
0.011134
0.011102
0.0110699
0.0110378
0.0110056
0.0109734
0.0109412
0.0109091
0.0108769
0.0108448
0.0108127
0.0107807
0.0107488
0.0107169
0.0106851
0.0106534
0.0106218
0.0105903
0.0105589
0.0105276
0.0104965
0.0104654
0.0104345
0.0104038
0.0103732
0.0103427
0.0103124
0.0102822
0.0102522
0.0102224
0.0101927
0.0101632
0.0101338
0.0101046
0.0100756
0.0100468
0.0100181
0.00998964
0.00996138
0.00993334
0.00990541
0.00987747
0.00984968
0.00982206
0.00979458
0.00976726
0.00974008
0.00971305
0.00968617
0.00965942
0.00963282
0.00960635
0.00958001
0.00955381
0.00952774
0.00950181
0.009476
0.00945032
0.00942476
0.00939933
0.00937403
0.00934885
0.00932379
0.00929886
0.00927405
0.00924936
0.0092248
0.00920036
0.00917604
0.00915185
0.00912778
0.00910383
0.00908001
0.00905632
0.00903275
0.0090093
0.00898599
0.0089628
0.00893973
0.0089168
0.00889398
0.0088713
0.00884875
0.00882632
0.00880401
0.00878184
0.00875979
0.00873787
0.00871607
0.0086944
0.00867285
0.00865143
0.00863013
0.00860895
0.00858789
0.00856696
0.00854615
0.00852546
0.00850489
0.00848444
0.0084641
0.00844389
0.00842379
0.00840382
0.00838395
0.00836421
0.00834458
0.00832506
0.00830567
0.00828638
0.00826722
0.00824817
0.00822923
0.0082104
0.00819169
0.0081731
0.00815462
0.00813625
0.00811799
0.00809985
0.00808182
0.0080639
0.0080461
0.00802841
0.00801083
0.00799336
0.00797599
0.00795874
0.0079416
0.00792456
0.00790763
0.00789081
0.00787409
0.00785748
0.00784096
0.00782455
0.00780824
0.00779202
0.0077759
0.00775988
0.00774395
0.00772811
0.00771237
0.00769671
0.00768114
0.00766565
0.00765025
0.00763494
0.00761971
0.00760456
0.00758951
0.00757454
0.00755968
0.00754493
0.00753032
0.00751586
0.00750162
0.00748766
0.00747409
0.0074611
0.00744894
0.00743808
0.00742922
0.0074236
)
;

boundaryField
{
    boundary
    {
        type            empty;
    }
    inlet
    {
        type            fixedValue;
        value           uniform 0;
    }
    outlet
    {
        type            zeroGradient;
    }
}


// ************************************************************************* //
