/*--------------------------------*- C++ -*----------------------------------*\
  =========                 |
  \\      /  F ield         | OpenFOAM: The Open Source CFD Toolbox
   \\    /   O peration     | Website:  https://openfoam.org
    \\  /    A nd           | Version:  7
     \\/     M anipulation  |
\*---------------------------------------------------------------------------*/
FoamFile
{
    version     2.0;
    format      ascii;
    class       surfaceScalarField;
    location    "0.00089";
    object      phi;
}
// * * * * * * * * * * * * * * * * * * * * * * * * * * * * * * * * * * * * * //

dimensions      [1 0 -1 0 0 0 0];

internalField   nonuniform List<scalar> 
499
(
6.93061e-06
6.93054e-06
6.93046e-06
6.93038e-06
6.9303e-06
6.93023e-06
6.93015e-06
6.93009e-06
6.93002e-06
6.92996e-06
6.92991e-06
6.92987e-06
6.92984e-06
6.92981e-06
6.9298e-06
6.9298e-06
6.92981e-06
6.92983e-06
6.92985e-06
6.92987e-06
6.9299e-06
6.92993e-06
6.92995e-06
6.92996e-06
6.92996e-06
6.92996e-06
6.92994e-06
6.9299e-06
6.92985e-06
6.92978e-06
6.92969e-06
6.92959e-06
6.92947e-06
6.92932e-06
6.92916e-06
6.92897e-06
6.92876e-06
6.92852e-06
6.92826e-06
6.92797e-06
6.92765e-06
6.9273e-06
6.9269e-06
6.92647e-06
6.92599e-06
6.92547e-06
6.9249e-06
6.92428e-06
6.9236e-06
6.92287e-06
6.92209e-06
6.92125e-06
6.92035e-06
6.9194e-06
6.9184e-06
6.91736e-06
6.91627e-06
6.91514e-06
6.91398e-06
6.9128e-06
6.9116e-06
6.91039e-06
6.90918e-06
6.90797e-06
6.90678e-06
6.90561e-06
6.90446e-06
6.90335e-06
6.90228e-06
6.90125e-06
6.90027e-06
6.89934e-06
6.89847e-06
6.89766e-06
6.8969e-06
6.8962e-06
6.89555e-06
6.89496e-06
6.89443e-06
6.89394e-06
6.8935e-06
6.89311e-06
6.89275e-06
6.89244e-06
6.89216e-06
6.89191e-06
6.89169e-06
6.89149e-06
6.89131e-06
6.89116e-06
6.89102e-06
6.89089e-06
6.89078e-06
6.89067e-06
6.89058e-06
6.89049e-06
6.89041e-06
6.89034e-06
6.89026e-06
6.8902e-06
6.89013e-06
6.89007e-06
6.89e-06
6.88994e-06
6.88988e-06
6.88982e-06
6.88977e-06
6.88971e-06
6.88965e-06
6.88959e-06
6.88954e-06
6.88948e-06
6.88942e-06
6.88937e-06
6.88931e-06
6.88925e-06
6.8892e-06
6.88914e-06
6.88908e-06
6.88903e-06
6.88897e-06
6.88891e-06
6.88886e-06
6.8888e-06
6.88874e-06
6.88869e-06
6.88863e-06
6.88857e-06
6.88851e-06
6.88846e-06
6.8884e-06
6.88834e-06
6.88828e-06
6.88822e-06
6.88816e-06
6.8881e-06
6.88804e-06
6.88798e-06
6.88792e-06
6.88786e-06
6.8878e-06
6.88774e-06
6.88768e-06
6.88762e-06
6.88756e-06
6.8875e-06
6.88744e-06
6.88738e-06
6.88731e-06
6.88725e-06
6.88719e-06
6.88713e-06
6.88707e-06
6.88701e-06
6.88695e-06
6.88688e-06
6.88682e-06
6.88676e-06
6.88669e-06
6.88663e-06
6.88656e-06
6.8865e-06
6.88643e-06
6.88636e-06
6.88629e-06
6.88622e-06
6.88616e-06
6.88608e-06
6.88601e-06
6.88594e-06
6.88587e-06
6.8858e-06
6.88572e-06
6.88565e-06
6.88557e-06
6.88549e-06
6.88542e-06
6.88534e-06
6.88526e-06
6.88518e-06
6.88509e-06
6.88501e-06
6.88492e-06
6.88484e-06
6.88475e-06
6.88466e-06
6.88457e-06
6.88448e-06
6.88438e-06
6.88429e-06
6.88419e-06
6.88409e-06
6.88399e-06
6.88389e-06
6.88378e-06
6.88368e-06
6.88357e-06
6.88346e-06
6.88335e-06
6.88323e-06
6.88311e-06
6.883e-06
6.88288e-06
6.88275e-06
6.88263e-06
6.8825e-06
6.88237e-06
6.88224e-06
6.88211e-06
6.88197e-06
6.88183e-06
6.8817e-06
6.88155e-06
6.88141e-06
6.88127e-06
6.88112e-06
6.88097e-06
6.88082e-06
6.88067e-06
6.88052e-06
6.88036e-06
6.88021e-06
6.88006e-06
6.8799e-06
6.87975e-06
6.87959e-06
6.87944e-06
6.87928e-06
6.87913e-06
6.87898e-06
6.87883e-06
6.87868e-06
6.87854e-06
6.8784e-06
6.87826e-06
6.87812e-06
6.87799e-06
6.87787e-06
6.87775e-06
6.87763e-06
6.87753e-06
6.87743e-06
6.87733e-06
6.87725e-06
6.87717e-06
6.8771e-06
6.87704e-06
6.87699e-06
6.87695e-06
6.87692e-06
6.8769e-06
6.87688e-06
6.87688e-06
6.87689e-06
6.87691e-06
6.87694e-06
6.87698e-06
6.87703e-06
6.87708e-06
6.87715e-06
6.87722e-06
6.8773e-06
6.87738e-06
6.87747e-06
6.87756e-06
6.87765e-06
6.87775e-06
6.87785e-06
6.87798e-06
6.87819e-06
6.87868e-06
6.87998e-06
6.8837e-06
6.89416e-06
6.92097e-06
6.97403e-06
7.04088e-06
7.09536e-06
7.13129e-06
7.15502e-06
7.17209e-06
7.18567e-06
7.19768e-06
7.20829e-06
7.21399e-06
7.21992e-06
7.22194e-06
7.22153e-06
7.22039e-06
7.21941e-06
7.21887e-06
7.21875e-06
7.21893e-06
7.21929e-06
7.21973e-06
7.22021e-06
7.22068e-06
7.22114e-06
7.22157e-06
7.22198e-06
7.22235e-06
7.22271e-06
7.22304e-06
7.22334e-06
7.22363e-06
7.2239e-06
7.22415e-06
7.22439e-06
7.22462e-06
7.22483e-06
7.22503e-06
7.22522e-06
7.22539e-06
7.22555e-06
7.2257e-06
7.22585e-06
7.22599e-06
7.22613e-06
7.22626e-06
7.22638e-06
7.2265e-06
7.22662e-06
7.22673e-06
7.22683e-06
7.22694e-06
7.22703e-06
7.22713e-06
7.22722e-06
7.22731e-06
7.22739e-06
7.22747e-06
7.22755e-06
7.22763e-06
7.2277e-06
7.22777e-06
7.22784e-06
7.22791e-06
7.22797e-06
7.22804e-06
7.2281e-06
7.22816e-06
7.22822e-06
7.22828e-06
7.22833e-06
7.22839e-06
7.22844e-06
7.22849e-06
7.22854e-06
7.22859e-06
7.22864e-06
7.22868e-06
7.22873e-06
7.22877e-06
7.22881e-06
7.22886e-06
7.22889e-06
7.22893e-06
7.22897e-06
7.22901e-06
7.22904e-06
7.22907e-06
7.2291e-06
7.22913e-06
7.22916e-06
7.22918e-06
7.22921e-06
7.22923e-06
7.22925e-06
7.22927e-06
7.22929e-06
7.2293e-06
7.22932e-06
7.22933e-06
7.22934e-06
7.22935e-06
7.22936e-06
7.22937e-06
7.22937e-06
7.22938e-06
7.22939e-06
7.22939e-06
7.2294e-06
7.2294e-06
7.22941e-06
7.22941e-06
7.22942e-06
7.22942e-06
7.22943e-06
7.22943e-06
7.22944e-06
7.22945e-06
7.22946e-06
7.22946e-06
7.22947e-06
7.22948e-06
7.22949e-06
7.22951e-06
7.22952e-06
7.22953e-06
7.22954e-06
7.22956e-06
7.22957e-06
7.22959e-06
7.2296e-06
7.22962e-06
7.22963e-06
7.22965e-06
7.22967e-06
7.22968e-06
7.2297e-06
7.22971e-06
7.22973e-06
7.22974e-06
7.22976e-06
7.22977e-06
7.22979e-06
7.2298e-06
7.22981e-06
7.22983e-06
7.22984e-06
7.22985e-06
7.22986e-06
7.22987e-06
7.22988e-06
7.22989e-06
7.2299e-06
7.2299e-06
7.22991e-06
7.22992e-06
7.22992e-06
7.22993e-06
7.22993e-06
7.22994e-06
7.22994e-06
7.22994e-06
7.22995e-06
7.22995e-06
7.22995e-06
7.22995e-06
7.22995e-06
7.22995e-06
7.22995e-06
7.22995e-06
7.22994e-06
7.22994e-06
7.22994e-06
7.22993e-06
7.22992e-06
7.22992e-06
7.22991e-06
7.2299e-06
7.22989e-06
7.22988e-06
7.22987e-06
7.22985e-06
7.22984e-06
7.22982e-06
7.22981e-06
7.22979e-06
7.22977e-06
7.22975e-06
7.22972e-06
7.2297e-06
7.22967e-06
7.22964e-06
7.22961e-06
7.22958e-06
7.22955e-06
7.22951e-06
7.22948e-06
7.22944e-06
7.2294e-06
7.22935e-06
7.22931e-06
7.22926e-06
7.22921e-06
7.22916e-06
7.22911e-06
7.22905e-06
7.22899e-06
7.22893e-06
7.22887e-06
7.22881e-06
7.22874e-06
7.22867e-06
7.2286e-06
7.22852e-06
7.22844e-06
7.22837e-06
7.22828e-06
7.2282e-06
7.22811e-06
7.22802e-06
7.22793e-06
7.22784e-06
7.22775e-06
7.22765e-06
7.22756e-06
7.22746e-06
)
;

boundaryField
{
    boundary
    {
        type            empty;
        value           nonuniform 0();
    }
    inlet
    {
        type            calculated;
        value           uniform -6.93069e-06;
    }
    outlet
    {
        type            calculated;
        value           uniform 7.22737e-06;
    }
}


// ************************************************************************* //
