/*--------------------------------*- C++ -*----------------------------------*\
  =========                 |
  \\      /  F ield         | OpenFOAM: The Open Source CFD Toolbox
   \\    /   O peration     | Website:  https://openfoam.org
    \\  /    A nd           | Version:  7
     \\/     M anipulation  |
\*---------------------------------------------------------------------------*/
FoamFile
{
    version     2.0;
    format      ascii;
    class       volScalarField;
    location    "0.00089";
    object      Qdot;
}
// * * * * * * * * * * * * * * * * * * * * * * * * * * * * * * * * * * * * * //

dimensions      [1 -1 -3 0 0 0 0];

internalField   nonuniform List<scalar> 
500
(
-2.45231e-27
-1.863e-27
-1.73629e-27
-1.7093e-27
-1.70379e-27
-1.70287e-27
-1.70288e-27
-1.70302e-27
-1.70307e-27
-1.70299e-27
-1.70272e-27
-1.70224e-27
-1.70154e-27
-1.70061e-27
-1.69945e-27
-1.69808e-27
-1.69653e-27
-1.69484e-27
-1.69305e-27
-1.69122e-27
-1.68941e-27
-1.68768e-27
-1.68608e-27
-1.68466e-27
-1.68349e-27
-1.68259e-27
-1.682e-27
-1.68176e-27
-1.68189e-27
-1.6824e-27
-1.68332e-27
-1.68465e-27
-1.68642e-27
-1.68865e-27
-1.69135e-27
-1.69455e-27
-1.69829e-27
-1.70262e-27
-1.70758e-27
-1.71324e-27
-1.71966e-27
-1.72691e-27
-1.73507e-27
-1.74422e-27
-1.75445e-27
-1.76584e-27
-1.77847e-27
-1.79241e-27
-1.80774e-27
-1.8245e-27
-1.84275e-27
-1.8625e-27
-1.88379e-27
-1.90658e-27
-1.93086e-27
-1.95657e-27
-1.98362e-27
-2.01193e-27
-2.04136e-27
-2.07176e-27
-2.10296e-27
-2.13478e-27
-2.167e-27
-2.19941e-27
-2.23178e-27
-2.2639e-27
-2.29554e-27
-2.32648e-27
-2.35652e-27
-2.38548e-27
-2.41318e-27
-2.4395e-27
-2.46432e-27
-2.48755e-27
-2.50914e-27
-2.52906e-27
-2.5473e-27
-2.56388e-27
-2.57886e-27
-2.59228e-27
-2.60423e-27
-2.6148e-27
-2.62407e-27
-2.63216e-27
-2.63917e-27
-2.6452e-27
-2.65035e-27
-2.65473e-27
-2.65842e-27
-2.66152e-27
-2.66411e-27
-2.66625e-27
-2.66801e-27
-2.66946e-27
-2.67063e-27
-2.67158e-27
-2.67235e-27
-2.67297e-27
-2.67346e-27
-2.67385e-27
-2.67416e-27
-2.67441e-27
-2.6746e-27
-2.67476e-27
-2.67488e-27
-2.67498e-27
-2.67507e-27
-2.67513e-27
-2.67519e-27
-2.67524e-27
-2.67529e-27
-2.67533e-27
-2.67537e-27
-2.6754e-27
-2.67544e-27
-2.67548e-27
-2.67551e-27
-2.67555e-27
-2.67559e-27
-2.67563e-27
-2.67567e-27
-2.67571e-27
-2.67576e-27
-2.67579e-27
-2.67581e-27
-2.6758e-27
-2.67586e-27
-2.67592e-27
-2.67599e-27
-2.67606e-27
-2.67614e-27
-2.67623e-27
-2.67633e-27
-2.67644e-27
-2.67655e-27
-2.67667e-27
-2.6768e-27
-2.67693e-27
-2.67706e-27
-2.67719e-27
-2.67732e-27
-2.67744e-27
-2.67756e-27
-2.67767e-27
-2.67777e-27
-2.67787e-27
-2.67796e-27
-2.67804e-27
-2.67811e-27
-2.67819e-27
-2.67826e-27
-2.67833e-27
-2.67841e-27
-2.67849e-27
-2.67858e-27
-2.67867e-27
-2.67876e-27
-2.67887e-27
-2.67898e-27
-2.6791e-27
-2.67923e-27
-2.67936e-27
-2.6795e-27
-2.67964e-27
-2.67978e-27
-2.67993e-27
-2.68008e-27
-2.68024e-27
-2.6804e-27
-2.68056e-27
-2.68072e-27
-2.68088e-27
-2.68104e-27
-2.68121e-27
-2.68138e-27
-2.68155e-27
-2.68172e-27
-2.68189e-27
-2.68206e-27
-2.68224e-27
-2.68241e-27
-2.68259e-27
-2.68277e-27
-2.68295e-27
-2.68313e-27
-2.68331e-27
-2.6835e-27
-2.68368e-27
-2.68386e-27
-2.68404e-27
-2.68422e-27
-2.6844e-27
-2.68458e-27
-2.68475e-27
-2.68493e-27
-2.68509e-27
-2.68526e-27
-2.68542e-27
-2.68557e-27
-2.68572e-27
-2.68586e-27
-2.686e-27
-2.68613e-27
-2.68625e-27
-2.68635e-27
-2.68643e-27
-2.68643e-27
-2.68623e-27
-2.68536e-27
-2.68237e-27
-2.6726e-27
-2.64108e-27
-2.5401e-27
-2.21789e-27
-1.19327e-27
2.05492e-27
1.23223e-26
4.46885e-26
1.46455e-25
4.6566e-25
1.46464e-24
4.58455e-24
1.43094e-23
4.45687e-23
1.38568e-22
4.30143e-22
1.33336e-21
4.12787e-21
1.27646e-20
3.9431e-20
1.21694e-19
3.75268e-19
1.15637e-18
3.56099e-18
1.09597e-17
3.37143e-17
1.0367e-16
3.18682e-16
9.79452e-16
3.01025e-15
9.25388e-15
2.84644e-14
8.76538e-14
2.7044e-13
8.36954e-13
2.60248e-12
8.1499e-12
2.57871e-11
8.27936e-11
2.71177e-10
9.11624e-10
3.18129e-09
1.14902e-08
4.31153e-08
1.68255e-07
6.80871e-07
2.8422e-06
1.21649e-05
5.30779e-05
0.00023494
0.00105102
0.00473987
0.0215169
0.0982739
0.451822
2.09455
9.82054
48.0129
256.403
1618.19
11747.4
92801.2
831446
7.87794e+06
7.40286e+07
6.07328e+08
3.24037e+09
8.81705e+09
1.28817e+10
1.38481e+10
1.39219e+10
1.38817e+10
1.3242e+10
1.17497e+10
9.84901e+09
8.07273e+09
6.61183e+09
5.48606e+09
4.63305e+09
3.98241e+09
3.47739e+09
3.07713e+09
2.75331e+09
2.48629e+09
2.26252e+09
2.07232e+09
1.90869e+09
1.76647e+09
1.64177e+09
1.53161e+09
1.43361e+09
1.34594e+09
1.26709e+09
1.19583e+09
1.13117e+09
1.07226e+09
1.0184e+09
9.68994e+08
9.23549e+08
8.81637e+08
8.42903e+08
8.07097e+08
7.74804e+08
7.45169e+08
7.17256e+08
6.91004e+08
6.66265e+08
6.42905e+08
6.20821e+08
5.99917e+08
5.80105e+08
5.61306e+08
5.43448e+08
5.26468e+08
5.10306e+08
4.94906e+08
4.80221e+08
4.66204e+08
4.52813e+08
4.4001e+08
4.2776e+08
4.1603e+08
4.04788e+08
3.94009e+08
3.83664e+08
3.73731e+08
3.64186e+08
3.55009e+08
3.46181e+08
3.37683e+08
3.29498e+08
3.2161e+08
3.14005e+08
3.06669e+08
2.99588e+08
2.9275e+08
2.86145e+08
2.79761e+08
2.73588e+08
2.67616e+08
2.61837e+08
2.56242e+08
2.50822e+08
2.45572e+08
2.40482e+08
2.35547e+08
2.3076e+08
2.26116e+08
2.21607e+08
2.1723e+08
2.12978e+08
2.08847e+08
2.04832e+08
2.00928e+08
1.97133e+08
1.9344e+08
1.89848e+08
1.86351e+08
1.82947e+08
1.79632e+08
1.76403e+08
1.73258e+08
1.70193e+08
1.67208e+08
1.64304e+08
1.6148e+08
1.58724e+08
1.5602e+08
1.53376e+08
1.50795e+08
1.48275e+08
1.45815e+08
1.4341e+08
1.41061e+08
1.38766e+08
1.36522e+08
1.34328e+08
1.32183e+08
1.30085e+08
1.28032e+08
1.26024e+08
1.24059e+08
1.22135e+08
1.20252e+08
1.18408e+08
1.16602e+08
1.14833e+08
1.13101e+08
1.11403e+08
1.09739e+08
1.08109e+08
1.06511e+08
1.04944e+08
1.03408e+08
1.01902e+08
1.00424e+08
9.8975e+07
9.75534e+07
9.61586e+07
9.47899e+07
9.34467e+07
9.21284e+07
9.0834e+07
8.95636e+07
8.83163e+07
8.70914e+07
8.58885e+07
8.47071e+07
8.35466e+07
8.24065e+07
8.12864e+07
8.01858e+07
7.91042e+07
7.80412e+07
7.69964e+07
7.59694e+07
7.49597e+07
7.3967e+07
7.29907e+07
7.20311e+07
7.10869e+07
7.01582e+07
6.92448e+07
6.83461e+07
6.7462e+07
6.65921e+07
6.5736e+07
6.48936e+07
6.40644e+07
6.32483e+07
6.2445e+07
6.16541e+07
6.08755e+07
6.01088e+07
5.9354e+07
5.86107e+07
5.78788e+07
5.71569e+07
5.64471e+07
5.57477e+07
5.50587e+07
5.43799e+07
5.37111e+07
5.30522e+07
5.24029e+07
5.17631e+07
5.11326e+07
5.05114e+07
4.98985e+07
4.92951e+07
4.87003e+07
4.81139e+07
4.75358e+07
4.69659e+07
4.64041e+07
4.58502e+07
4.53041e+07
4.47656e+07
4.42346e+07
4.3711e+07
4.31946e+07
4.26854e+07
4.21831e+07
4.16878e+07
4.11993e+07
4.07174e+07
4.02421e+07
3.97733e+07
3.93108e+07
3.88545e+07
3.84044e+07
3.79604e+07
3.75224e+07
3.70902e+07
3.66638e+07
3.6243e+07
3.58279e+07
3.54183e+07
3.50143e+07
3.46154e+07
3.42219e+07
3.38328e+07
3.34489e+07
3.30693e+07
3.26934e+07
3.23204e+07
3.19502e+07
3.15839e+07
3.12331e+07
3.09637e+07
)
;

boundaryField
{
    boundary
    {
        type            empty;
    }
    inlet
    {
        type            calculated;
        value           uniform 0;
    }
    outlet
    {
        type            calculated;
        value           uniform 0;
    }
}


// ************************************************************************* //
