/*--------------------------------*- C++ -*----------------------------------*\
  =========                 |
  \\      /  F ield         | OpenFOAM: The Open Source CFD Toolbox
   \\    /   O peration     | Website:  https://openfoam.org
    \\  /    A nd           | Version:  7
     \\/     M anipulation  |
\*---------------------------------------------------------------------------*/
FoamFile
{
    version     2.0;
    format      ascii;
    class       volScalarField;
    location    "0.00089";
    object      rho;
}
// * * * * * * * * * * * * * * * * * * * * * * * * * * * * * * * * * * * * * //

dimensions      [1 -3 0 0 0 0 0];

internalField   nonuniform List<scalar> 
500
(
0.864741
0.864739
0.864736
0.864734
0.864731
0.864729
0.864728
0.864727
0.864726
0.864727
0.864728
0.864731
0.864735
0.86474
0.864746
0.864754
0.864763
0.864772
0.864782
0.864792
0.864802
0.864812
0.864821
0.864829
0.864836
0.864841
0.864845
0.864846
0.864846
0.864843
0.864838
0.86483
0.86482
0.864808
0.864793
0.864775
0.864754
0.864729
0.864702
0.86467
0.864634
0.864594
0.864549
0.864499
0.864443
0.864381
0.864313
0.864239
0.864157
0.864069
0.863974
0.863872
0.863764
0.863649
0.863528
0.863401
0.86327
0.863134
0.862995
0.862854
0.86271
0.862567
0.862423
0.862281
0.86214
0.862003
0.86187
0.861741
0.861618
0.861501
0.861389
0.861285
0.861187
0.861097
0.861013
0.860937
0.860867
0.860805
0.860748
0.860698
0.860653
0.860614
0.860579
0.86055
0.860524
0.860501
0.860482
0.860466
0.860453
0.860441
0.860432
0.860424
0.860417
0.860412
0.860408
0.860404
0.860401
0.860399
0.860397
0.860396
0.860395
0.860394
0.860393
0.860392
0.860392
0.860391
0.860391
0.860391
0.860391
0.860391
0.86039
0.86039
0.86039
0.86039
0.86039
0.86039
0.86039
0.860389
0.860389
0.860389
0.860389
0.860389
0.860389
0.860389
0.860389
0.860389
0.860388
0.860388
0.860388
0.860388
0.860387
0.860387
0.860387
0.860386
0.860386
0.860385
0.860385
0.860385
0.860384
0.860384
0.860383
0.860383
0.860382
0.860382
0.860381
0.860381
0.860381
0.860381
0.86038
0.86038
0.86038
0.860379
0.860379
0.860379
0.860379
0.860378
0.860378
0.860378
0.860377
0.860377
0.860376
0.860376
0.860375
0.860375
0.860374
0.860374
0.860373
0.860373
0.860372
0.860372
0.860371
0.860371
0.86037
0.860369
0.860369
0.860368
0.860368
0.860367
0.860366
0.860366
0.860365
0.860365
0.860364
0.860363
0.860363
0.860362
0.860361
0.860361
0.86036
0.86036
0.860359
0.860358
0.860358
0.860357
0.860357
0.860356
0.860355
0.860355
0.860354
0.860354
0.860353
0.860353
0.860353
0.860352
0.860352
0.860352
0.860351
0.860351
0.860351
0.860351
0.860351
0.860351
0.860351
0.860351
0.860351
0.860351
0.860351
0.860351
0.860352
0.860352
0.860353
0.860353
0.860354
0.860354
0.860355
0.860356
0.860357
0.860358
0.860359
0.86036
0.860362
0.860363
0.860365
0.860366
0.860368
0.86037
0.860372
0.860374
0.860376
0.860378
0.860381
0.860383
0.860386
0.860389
0.860392
0.860395
0.860398
0.860402
0.860405
0.860409
0.860413
0.860417
0.860421
0.860426
0.86043
0.860434
0.860439
0.860444
0.860449
0.860454
0.860459
0.860464
0.86047
0.860476
0.860483
0.860489
0.860494
0.860489
0.86045
0.8603
0.859801
0.858246
0.853569
0.840003
0.803348
0.720817
0.591652
0.46285
0.370099
0.309804
0.269157
0.240374
0.219794
0.205152
0.194585
0.186847
0.18093
0.176269
0.172501
0.169386
0.166759
0.164507
0.162546
0.160819
0.15928
0.157899
0.156649
0.15551
0.154468
0.153509
0.152623
0.151801
0.151035
0.150321
0.149651
0.149023
0.148431
0.147874
0.147347
0.146848
0.146375
0.145927
0.145514
0.145127
0.144754
0.144395
0.14405
0.143718
0.143397
0.143088
0.142789
0.1425
0.142221
0.141951
0.141689
0.141435
0.141188
0.140949
0.140717
0.140492
0.140273
0.140059
0.139852
0.13965
0.139453
0.139262
0.139075
0.138892
0.138715
0.138541
0.138372
0.138206
0.138044
0.137886
0.137732
0.13758
0.137433
0.137288
0.137146
0.137007
0.136871
0.136738
0.136607
0.136479
0.136354
0.136231
0.13611
0.135991
0.135875
0.135761
0.135648
0.135538
0.13543
0.135323
0.135219
0.135116
0.135015
0.134915
0.134817
0.134721
0.134626
0.134533
0.134441
0.134351
0.134262
0.134175
0.134089
0.134004
0.13392
0.133838
0.133756
0.133676
0.133597
0.133519
0.133442
0.133366
0.133292
0.133218
0.133145
0.133074
0.133003
0.132933
0.132865
0.132797
0.13273
0.132664
0.132598
0.132534
0.13247
0.132408
0.132346
0.132284
0.132224
0.132164
0.132105
0.132047
0.13199
0.131933
0.131876
0.131821
0.131766
0.131712
0.131658
0.131605
0.131553
0.131501
0.131449
0.131399
0.131348
0.131299
0.13125
0.131201
0.131153
0.131105
0.131058
0.131012
0.130966
0.13092
0.130875
0.13083
0.130786
0.130742
0.130699
0.130656
0.130613
0.130571
0.130529
0.130488
0.130447
0.130407
0.130366
0.130327
0.130287
0.130248
0.13021
0.130171
0.130134
0.130096
0.130059
0.130022
0.129985
0.129949
0.129913
0.129877
0.129842
0.129807
0.129772
0.129738
0.129704
0.12967
0.129636
0.129603
0.12957
0.129537
0.129504
0.129472
0.12944
0.129408
0.129377
0.129345
0.129314
0.129283
0.129253
0.129222
0.129192
0.129162
0.129132
0.129103
0.129073
0.129044
0.129015
0.128987
0.128958
0.12893
0.128901
0.128873
0.128845
0.128817
0.12879
0.128762
0.128735
0.128707
0.12868
0.128653
0.128625
0.128598
0.128572
0.128546
0.128523
0.128508
)
;

boundaryField
{
    boundary
    {
        type            empty;
    }
    inlet
    {
        type            calculated;
        value           uniform 0.864743;
    }
    outlet
    {
        type            calculated;
        value           uniform 0.128508;
    }
}


// ************************************************************************* //
