/*--------------------------------*- C++ -*----------------------------------*\
  =========                 |
  \\      /  F ield         | OpenFOAM: The Open Source CFD Toolbox
   \\    /   O peration     | Website:  https://openfoam.org
    \\  /    A nd           | Version:  7
     \\/     M anipulation  |
\*---------------------------------------------------------------------------*/
FoamFile
{
    version     2.0;
    format      ascii;
    class       volScalarField;
    location    "0.00059";
    object      HO2;
}
// * * * * * * * * * * * * * * * * * * * * * * * * * * * * * * * * * * * * * //

dimensions      [0 0 0 0 0 0 0];

internalField   nonuniform List<scalar> 
124
(
2.80107e-06
2.78514e-06
2.76953e-06
2.75425e-06
2.73927e-06
2.7246e-06
2.71021e-06
2.6961e-06
2.68227e-06
2.6687e-06
2.65539e-06
2.64232e-06
2.6295e-06
2.61691e-06
2.60456e-06
2.59242e-06
2.5805e-06
2.56879e-06
2.55729e-06
2.54599e-06
2.53488e-06
2.52396e-06
2.51322e-06
2.50267e-06
2.49228e-06
2.48207e-06
2.47202e-06
2.46214e-06
2.4524e-06
2.44282e-06
2.43339e-06
2.42409e-06
2.41493e-06
2.4059e-06
2.397e-06
2.38822e-06
2.37956e-06
2.37101e-06
2.36256e-06
2.35421e-06
2.34596e-06
2.3378e-06
2.32972e-06
2.32171e-06
2.31378e-06
2.30591e-06
2.2981e-06
2.29033e-06
2.28261e-06
2.27492e-06
2.26726e-06
2.25962e-06
2.25199e-06
2.24435e-06
2.23671e-06
2.22906e-06
2.22138e-06
2.21367e-06
2.20594e-06
2.19819e-06
2.19045e-06
2.18142e-06
2.17099e-06
2.16277e-06
2.15432e-06
2.14569e-06
2.13689e-06
2.1279e-06
2.11871e-06
2.10931e-06
2.09969e-06
2.08983e-06
2.07972e-06
2.06934e-06
2.0587e-06
2.04777e-06
2.03656e-06
2.02505e-06
2.01324e-06
2.00112e-06
1.9887e-06
1.97596e-06
1.96293e-06
1.94959e-06
1.93596e-06
1.92205e-06
1.90786e-06
1.89341e-06
1.87872e-06
1.8638e-06
1.84868e-06
1.83339e-06
1.81794e-06
1.80238e-06
1.78672e-06
1.771e-06
1.75527e-06
1.73955e-06
1.7239e-06
1.70833e-06
1.69291e-06
1.67767e-06
1.66266e-06
1.64792e-06
1.6335e-06
1.61943e-06
1.60577e-06
1.59255e-06
1.57982e-06
1.56762e-06
1.55599e-06
1.54495e-06
1.53455e-06
1.52483e-06
1.51579e-06
1.50748e-06
1.49991e-06
1.49311e-06
1.48709e-06
1.48185e-06
1.47741e-06
1.47376e-06
1.47094e-06
1.46911e-06
)
;

boundaryField
{
    boundary
    {
        type            empty;
    }
    inlet
    {
        type            fixedValue;
        value           nonuniform 0();
    }
    outlet
    {
        type            zeroGradient;
    }
    procBoundary0to1
    {
        type            processor;
        value           uniform 2.81728e-06;
    }
}


// ************************************************************************* //
