/*--------------------------------*- C++ -*----------------------------------*\
  =========                 |
  \\      /  F ield         | OpenFOAM: The Open Source CFD Toolbox
   \\    /   O peration     | Website:  https://openfoam.org
    \\  /    A nd           | Version:  7
     \\/     M anipulation  |
\*---------------------------------------------------------------------------*/
FoamFile
{
    version     2.0;
    format      ascii;
    class       surfaceScalarField;
    location    "0.00059";
    object      phi;
}
// * * * * * * * * * * * * * * * * * * * * * * * * * * * * * * * * * * * * * //

dimensions      [1 0 -1 0 0 0 0];

internalField   nonuniform List<scalar> 
123
(
7.2713e-06
7.27139e-06
7.27148e-06
7.27159e-06
7.27169e-06
7.27179e-06
7.2719e-06
7.27201e-06
7.27212e-06
7.27222e-06
7.27233e-06
7.27244e-06
7.27255e-06
7.27265e-06
7.27276e-06
7.27287e-06
7.27297e-06
7.27308e-06
7.27318e-06
7.27329e-06
7.27339e-06
7.27349e-06
7.27359e-06
7.27369e-06
7.27379e-06
7.27388e-06
7.27397e-06
7.27407e-06
7.27415e-06
7.27424e-06
7.27433e-06
7.27441e-06
7.27449e-06
7.27457e-06
7.27464e-06
7.27471e-06
7.27478e-06
7.27485e-06
7.27492e-06
7.27498e-06
7.27504e-06
7.2751e-06
7.27516e-06
7.27521e-06
7.27527e-06
7.27532e-06
7.27537e-06
7.27543e-06
7.27548e-06
7.27554e-06
7.27559e-06
7.27565e-06
7.27572e-06
7.27579e-06
7.27587e-06
7.27595e-06
7.27605e-06
7.27615e-06
7.27626e-06
7.27637e-06
7.27671e-06
7.27561e-06
7.27588e-06
7.27604e-06
7.27619e-06
7.27635e-06
7.27652e-06
7.27672e-06
7.27693e-06
7.27717e-06
7.27742e-06
7.27769e-06
7.27799e-06
7.2783e-06
7.27864e-06
7.27899e-06
7.27937e-06
7.27975e-06
7.28016e-06
7.28057e-06
7.281e-06
7.28143e-06
7.28187e-06
7.2823e-06
7.28272e-06
7.28313e-06
7.28353e-06
7.28389e-06
7.28422e-06
7.28451e-06
7.28474e-06
7.28491e-06
7.285e-06
7.28501e-06
7.28493e-06
7.28473e-06
7.28441e-06
7.28396e-06
7.28337e-06
7.28261e-06
7.28169e-06
7.28058e-06
7.27928e-06
7.27777e-06
7.27605e-06
7.2741e-06
7.27192e-06
7.2695e-06
7.26684e-06
7.26394e-06
7.26078e-06
7.25738e-06
7.25373e-06
7.24984e-06
7.24572e-06
7.24136e-06
7.23679e-06
7.23202e-06
7.22704e-06
7.22189e-06
7.21658e-06
7.21112e-06
7.20553e-06
)
;

boundaryField
{
    boundary
    {
        type            empty;
        value           nonuniform 0();
    }
    inlet
    {
        type            calculated;
        value           nonuniform 0();
    }
    outlet
    {
        type            calculated;
        value           uniform 7.19986e-06;
    }
    procBoundary0to1
    {
        type            processor;
        value           uniform -7.27124e-06;
    }
}


// ************************************************************************* //
