/*--------------------------------*- C++ -*----------------------------------*\
  =========                 |
  \\      /  F ield         | OpenFOAM: The Open Source CFD Toolbox
   \\    /   O peration     | Website:  https://openfoam.org
    \\  /    A nd           | Version:  7
     \\/     M anipulation  |
\*---------------------------------------------------------------------------*/
FoamFile
{
    version     2.0;
    format      ascii;
    class       volScalarField;
    location    "0.00047";
    object      Qdot;
}
// * * * * * * * * * * * * * * * * * * * * * * * * * * * * * * * * * * * * * //

dimensions      [1 -1 -3 0 0 0 0];

internalField   nonuniform List<scalar> 
125
(
3.64077e-10
1.28529e-09
4.6618e-09
1.74746e-08
6.78385e-08
2.72485e-07
1.12862e-06
4.79768e-06
2.08235e-05
9.18459e-05
0.000410068
0.00184788
0.00838831
0.038321
0.176173
0.815839
3.81402
18.0674
92.2624
517.7
3493.15
26338.2
219501
2.027e+06
1.93593e+07
1.7636e+08
1.2755e+09
5.26937e+09
1.09058e+10
1.35139e+10
1.38977e+10
1.39367e+10
1.37474e+10
1.28259e+10
1.10855e+10
9.05121e+09
7.34792e+09
6.06307e+09
5.0789e+09
4.3298e+09
3.75206e+09
3.29797e+09
2.93384e+09
2.63624e+09
2.3888e+09
2.17999e+09
2.00149e+09
1.84722e+09
1.71262e+09
1.59422e+09
1.48932e+09
1.39578e+09
1.31193e+09
1.23636e+09
1.16798e+09
1.10582e+09
1.04913e+09
9.97235e+08
9.49601e+08
9.05772e+08
8.65417e+08
8.29156e+08
7.96008e+08
7.64871e+08
7.35682e+08
7.08247e+08
6.82414e+08
6.58059e+08
6.35054e+08
6.13299e+08
5.92703e+08
5.73177e+08
5.54645e+08
5.37037e+08
5.20291e+08
5.04348e+08
4.89154e+08
4.74661e+08
4.60825e+08
4.47604e+08
4.34961e+08
4.22862e+08
4.11274e+08
4.00168e+08
3.89516e+08
3.79293e+08
3.69476e+08
3.60042e+08
3.50971e+08
3.42245e+08
3.33844e+08
3.25753e+08
3.17956e+08
3.10439e+08
3.03188e+08
2.96189e+08
2.89432e+08
2.82904e+08
2.76595e+08
2.70496e+08
2.64595e+08
2.58886e+08
2.53358e+08
2.48005e+08
2.42819e+08
2.37792e+08
2.32918e+08
2.28191e+08
2.23604e+08
2.19153e+08
2.14831e+08
2.10633e+08
2.06556e+08
2.02593e+08
1.98742e+08
1.94997e+08
1.91354e+08
1.87812e+08
1.84364e+08
1.8101e+08
1.77745e+08
1.74569e+08
1.7148e+08
1.68485e+08
1.65593e+08
)
;

boundaryField
{
    boundary
    {
        type            empty;
    }
    inlet
    {
        type            calculated;
        value           nonuniform 0();
    }
    outlet
    {
        type            calculated;
        value           nonuniform 0();
    }
    procBoundary1to0
    {
        type            processor;
        value           uniform 0;
    }
    procBoundary1to3
    {
        type            processor;
        value           uniform 0;
    }
}


// ************************************************************************* //
