/*--------------------------------*- C++ -*----------------------------------*\
  =========                 |
  \\      /  F ield         | OpenFOAM: The Open Source CFD Toolbox
   \\    /   O peration     | Website:  https://openfoam.org
    \\  /    A nd           | Version:  7
     \\/     M anipulation  |
\*---------------------------------------------------------------------------*/
FoamFile
{
    version     2.0;
    format      ascii;
    class       volVectorField;
    location    "0.00094";
    object      U;
}
// * * * * * * * * * * * * * * * * * * * * * * * * * * * * * * * * * * * * * //

dimensions      [0 1 -1 0 0 0 0];

internalField   nonuniform List<vector> 
125
(
(2.35043 0 0)
(2.35042 0 0)
(2.35042 0 0)
(2.35041 0 0)
(2.35041 0 0)
(2.3504 0 0)
(2.35039 0 0)
(2.35039 0 0)
(2.35038 0 0)
(2.35037 0 0)
(2.35036 0 0)
(2.35036 0 0)
(2.35035 0 0)
(2.35034 0 0)
(2.35033 0 0)
(2.35033 0 0)
(2.35038 0 0)
(2.35057 0 0)
(2.35128 0 0)
(2.35359 0 0)
(2.36058 0 0)
(2.38013 0 0)
(2.42997 0 0)
(2.54856 0 0)
(2.81693 0 0)
(3.38151 0 0)
(4.35319 0 0)
(5.56334 0 0)
(6.78367 0 0)
(7.89259 0 0)
(8.85923 0 0)
(9.67965 0 0)
(10.3667 0 0)
(10.9371 0 0)
(11.3961 0 0)
(11.7586 0 0)
(12.0539 0 0)
(12.3047 0 0)
(12.5227 0 0)
(12.7143 0 0)
(12.8845 0 0)
(13.0371 0 0)
(13.1751 0 0)
(13.3009 0 0)
(13.4162 0 0)
(13.5225 0 0)
(13.6209 0 0)
(13.7123 0 0)
(13.7976 0 0)
(13.8775 0 0)
(13.9524 0 0)
(14.023 0 0)
(14.0896 0 0)
(14.1525 0 0)
(14.2122 0 0)
(14.2688 0 0)
(14.3226 0 0)
(14.3739 0 0)
(14.4227 0 0)
(14.4693 0 0)
(14.5138 0 0)
(14.5552 0 0)
(14.594 0 0)
(14.6316 0 0)
(14.668 0 0)
(14.7032 0 0)
(14.7372 0 0)
(14.7702 0 0)
(14.8022 0 0)
(14.8332 0 0)
(14.8633 0 0)
(14.8926 0 0)
(14.921 0 0)
(14.9486 0 0)
(14.9755 0 0)
(15.0017 0 0)
(15.0272 0 0)
(15.052 0 0)
(15.0762 0 0)
(15.0998 0 0)
(15.1229 0 0)
(15.1454 0 0)
(15.1673 0 0)
(15.1888 0 0)
(15.2098 0 0)
(15.2303 0 0)
(15.2503 0 0)
(15.2699 0 0)
(15.2891 0 0)
(15.3079 0 0)
(15.3264 0 0)
(15.3444 0 0)
(15.3621 0 0)
(15.3794 0 0)
(15.3964 0 0)
(15.413 0 0)
(15.4293 0 0)
(15.4454 0 0)
(15.4611 0 0)
(15.4765 0 0)
(15.4917 0 0)
(15.5066 0 0)
(15.5212 0 0)
(15.5356 0 0)
(15.5497 0 0)
(15.5636 0 0)
(15.5773 0 0)
(15.5907 0 0)
(15.6039 0 0)
(15.6169 0 0)
(15.6296 0 0)
(15.6422 0 0)
(15.6546 0 0)
(15.6668 0 0)
(15.6788 0 0)
(15.6906 0 0)
(15.7022 0 0)
(15.7137 0 0)
(15.725 0 0)
(15.7361 0 0)
(15.747 0 0)
(15.7578 0 0)
(15.7685 0 0)
(15.7789 0 0)
(15.7892 0 0)
)
;

boundaryField
{
    boundary
    {
        type            empty;
    }
    inlet
    {
        type            fixedValue;
        value           nonuniform 0();
    }
    outlet
    {
        type            zeroGradient;
    }
    procBoundary1to0
    {
        type            processor;
        value           uniform (15.7993 0 0);
    }
    procBoundary1to3
    {
        type            processor;
        value           uniform (2.35043 0 0);
    }
}


// ************************************************************************* //
