/*--------------------------------*- C++ -*----------------------------------*\
  =========                 |
  \\      /  F ield         | OpenFOAM: The Open Source CFD Toolbox
   \\    /   O peration     | Website:  https://openfoam.org
    \\  /    A nd           | Version:  7
     \\/     M anipulation  |
\*---------------------------------------------------------------------------*/
FoamFile
{
    version     2.0;
    format      ascii;
    class       volScalarField;
    location    "0.00096";
    object      H;
}
// * * * * * * * * * * * * * * * * * * * * * * * * * * * * * * * * * * * * * //

dimensions      [0 0 0 0 0 0 0];

internalField   nonuniform List<scalar> 
500
(
1.48566e-41
2.01247e-41
2.12631e-41
2.15124e-41
2.15707e-41
2.15882e-41
2.15968e-41
2.16031e-41
2.16084e-41
2.16129e-41
2.16163e-41
2.16186e-41
2.16194e-41
2.16186e-41
2.1616e-41
2.16112e-41
2.16042e-41
2.15949e-41
2.15832e-41
2.15693e-41
2.15533e-41
2.15357e-41
2.15167e-41
2.14969e-41
2.14768e-41
2.14571e-41
2.14382e-41
2.14208e-41
2.14056e-41
2.13931e-41
2.13838e-41
2.13782e-41
2.13767e-41
2.13798e-41
2.13877e-41
2.14007e-41
2.14193e-41
2.14438e-41
2.14744e-41
2.15117e-41
2.15559e-41
2.16078e-41
2.16678e-41
2.17366e-41
2.18149e-41
2.19036e-41
2.20035e-41
2.21154e-41
2.22404e-41
2.23794e-41
2.25334e-41
2.27031e-41
2.28894e-41
2.30931e-41
2.33147e-41
2.35548e-41
2.38135e-41
2.4091e-41
2.4387e-41
2.47012e-41
2.50329e-41
2.53812e-41
2.57448e-41
2.61222e-41
2.65117e-41
2.69113e-41
2.73187e-41
2.77316e-41
2.81474e-41
2.85635e-41
2.89772e-41
2.93859e-41
2.9787e-41
3.0178e-41
3.05566e-41
3.09207e-41
3.12687e-41
3.15988e-41
3.191e-41
3.22013e-41
3.24723e-41
3.27225e-41
3.29521e-41
3.31613e-41
3.33508e-41
3.35212e-41
3.36736e-41
3.38088e-41
3.39282e-41
3.40329e-41
3.41241e-41
3.42031e-41
3.42711e-41
3.43293e-41
3.43788e-41
3.44207e-41
3.44559e-41
3.44854e-41
3.45099e-41
3.45302e-41
3.45469e-41
3.45605e-41
3.45717e-41
3.45807e-41
3.4588e-41
3.45939e-41
3.45987e-41
3.46025e-41
3.46055e-41
3.4608e-41
3.461e-41
3.46116e-41
3.46129e-41
3.4614e-41
3.46149e-41
3.46158e-41
3.46165e-41
3.46171e-41
3.46177e-41
3.46183e-41
3.46189e-41
3.46194e-41
3.46199e-41
3.46204e-41
3.4621e-41
3.46215e-41
3.46218e-41
3.46221e-41
3.46225e-41
3.4623e-41
3.46237e-41
3.46246e-41
3.46255e-41
3.46264e-41
3.46275e-41
3.46287e-41
3.46299e-41
3.46312e-41
3.46326e-41
3.46341e-41
3.46357e-41
3.46373e-41
3.46389e-41
3.46406e-41
3.46422e-41
3.46438e-41
3.46454e-41
3.4647e-41
3.46484e-41
3.46498e-41
3.46512e-41
3.46525e-41
3.46537e-41
3.46548e-41
3.4656e-41
3.46571e-41
3.46583e-41
3.46594e-41
3.46606e-41
3.46619e-41
3.46632e-41
3.46645e-41
3.4666e-41
3.46675e-41
3.46691e-41
3.46708e-41
3.46725e-41
3.46744e-41
3.46763e-41
3.46782e-41
3.46802e-41
3.46822e-41
3.46843e-41
3.46864e-41
3.46886e-41
3.46908e-41
3.4693e-41
3.46952e-41
3.46975e-41
3.46997e-41
3.4702e-41
3.47044e-41
3.47067e-41
3.47091e-41
3.47114e-41
3.47138e-41
3.47162e-41
3.47187e-41
3.47211e-41
3.47236e-41
3.4726e-41
3.47285e-41
3.47309e-41
3.47334e-41
3.47358e-41
3.47382e-41
3.47406e-41
3.4743e-41
3.47454e-41
3.47477e-41
3.47499e-41
3.47521e-41
3.47542e-41
3.47563e-41
3.47583e-41
3.47603e-41
3.47624e-41
3.47651e-41
3.47696e-41
3.47803e-41
3.48109e-41
3.4904e-41
3.51942e-41
3.61015e-41
3.89386e-41
4.77974e-41
7.54119e-41
1.61348e-40
4.28364e-40
1.25682e-39
3.82382e-39
1.17682e-38
3.63271e-38
1.12172e-37
3.46188e-37
1.06763e-36
3.29007e-36
1.01316e-35
3.11786e-35
9.58881e-35
2.94727e-34
9.05397e-34
2.77994e-33
8.53156e-33
2.6172e-32
8.02575e-32
2.46044e-31
7.54179e-31
2.31179e-30
7.08845e-30
2.17499e-29
6.68215e-29
2.05729e-28
6.35507e-28
1.97307e-27
6.17174e-27
1.95141e-26
6.26373e-26
2.05199e-25
6.90236e-25
2.39846e-24
8.69854e-24
3.27127e-23
1.27801e-22
5.17625e-22
2.16286e-21
9.26962e-21
4.0527e-20
1.79947e-19
8.08908e-19
3.67499e-18
1.6869e-17
7.83299e-17
3.68999e-16
1.77179e-15
8.72739e-15
4.4438e-14
2.35644e-13
1.37114e-12
9.60593e-12
8.46513e-11
8.40393e-10
7.86145e-09
7.30557e-08
6.50586e-07
5.12115e-06
3.1212e-05
0.000124921
0.000316819
0.000596416
0.00094042
0.00130029
0.00160521
0.00180747
0.00190837
0.00192509
0.0018921
0.00183209
0.00175982
0.00168399
0.00160938
0.00153835
0.00147193
0.00141037
0.00135356
0.00130117
0.00125285
0.0012082
0.00116685
0.00112847
0.00109275
0.00105942
0.00102824
0.000999019
0.00097156
0.000945707
0.000921317
0.000898265
0.000876442
0.000855749
0.000836098
0.00081741
0.000800137
0.000784022
0.000768535
0.000753638
0.000739299
0.000725484
0.000712166
0.000699317
0.00068691
0.000674924
0.000663336
0.000652126
0.000641275
0.000630766
0.000620581
0.000610706
0.000601127
0.000591829
0.0005828
0.000574028
0.000565503
0.000557213
0.000549149
0.000541301
0.00053366
0.000526219
0.000518969
0.000511902
0.000505013
0.000498293
0.000491737
0.000485339
0.000479092
0.000472992
0.000467033
0.00046121
0.000455519
0.000449955
0.000444514
0.000439192
0.000433984
0.000428887
0.000423898
0.000419013
0.000414229
0.000409543
0.000404951
0.000400452
0.000396041
0.000391717
0.000387478
0.00038332
0.000379241
0.00037524
0.000371313
0.00036746
0.000363679
0.000359966
0.000356322
0.000352745
0.000349232
0.000345783
0.000342397
0.000339074
0.000335799
0.000332568
0.000329392
0.000326268
0.000323196
0.000320175
0.000317203
0.000314279
0.000311402
0.00030857
0.000305784
0.000303041
0.000300341
0.000297682
0.000295065
0.000292487
0.000289949
0.000287448
0.000284985
0.000282559
0.000280168
0.000277812
0.000275491
0.000273203
0.000270949
0.000268726
0.000266535
0.000264375
0.000262245
0.000260145
0.000258074
0.000256031
0.000254017
0.000252029
0.000250069
0.000248135
0.000246228
0.000244345
0.000242487
0.000240654
0.000238845
0.00023706
0.000235297
0.000233558
0.00023184
0.000230145
0.000228471
0.000226818
0.000225186
0.000223575
0.000221984
0.000220412
0.00021886
0.000217327
0.000215812
0.000214316
0.000212839
0.000211379
0.000209936
0.000208511
0.000207104
0.000205712
0.000204338
0.000202979
0.000201637
0.00020031
0.000198999
0.000197703
0.000196422
0.000195155
0.000193904
0.000192666
0.000191443
0.000190234
0.000189039
0.000187857
0.000186688
0.000185533
0.00018439
0.00018326
0.000182143
0.000181038
0.000179946
0.000178865
0.000177796
0.00017674
0.000175694
0.000174661
0.000173638
0.000172627
0.000171626
0.000170637
0.000169658
0.00016869
0.000167732
0.000166785
0.000165848
0.000164922
0.000164005
0.000163098
0.000162202
0.000161315
0.000160438
0.00015957
0.000158713
0.000157865
0.000157027
0.000156199
0.000155381
0.000154574
0.000153777
0.000152992
0.000152219
0.000151459
0.000150714
0.000149987
0.000149281
0.000148601
0.000147952
0.000147346
0.000146797
0.000146325
0.000145962
0.000145752
)
;

boundaryField
{
    boundary
    {
        type            empty;
    }
    inlet
    {
        type            fixedValue;
        value           uniform 0;
    }
    outlet
    {
        type            zeroGradient;
    }
}


// ************************************************************************* //
