/*--------------------------------*- C++ -*----------------------------------*\
  =========                 |
  \\      /  F ield         | OpenFOAM: The Open Source CFD Toolbox
   \\    /   O peration     | Website:  https://openfoam.org
    \\  /    A nd           | Version:  7
     \\/     M anipulation  |
\*---------------------------------------------------------------------------*/
FoamFile
{
    version     2.0;
    format      ascii;
    class       volScalarField;
    location    "0.00096";
    object      H2;
}
// * * * * * * * * * * * * * * * * * * * * * * * * * * * * * * * * * * * * * //

dimensions      [0 0 0 0 0 0 0];

internalField   nonuniform List<scalar> 
500
(
0.0285116
0.0285116
0.0285116
0.0285116
0.0285116
0.0285116
0.0285116
0.0285116
0.0285116
0.0285116
0.0285116
0.0285116
0.0285116
0.0285116
0.0285116
0.0285116
0.0285116
0.0285116
0.0285116
0.0285116
0.0285116
0.0285116
0.0285116
0.0285116
0.0285116
0.0285116
0.0285116
0.0285116
0.0285116
0.0285116
0.0285116
0.0285116
0.0285116
0.0285116
0.0285116
0.0285116
0.0285116
0.0285116
0.0285116
0.0285116
0.0285116
0.0285116
0.0285116
0.0285116
0.0285116
0.0285116
0.0285116
0.0285116
0.0285116
0.0285116
0.0285116
0.0285116
0.0285116
0.0285116
0.0285116
0.0285116
0.0285116
0.0285116
0.0285116
0.0285116
0.0285116
0.0285116
0.0285116
0.0285116
0.0285116
0.0285116
0.0285116
0.0285116
0.0285116
0.0285116
0.0285116
0.0285116
0.0285116
0.0285116
0.0285116
0.0285116
0.0285116
0.0285116
0.0285116
0.0285116
0.0285116
0.0285116
0.0285116
0.0285116
0.0285116
0.0285116
0.0285116
0.0285116
0.0285116
0.0285116
0.0285116
0.0285116
0.0285116
0.0285116
0.0285116
0.0285116
0.0285116
0.0285116
0.0285116
0.0285116
0.0285116
0.0285116
0.0285116
0.0285116
0.0285116
0.0285116
0.0285116
0.0285116
0.0285116
0.0285116
0.0285116
0.0285116
0.0285116
0.0285116
0.0285116
0.0285116
0.0285116
0.0285116
0.0285116
0.0285116
0.0285116
0.0285116
0.0285116
0.0285116
0.0285116
0.0285116
0.0285116
0.0285116
0.0285116
0.0285116
0.0285116
0.0285116
0.0285116
0.0285116
0.0285116
0.0285116
0.0285116
0.0285116
0.0285116
0.0285116
0.0285116
0.0285116
0.0285116
0.0285116
0.0285116
0.0285116
0.0285116
0.0285116
0.0285116
0.0285116
0.0285116
0.0285116
0.0285116
0.0285116
0.0285116
0.0285116
0.0285116
0.0285116
0.0285116
0.0285116
0.0285116
0.0285116
0.0285116
0.0285116
0.0285116
0.0285116
0.0285116
0.0285116
0.0285116
0.0285116
0.0285116
0.0285116
0.0285116
0.0285116
0.0285116
0.0285116
0.0285116
0.0285116
0.0285116
0.0285116
0.0285116
0.0285116
0.0285116
0.0285116
0.0285116
0.0285116
0.0285116
0.0285116
0.0285116
0.0285116
0.0285116
0.0285116
0.0285116
0.0285116
0.0285116
0.0285116
0.0285116
0.0285116
0.0285116
0.0285116
0.0285116
0.0285116
0.0285116
0.0285116
0.0285116
0.0285116
0.0285116
0.0285116
0.0285116
0.0285116
0.0285116
0.0285116
0.0285116
0.0285116
0.0285116
0.0285116
0.0285116
0.0285116
0.0285116
0.0285116
0.0285116
0.0285116
0.0285116
0.0285116
0.0285116
0.0285116
0.0285116
0.0285116
0.0285116
0.0285116
0.0285116
0.0285116
0.0285116
0.0285116
0.0285116
0.0285116
0.0285116
0.0285116
0.0285116
0.0285116
0.0285116
0.0285116
0.0285116
0.0285116
0.0285116
0.0285116
0.0285116
0.0285116
0.0285116
0.0285116
0.0285116
0.0285116
0.0285116
0.0285116
0.0285116
0.0285116
0.0285116
0.0285116
0.0285116
0.0285116
0.0285116
0.0285115
0.0285114
0.0285113
0.028511
0.0285103
0.028509
0.0285062
0.0285003
0.0284881
0.0284626
0.0284095
0.0282996
0.0280746
0.0276278
0.0267974
0.0254151
0.0234234
0.0209685
0.0181831
0.0151588
0.0121391
0.00949679
0.00748263
0.00599245
0.00509767
0.0045395
0.00419576
0.00398332
0.00384935
0.00376157
0.00370068
0.00365531
0.00361881
0.00358737
0.0035588
0.00353187
0.0035059
0.00348054
0.0034556
0.003431
0.00340671
0.00338272
0.00335905
0.00333571
0.00331272
0.00329008
0.00326781
0.00324592
0.0032244
0.00320327
0.00318252
0.00316277
0.00314382
0.00312516
0.00310677
0.00308865
0.0030708
0.0030532
0.00303587
0.00301879
0.00300196
0.00298536
0.00296901
0.00295289
0.00293699
0.00292132
0.00290586
0.00289061
0.00287557
0.00286073
0.00284608
0.00283163
0.00281735
0.00280326
0.00278935
0.00277561
0.00276204
0.00274863
0.00273539
0.0027223
0.00270937
0.00269658
0.00268395
0.00267147
0.00265913
0.00264692
0.00263486
0.00262294
0.00261114
0.00259948
0.00258795
0.00257654
0.00256527
0.00255411
0.00254307
0.00253215
0.00252135
0.00251067
0.0025001
0.00248964
0.00247929
0.00246904
0.00245891
0.00244887
0.00243894
0.00242912
0.00241939
0.00240976
0.00240023
0.0023908
0.00238146
0.00237222
0.00236308
0.00235403
0.00234508
0.00233618
0.00232732
0.00231855
0.00230985
0.00230123
0.00229269
0.00228422
0.00227582
0.0022675
0.00225925
0.00225107
0.00224296
0.00223491
0.00222694
0.00221903
0.00221118
0.0022034
0.00219568
0.00218803
0.00218043
0.0021729
0.00216543
0.00215801
0.00215066
0.00214336
0.00213612
0.00212894
0.00212181
0.00211474
0.00210773
0.00210077
0.00209386
0.00208701
0.00208021
0.00207347
0.00206678
0.00206014
0.00205356
0.00204702
0.00204054
0.00203411
0.00202772
0.00202139
0.00201511
0.00200888
0.0020027
0.00199657
0.00199048
0.00198445
0.00197846
0.00197251
0.00196662
0.00196077
0.00195497
0.00194921
0.0019435
0.00193783
0.0019322
0.00192662
0.00192108
0.00191559
0.00191013
0.00190472
0.00189935
0.00189402
0.00188873
0.00188348
0.00187826
0.00187309
0.00186796
0.00186286
0.0018578
0.00185277
0.00184779
0.00184283
0.00183792
0.00183304
0.00182819
0.00182338
0.00181861
0.00181386
0.00180915
0.00180448
0.00179984
0.00179523
0.00179065
0.0017861
0.00178159
0.00177711
0.00177266
0.00176824
0.00176386
0.0017595
0.00175518
0.00175089
0.00174663
0.0017424
0.0017382
0.00173403
0.00172989
0.00172579
0.00172172
0.00171768
0.00171367
0.0017097
0.00170576
0.00170186
0.001698
0.00169417
0.00169039
0.00168666
0.00168298
0.00167936
0.00167581
0.00167234
0.00166897
0.00166572
0.00166262
0.00165972
0.00165707
0.00165473
0.00165278
0.00165134
0.00165053
)
;

boundaryField
{
    boundary
    {
        type            empty;
    }
    inlet
    {
        type            fixedValue;
        value           uniform 0.0285116;
    }
    outlet
    {
        type            zeroGradient;
    }
}


// ************************************************************************* //
