/*--------------------------------*- C++ -*----------------------------------*\
  =========                 |
  \\      /  F ield         | OpenFOAM: The Open Source CFD Toolbox
   \\    /   O peration     | Website:  https://openfoam.org
    \\  /    A nd           | Version:  7
     \\/     M anipulation  |
\*---------------------------------------------------------------------------*/
FoamFile
{
    version     2.0;
    format      ascii;
    class       volScalarField;
    location    "0.00096";
    object      H2O;
}
// * * * * * * * * * * * * * * * * * * * * * * * * * * * * * * * * * * * * * //

dimensions      [0 0 0 0 0 0 0];

internalField   nonuniform List<scalar> 
500
(
7.88405e-48
2.27852e-47
4.09992e-47
6.14545e-47
8.34263e-47
1.06426e-46
1.30123e-46
1.54295e-46
1.7879e-46
2.03503e-46
2.28362e-46
2.53313e-46
2.78318e-46
3.03345e-46
3.28373e-46
3.53383e-46
3.7836e-46
4.03295e-46
4.28184e-46
4.53027e-46
4.77828e-46
5.02599e-46
5.27352e-46
5.52109e-46
5.76891e-46
6.01724e-46
6.26636e-46
6.51657e-46
6.76816e-46
7.02143e-46
7.27667e-46
7.53417e-46
7.79421e-46
8.05708e-46
8.32307e-46
8.59249e-46
8.86567e-46
9.14299e-46
9.42489e-46
9.71186e-46
1.00045e-45
1.03034e-45
1.06093e-45
1.09231e-45
1.12457e-45
1.1578e-45
1.19211e-45
1.2276e-45
1.26438e-45
1.30257e-45
1.34225e-45
1.38354e-45
1.42651e-45
1.47123e-45
1.51774e-45
1.56607e-45
1.6162e-45
1.6681e-45
1.7217e-45
1.7769e-45
1.83354e-45
1.89146e-45
1.95044e-45
2.01023e-45
2.07057e-45
2.13115e-45
2.19167e-45
2.2518e-45
2.31121e-45
2.36957e-45
2.42657e-45
2.48189e-45
2.53527e-45
2.58646e-45
2.63522e-45
2.68139e-45
2.72482e-45
2.76542e-45
2.8031e-45
2.83787e-45
2.86973e-45
2.89874e-45
2.92498e-45
2.94856e-45
2.96961e-45
2.98827e-45
3.00472e-45
3.01912e-45
3.03164e-45
3.04246e-45
3.05176e-45
3.05969e-45
3.06641e-45
3.07208e-45
3.07682e-45
3.08077e-45
3.08404e-45
3.08673e-45
3.08893e-45
3.09072e-45
3.09217e-45
3.09333e-45
3.09427e-45
3.09501e-45
3.0956e-45
3.09607e-45
3.09644e-45
3.09673e-45
3.09696e-45
3.09715e-45
3.0973e-45
3.09742e-45
3.09751e-45
3.0976e-45
3.09767e-45
3.09773e-45
3.09779e-45
3.09784e-45
3.09789e-45
3.09794e-45
3.09798e-45
3.09799e-45
3.0979e-45
3.09743e-45
3.09558e-45
3.09214e-45
3.0922e-45
3.09226e-45
3.09232e-45
3.09239e-45
3.09246e-45
3.09254e-45
3.09262e-45
3.0927e-45
3.09279e-45
3.09289e-45
3.09299e-45
3.09309e-45
3.09321e-45
3.09332e-45
3.09345e-45
3.09358e-45
3.09371e-45
3.09385e-45
3.09399e-45
3.09413e-45
3.09428e-45
3.09443e-45
3.09459e-45
3.09476e-45
3.09493e-45
3.09512e-45
3.09531e-45
3.09553e-45
3.09575e-45
3.096e-45
3.09628e-45
3.09657e-45
3.09689e-45
3.09724e-45
3.09761e-45
3.09801e-45
3.09843e-45
3.09887e-45
3.09933e-45
3.09979e-45
3.10027e-45
3.10075e-45
3.10123e-45
3.1017e-45
3.10216e-45
3.1026e-45
3.10303e-45
3.10343e-45
3.10382e-45
3.10418e-45
3.10452e-45
3.10483e-45
3.10513e-45
3.1054e-45
3.10566e-45
3.10591e-45
3.10615e-45
3.10639e-45
3.10662e-45
3.10685e-45
3.10709e-45
3.10733e-45
3.10758e-45
3.10784e-45
3.10811e-45
3.10839e-45
3.1087e-45
3.10907e-45
3.10963e-45
3.11081e-45
3.11403e-45
3.12406e-45
3.15673e-45
3.26435e-45
3.61923e-45
4.78712e-45
8.61963e-45
2.11609e-44
6.20957e-44
1.95421e-43
6.28962e-43
2.03734e-42
6.61152e-42
2.14779e-41
6.98793e-41
2.27937e-40
7.46363e-40
2.45697e-39
8.14458e-39
2.72324e-38
9.1996e-38
3.14464e-37
1.08899e-36
3.82376e-36
1.36184e-35
4.91892e-35
1.80075e-34
6.67488e-34
2.50203e-33
9.47083e-33
3.61499e-32
1.38948e-31
5.37123e-31
2.08586e-30
8.12958e-30
3.17737e-29
1.24448e-28
4.88189e-28
1.9172e-27
7.53462e-27
2.96238e-26
1.16493e-25
4.58092e-25
1.80109e-24
7.07946e-24
2.78171e-23
1.09258e-22
4.2896e-22
1.68348e-21
6.60456e-21
2.5903e-20
1.01569e-19
3.98209e-19
1.56114e-18
6.12052e-18
2.41265e-17
9.48602e-17
3.72374e-16
1.46162e-15
5.73882e-15
2.25417e-14
8.85809e-14
3.48242e-13
1.36962e-12
5.38873e-12
2.1209e-11
8.34997e-11
3.28823e-10
1.29519e-09
5.10258e-09
2.01053e-08
7.92286e-08
3.12219e-07
1.23015e-06
4.84372e-06
1.90368e-05
7.44357e-05
0.000286982
0.00106524
0.00360025
0.010092
0.0219625
0.0379939
0.057472
0.080813
0.106675
0.131232
0.150895
0.168171
0.17848
0.185411
0.190098
0.193349
0.195695
0.19747
0.198882
0.200058
0.201075
0.20198
0.202805
0.203568
0.204281
0.204953
0.205591
0.206198
0.206777
0.207331
0.207863
0.208374
0.208866
0.209339
0.209796
0.210237
0.210663
0.211074
0.211472
0.211846
0.212202
0.21255
0.21289
0.213222
0.213546
0.213864
0.214174
0.214478
0.214776
0.215068
0.215354
0.215634
0.215909
0.216179
0.216443
0.216703
0.216957
0.217208
0.217453
0.217694
0.217931
0.218164
0.218393
0.218618
0.218839
0.219056
0.21927
0.219481
0.219687
0.219891
0.220091
0.220289
0.220483
0.220674
0.220863
0.221048
0.221231
0.221411
0.221589
0.221764
0.221937
0.222107
0.222275
0.222441
0.222605
0.222766
0.222926
0.223083
0.223238
0.223392
0.223543
0.223693
0.22384
0.223986
0.22413
0.224273
0.224414
0.224553
0.22469
0.224826
0.22496
0.225093
0.225224
0.225354
0.225482
0.225609
0.225735
0.225859
0.225982
0.226103
0.226223
0.226342
0.22646
0.226576
0.226691
0.226805
0.226918
0.227029
0.22714
0.227249
0.227357
0.227464
0.22757
0.227675
0.227778
0.227881
0.227983
0.228083
0.228183
0.228282
0.228379
0.228476
0.228572
0.228667
0.228761
0.228855
0.228947
0.229039
0.22913
0.22922
0.229309
0.229397
0.229485
0.229572
0.229658
0.229744
0.229829
0.229913
0.229996
0.230079
0.230161
0.230243
0.230324
0.230404
0.230484
0.230563
0.230641
0.230719
0.230796
0.230873
0.230949
0.231024
0.231099
0.231174
0.231247
0.231321
0.231393
0.231466
0.231537
0.231608
0.231679
0.231749
0.231819
0.231888
0.231956
0.232024
0.232092
0.232158
0.232225
0.232291
0.232356
0.232421
0.232486
0.23255
0.232613
0.232676
0.232739
0.232801
0.232863
0.232924
0.232985
0.233045
0.233105
0.233164
0.233223
0.233281
0.233339
0.233397
0.233454
0.233511
0.233567
0.233623
0.233679
0.233734
0.233789
0.233843
0.233897
0.233951
0.234004
0.234057
0.234109
0.234161
0.234213
0.234264
0.234316
0.234366
0.234417
0.234467
0.234516
0.234565
0.234614
0.234661
0.234708
0.234752
0.234793
0.234828
0.234851
)
;

boundaryField
{
    boundary
    {
        type            empty;
    }
    inlet
    {
        type            fixedValue;
        value           uniform 0;
    }
    outlet
    {
        type            zeroGradient;
    }
}


// ************************************************************************* //
