/*--------------------------------*- C++ -*----------------------------------*\
  =========                 |
  \\      /  F ield         | OpenFOAM: The Open Source CFD Toolbox
   \\    /   O peration     | Website:  https://openfoam.org
    \\  /    A nd           | Version:  7
     \\/     M anipulation  |
\*---------------------------------------------------------------------------*/
FoamFile
{
    version     2.0;
    format      ascii;
    class       volScalarField;
    location    "0.00096";
    object      H2O2;
}
// * * * * * * * * * * * * * * * * * * * * * * * * * * * * * * * * * * * * * //

dimensions      [0 0 0 0 0 0 0];

internalField   nonuniform List<scalar> 
500
(
1.993e-52
6.40371e-52
1.2732e-51
2.09795e-51
3.11466e-51
4.3233e-51
5.72376e-51
7.31586e-51
9.09929e-51
1.10736e-50
1.32382e-50
1.55921e-50
1.81346e-50
2.08644e-50
2.37802e-50
2.68809e-50
3.01653e-50
3.36324e-50
3.72816e-50
4.11126e-50
4.51259e-50
4.93223e-50
5.37034e-50
5.82716e-50
6.30297e-50
6.79814e-50
7.31307e-50
7.84823e-50
8.4041e-50
8.98123e-50
9.58018e-50
1.02015e-49
1.08459e-49
1.15141e-49
1.22067e-49
1.29246e-49
1.36687e-49
1.44402e-49
1.52401e-49
1.607e-49
1.69313e-49
1.78261e-49
1.87562e-49
1.9724e-49
2.0732e-49
2.17828e-49
2.28794e-49
2.40247e-49
2.52216e-49
2.64731e-49
2.7782e-49
2.91507e-49
3.05813e-49
3.20755e-49
3.36341e-49
3.52572e-49
3.69442e-49
3.86932e-49
4.05012e-49
4.23642e-49
4.42769e-49
4.62329e-49
4.82246e-49
5.02432e-49
5.22791e-49
5.4322e-49
5.63609e-49
5.83844e-49
6.03811e-49
6.23396e-49
6.42489e-49
6.60988e-49
6.78796e-49
6.9583e-49
7.12017e-49
7.27297e-49
7.41625e-49
7.54971e-49
7.67319e-49
7.78665e-49
7.89021e-49
7.98408e-49
8.06861e-49
8.14419e-49
8.21133e-49
8.27057e-49
8.32248e-49
8.36768e-49
8.40676e-49
8.44033e-49
8.46899e-49
8.49329e-49
8.51377e-49
8.53091e-49
8.54517e-49
8.55696e-49
8.56665e-49
8.57457e-49
8.581e-49
8.5862e-49
8.59037e-49
8.5937e-49
8.59635e-49
8.59845e-49
8.60011e-49
8.60141e-49
8.60244e-49
8.60325e-49
8.60388e-49
8.60439e-49
8.60479e-49
8.60512e-49
8.60539e-49
8.60561e-49
8.60581e-49
8.60599e-49
8.60615e-49
8.6063e-49
8.60645e-49
8.60659e-49
8.60669e-49
8.60669e-49
8.60624e-49
8.60404e-49
8.59493e-49
8.57689e-49
8.57706e-49
8.57725e-49
8.57744e-49
8.57764e-49
8.57786e-49
8.57809e-49
8.57833e-49
8.57858e-49
8.57885e-49
8.57914e-49
8.57944e-49
8.57975e-49
8.58008e-49
8.58043e-49
8.5808e-49
8.58118e-49
8.58157e-49
8.58197e-49
8.58239e-49
8.58282e-49
8.58326e-49
8.58372e-49
8.58419e-49
8.58468e-49
8.5852e-49
8.58576e-49
8.58636e-49
8.58701e-49
8.58771e-49
8.58849e-49
8.58935e-49
8.59029e-49
8.59132e-49
8.59245e-49
8.59367e-49
8.59498e-49
8.59638e-49
8.59785e-49
8.59938e-49
8.60096e-49
8.60256e-49
8.60417e-49
8.60577e-49
8.60734e-49
8.60886e-49
8.61031e-49
8.61168e-49
8.61297e-49
8.61416e-49
8.61527e-49
8.61629e-49
8.61723e-49
8.6181e-49
8.61893e-49
8.61972e-49
8.6205e-49
8.62128e-49
8.62208e-49
8.62292e-49
8.6238e-49
8.62475e-49
8.62576e-49
8.62684e-49
8.62799e-49
8.62922e-49
8.63051e-49
8.63186e-49
8.63325e-49
8.63469e-49
8.63615e-49
8.63763e-49
8.63916e-49
8.64093e-49
8.64378e-49
8.65174e-49
8.68327e-49
8.82272e-49
9.4533e-49
1.23084e-48
2.51945e-48
8.31196e-48
3.4244e-47
1.49877e-46
6.63532e-46
2.93693e-45
1.2964e-44
5.70438e-44
2.50223e-43
1.09436e-42
4.77299e-42
2.07633e-41
9.01071e-41
3.90178e-40
1.68611e-39
7.27283e-39
3.13178e-38
1.34654e-37
5.78169e-37
2.47944e-36
1.06212e-35
4.54527e-35
1.94337e-34
8.30216e-34
3.54402e-33
1.51179e-32
6.44446e-32
2.74531e-31
1.16871e-30
4.97198e-30
2.11376e-29
8.98003e-29
3.81231e-28
1.61727e-27
6.85578e-27
2.90412e-26
1.22932e-25
5.2002e-25
2.1984e-24
9.28865e-24
3.92282e-23
1.65611e-22
6.98997e-22
2.9499e-21
1.2449e-20
5.25414e-20
2.2304e-19
9.44134e-19
3.99053e-18
1.68671e-17
7.1322e-17
3.0173e-16
1.27712e-15
5.40834e-15
2.2914e-14
9.71241e-14
4.1184e-13
1.74698e-12
7.41297e-12
3.14649e-11
1.33592e-10
5.67344e-10
2.40992e-09
1.02378e-08
4.34822e-08
1.84452e-07
7.78858e-07
3.23595e-06
1.27249e-05
4.22013e-05
9.23657e-05
0.000122652
0.000109956
6.28594e-05
2.69888e-05
1.0902e-05
5.58545e-06
4.43223e-06
4.67269e-06
5.3712e-06
5.95434e-06
6.38254e-06
6.64099e-06
6.75584e-06
6.7625e-06
6.6928e-06
6.57184e-06
6.41806e-06
6.24456e-06
6.06048e-06
5.87206e-06
5.68353e-06
5.49771e-06
5.31646e-06
5.14093e-06
4.97182e-06
4.80948e-06
4.65405e-06
4.50553e-06
4.36378e-06
4.2286e-06
4.09977e-06
3.97702e-06
3.86008e-06
3.7487e-06
3.64263e-06
3.54168e-06
3.44857e-06
3.36094e-06
3.27676e-06
3.19589e-06
3.11813e-06
3.04335e-06
2.9714e-06
2.90214e-06
2.83544e-06
2.77119e-06
2.70927e-06
2.64956e-06
2.59197e-06
2.5364e-06
2.48276e-06
2.43095e-06
2.38091e-06
2.33254e-06
2.28577e-06
2.24054e-06
2.19678e-06
2.15442e-06
2.11341e-06
2.07368e-06
2.03518e-06
1.99787e-06
1.96169e-06
1.9266e-06
1.89254e-06
1.85949e-06
1.82739e-06
1.79622e-06
1.76593e-06
1.73649e-06
1.70787e-06
1.68003e-06
1.65295e-06
1.62659e-06
1.60093e-06
1.57595e-06
1.55162e-06
1.52791e-06
1.5048e-06
1.48228e-06
1.46032e-06
1.43889e-06
1.418e-06
1.3976e-06
1.3777e-06
1.35827e-06
1.33929e-06
1.32075e-06
1.30265e-06
1.28495e-06
1.26766e-06
1.25076e-06
1.23423e-06
1.21807e-06
1.20226e-06
1.1868e-06
1.17168e-06
1.15689e-06
1.14243e-06
1.1283e-06
1.11445e-06
1.10082e-06
1.08747e-06
1.07439e-06
1.06157e-06
1.04901e-06
1.0367e-06
1.02462e-06
1.01279e-06
1.00118e-06
9.89798e-07
9.78632e-07
9.67678e-07
9.5693e-07
9.46382e-07
9.36031e-07
9.25871e-07
9.15896e-07
9.06103e-07
8.96486e-07
8.87042e-07
8.77766e-07
8.68654e-07
8.59702e-07
8.50906e-07
8.42262e-07
8.33767e-07
8.25417e-07
8.17208e-07
8.09137e-07
8.01202e-07
7.93398e-07
7.85722e-07
7.78172e-07
7.70745e-07
7.63437e-07
7.56247e-07
7.49171e-07
7.42206e-07
7.35351e-07
7.28603e-07
7.21959e-07
7.15417e-07
7.08974e-07
7.0263e-07
6.96381e-07
6.90225e-07
6.84161e-07
6.78187e-07
6.723e-07
6.66499e-07
6.60783e-07
6.55149e-07
6.49596e-07
6.44122e-07
6.38726e-07
6.33406e-07
6.28161e-07
6.2299e-07
6.17891e-07
6.12862e-07
6.07903e-07
6.03012e-07
5.98187e-07
5.93429e-07
5.88735e-07
5.84105e-07
5.79537e-07
5.75031e-07
5.70584e-07
5.66197e-07
5.61868e-07
5.57596e-07
5.53381e-07
5.4922e-07
5.45115e-07
5.41062e-07
5.37063e-07
5.33115e-07
5.29218e-07
5.25371e-07
5.21573e-07
5.17824e-07
5.14122e-07
5.10467e-07
5.06859e-07
5.03295e-07
4.99777e-07
4.96302e-07
4.92871e-07
4.89482e-07
4.86135e-07
4.8283e-07
4.79565e-07
4.76341e-07
4.73155e-07
4.70009e-07
4.66901e-07
4.63831e-07
4.60797e-07
4.57801e-07
4.5484e-07
4.51915e-07
4.49026e-07
4.46171e-07
4.4335e-07
4.40563e-07
4.37811e-07
4.35091e-07
4.32405e-07
4.29752e-07
4.27133e-07
4.24549e-07
4.22e-07
4.1949e-07
4.17021e-07
4.14597e-07
4.12227e-07
4.09925e-07
4.07712e-07
4.05624e-07
4.03725e-07
4.02135e-07
4.01092e-07
)
;

boundaryField
{
    boundary
    {
        type            empty;
    }
    inlet
    {
        type            fixedValue;
        value           uniform 0;
    }
    outlet
    {
        type            zeroGradient;
    }
}


// ************************************************************************* //
