/*--------------------------------*- C++ -*----------------------------------*\
  =========                 |
  \\      /  F ield         | OpenFOAM: The Open Source CFD Toolbox
   \\    /   O peration     | Website:  https://openfoam.org
    \\  /    A nd           | Version:  7
     \\/     M anipulation  |
\*---------------------------------------------------------------------------*/
FoamFile
{
    version     2.0;
    format      ascii;
    class       volScalarField;
    location    "0.00096";
    object      HO2;
}
// * * * * * * * * * * * * * * * * * * * * * * * * * * * * * * * * * * * * * //

dimensions      [0 0 0 0 0 0 0];

internalField   nonuniform List<scalar> 
500
(
5.59249e-38
1.27285e-37
1.98928e-37
2.70654e-37
3.42412e-37
4.14189e-37
4.85973e-37
5.57756e-37
6.29528e-37
7.01276e-37
7.72986e-37
8.44637e-37
9.16209e-37
9.87679e-37
1.05902e-36
1.13022e-36
1.20124e-36
1.27209e-36
1.34275e-36
1.41323e-36
1.48354e-36
1.55371e-36
1.62378e-36
1.69378e-36
1.76378e-36
1.83383e-36
1.904e-36
1.97435e-36
2.04496e-36
2.11589e-36
2.18721e-36
2.25898e-36
2.33125e-36
2.40409e-36
2.47757e-36
2.55173e-36
2.62665e-36
2.7024e-36
2.77908e-36
2.85677e-36
2.9356e-36
3.01569e-36
3.09719e-36
3.18026e-36
3.26509e-36
3.35187e-36
3.44081e-36
3.53211e-36
3.62599e-36
3.72266e-36
3.82231e-36
3.92511e-36
4.03119e-36
4.14067e-36
4.2536e-36
4.36997e-36
4.48972e-36
4.61273e-36
4.73878e-36
4.8676e-36
4.99883e-36
5.13204e-36
5.26673e-36
5.40235e-36
5.53829e-36
5.67388e-36
5.80846e-36
5.94131e-36
6.07176e-36
6.19913e-36
6.32276e-36
6.44206e-36
6.55648e-36
6.66556e-36
6.76889e-36
6.86617e-36
6.95716e-36
7.04173e-36
7.11983e-36
7.19148e-36
7.25679e-36
7.31594e-36
7.36915e-36
7.41672e-36
7.45897e-36
7.49625e-36
7.52893e-36
7.5574e-36
7.58203e-36
7.60322e-36
7.62133e-36
7.63671e-36
7.64969e-36
7.66057e-36
7.66965e-36
7.67717e-36
7.68336e-36
7.68844e-36
7.69257e-36
7.69592e-36
7.69862e-36
7.70078e-36
7.7025e-36
7.70387e-36
7.70496e-36
7.70582e-36
7.70649e-36
7.70703e-36
7.70745e-36
7.70778e-36
7.70805e-36
7.70827e-36
7.70845e-36
7.7086e-36
7.70873e-36
7.70885e-36
7.70896e-36
7.70906e-36
7.70915e-36
7.70924e-36
7.70932e-36
7.70935e-36
7.70917e-36
7.7082e-36
7.70412e-36
7.69605e-36
7.69616e-36
7.69628e-36
7.6964e-36
7.69654e-36
7.69668e-36
7.69682e-36
7.69698e-36
7.69714e-36
7.69732e-36
7.6975e-36
7.6977e-36
7.69791e-36
7.69813e-36
7.69835e-36
7.69859e-36
7.69884e-36
7.6991e-36
7.69936e-36
7.69963e-36
7.69991e-36
7.70019e-36
7.70047e-36
7.70076e-36
7.70106e-36
7.70137e-36
7.7017e-36
7.70204e-36
7.7024e-36
7.7028e-36
7.70322e-36
7.70368e-36
7.70419e-36
7.70473e-36
7.70532e-36
7.70596e-36
7.70664e-36
7.70736e-36
7.70812e-36
7.7089e-36
7.70971e-36
7.71053e-36
7.71135e-36
7.71216e-36
7.71296e-36
7.71374e-36
7.71448e-36
7.71519e-36
7.71586e-36
7.71649e-36
7.71708e-36
7.71764e-36
7.71816e-36
7.71865e-36
7.71913e-36
7.7196e-36
7.72007e-36
7.72054e-36
7.72103e-36
7.72154e-36
7.72208e-36
7.72266e-36
7.72327e-36
7.72391e-36
7.72459e-36
7.72531e-36
7.72606e-36
7.72684e-36
7.72763e-36
7.72845e-36
7.72927e-36
7.7301e-36
7.73093e-36
7.73174e-36
7.73254e-36
7.73332e-36
7.73408e-36
7.7348e-36
7.73549e-36
7.73615e-36
7.73677e-36
7.73735e-36
7.73789e-36
7.7384e-36
7.73889e-36
7.73943e-36
7.74024e-36
7.74196e-36
7.74667e-36
7.76087e-36
7.80491e-36
7.94247e-36
8.37233e-36
9.7141e-36
1.38964e-35
2.69156e-35
6.73998e-35
1.93187e-34
5.8383e-34
1.79692e-33
5.56557e-33
1.72858e-32
5.38022e-32
1.67902e-31
5.25908e-31
1.65577e-30
5.24967e-30
1.67996e-29
5.44085e-29
1.78864e-28
5.98692e-28
2.04619e-27
7.15696e-27
2.56511e-26
9.42138e-26
3.54215e-25
1.36033e-24
5.32174e-24
2.11445e-23
8.50776e-23
3.4576e-22
1.41619e-21
5.83547e-21
2.41564e-20
1.00351e-19
4.18007e-19
1.75467e-18
7.35488e-18
3.08099e-17
1.29144e-16
5.41726e-16
2.27387e-15
9.54938e-15
4.01194e-14
1.68599e-13
7.08645e-13
2.97875e-12
1.25208e-11
5.2624e-11
2.21129e-10
9.28901e-10
3.90012e-09
1.63627e-08
6.85417e-08
2.86194e-07
1.18637e-06
4.83715e-06
1.90614e-05
6.95653e-05
0.000213171
0.000442419
0.000519929
0.000451259
0.000339132
0.000240761
0.000168892
0.000118244
8.29153e-05
5.91754e-05
4.09312e-05
3.07931e-05
2.42926e-05
2.0037e-05
1.71593e-05
1.51332e-05
1.36439e-05
1.25028e-05
1.15957e-05
1.08516e-05
1.02256e-05
9.68818e-06
9.21933e-06
8.80509e-06
8.43536e-06
8.10259e-06
7.80103e-06
7.52616e-06
7.27438e-06
7.04273e-06
6.82881e-06
6.63057e-06
6.4463e-06
6.27455e-06
6.11409e-06
5.96384e-06
5.82293e-06
5.69065e-06
5.5701e-06
5.45772e-06
5.35074e-06
5.24878e-06
5.15147e-06
5.05851e-06
4.9696e-06
4.88448e-06
4.80291e-06
4.72468e-06
4.64959e-06
4.57746e-06
4.50811e-06
4.44141e-06
4.3772e-06
4.31535e-06
4.25574e-06
4.19825e-06
4.14279e-06
4.08925e-06
4.03754e-06
3.98757e-06
3.93927e-06
3.89255e-06
3.84735e-06
3.80359e-06
3.76121e-06
3.72015e-06
3.68036e-06
3.64177e-06
3.60434e-06
3.56802e-06
3.53276e-06
3.49852e-06
3.46526e-06
3.43293e-06
3.40151e-06
3.37094e-06
3.34121e-06
3.31228e-06
3.28411e-06
3.25668e-06
3.22997e-06
3.20394e-06
3.17857e-06
3.15383e-06
3.12972e-06
3.10619e-06
3.08323e-06
3.06083e-06
3.03896e-06
3.01761e-06
2.99676e-06
2.97639e-06
2.95649e-06
2.93705e-06
2.91804e-06
2.89946e-06
2.88129e-06
2.86353e-06
2.84616e-06
2.82917e-06
2.81256e-06
2.79632e-06
2.78041e-06
2.76481e-06
2.74953e-06
2.73457e-06
2.71992e-06
2.70558e-06
2.69152e-06
2.67775e-06
2.66427e-06
2.65105e-06
2.6381e-06
2.62541e-06
2.61297e-06
2.60077e-06
2.58882e-06
2.5771e-06
2.56561e-06
2.55434e-06
2.54329e-06
2.53244e-06
2.52181e-06
2.51138e-06
2.50114e-06
2.49109e-06
2.48123e-06
2.47155e-06
2.46205e-06
2.45272e-06
2.44355e-06
2.43455e-06
2.42571e-06
2.41702e-06
2.40849e-06
2.40009e-06
2.39184e-06
2.38373e-06
2.37575e-06
2.3679e-06
2.36018e-06
2.35258e-06
2.3451e-06
2.33774e-06
2.33049e-06
2.32335e-06
2.31632e-06
2.30939e-06
2.30256e-06
2.29584e-06
2.28921e-06
2.28267e-06
2.27623e-06
2.26988e-06
2.26361e-06
2.25743e-06
2.25134e-06
2.24533e-06
2.2394e-06
2.23355e-06
2.22778e-06
2.22209e-06
2.21647e-06
2.21093e-06
2.20546e-06
2.20006e-06
2.19473e-06
2.18948e-06
2.18429e-06
2.17917e-06
2.17412e-06
2.16914e-06
2.16422e-06
2.15936e-06
2.15457e-06
2.14984e-06
2.14517e-06
2.14056e-06
2.13601e-06
2.13152e-06
2.12709e-06
2.12272e-06
2.1184e-06
2.11414e-06
2.10993e-06
2.10577e-06
2.10167e-06
2.09762e-06
2.09362e-06
2.08968e-06
2.08578e-06
2.08193e-06
2.07813e-06
2.07437e-06
2.07067e-06
2.06701e-06
2.06339e-06
2.05982e-06
2.0563e-06
2.05282e-06
2.04938e-06
2.04598e-06
2.04262e-06
2.0393e-06
2.03603e-06
2.03279e-06
2.02958e-06
2.02642e-06
2.02329e-06
2.02019e-06
2.01713e-06
2.0141e-06
2.0111e-06
2.00814e-06
2.0052e-06
2.00229e-06
1.9994e-06
1.99655e-06
1.99373e-06
1.99093e-06
1.98818e-06
1.98549e-06
1.98289e-06
1.98045e-06
1.97831e-06
1.9768e-06
)
;

boundaryField
{
    boundary
    {
        type            empty;
    }
    inlet
    {
        type            fixedValue;
        value           uniform 0;
    }
    outlet
    {
        type            zeroGradient;
    }
}


// ************************************************************************* //
