/*--------------------------------*- C++ -*----------------------------------*\
  =========                 |
  \\      /  F ield         | OpenFOAM: The Open Source CFD Toolbox
   \\    /   O peration     | Website:  https://openfoam.org
    \\  /    A nd           | Version:  7
     \\/     M anipulation  |
\*---------------------------------------------------------------------------*/
FoamFile
{
    version     2.0;
    format      ascii;
    class       volScalarField;
    location    "0.00096";
    object      O2;
}
// * * * * * * * * * * * * * * * * * * * * * * * * * * * * * * * * * * * * * //

dimensions      [0 0 0 0 0 0 0];

internalField   nonuniform List<scalar> 
500
(
0.226269
0.226269
0.226269
0.226269
0.226269
0.226269
0.226269
0.226269
0.226269
0.226269
0.226269
0.226269
0.226269
0.226269
0.226269
0.226269
0.226269
0.226269
0.226269
0.226269
0.226269
0.226269
0.226269
0.226269
0.226269
0.226269
0.226269
0.226269
0.226269
0.226269
0.226269
0.226269
0.226269
0.226269
0.226269
0.226269
0.226269
0.226269
0.226269
0.226269
0.226269
0.226269
0.226269
0.226269
0.226269
0.226269
0.226269
0.226269
0.226269
0.226269
0.226269
0.226269
0.226269
0.226269
0.226269
0.226269
0.226269
0.226269
0.226269
0.226269
0.226269
0.226269
0.226269
0.226269
0.226269
0.226269
0.226269
0.226269
0.226269
0.226269
0.226269
0.226269
0.226269
0.226269
0.226269
0.226269
0.226269
0.226269
0.226269
0.226269
0.226269
0.226269
0.226269
0.226269
0.226269
0.226269
0.226269
0.226269
0.226269
0.226269
0.226269
0.226269
0.226269
0.226269
0.226269
0.226269
0.226269
0.226269
0.226269
0.226269
0.226269
0.226269
0.226269
0.226269
0.226269
0.226269
0.226269
0.226269
0.226269
0.226269
0.226269
0.226269
0.226269
0.226269
0.226269
0.226269
0.226269
0.226269
0.226269
0.226269
0.226269
0.226269
0.226269
0.226269
0.226269
0.226269
0.226269
0.226269
0.226269
0.226269
0.226269
0.226269
0.226269
0.226269
0.226269
0.226269
0.226269
0.226269
0.226269
0.226269
0.226269
0.226269
0.226269
0.226269
0.226269
0.226269
0.226269
0.226269
0.226269
0.226269
0.226269
0.226269
0.226269
0.226269
0.226269
0.226269
0.226269
0.226269
0.226269
0.226269
0.226269
0.226269
0.226269
0.226269
0.226269
0.226269
0.226269
0.226269
0.226269
0.226269
0.226269
0.226269
0.226269
0.226269
0.226269
0.226269
0.226269
0.226269
0.226269
0.226269
0.226269
0.226269
0.226269
0.226269
0.226269
0.226269
0.226269
0.226269
0.226269
0.226269
0.226269
0.226269
0.226269
0.226269
0.226269
0.226269
0.226269
0.226269
0.226269
0.226269
0.226269
0.226269
0.226269
0.226269
0.226269
0.226269
0.226269
0.226269
0.226269
0.226269
0.226269
0.226269
0.226269
0.226269
0.226269
0.226269
0.226269
0.226269
0.226269
0.226269
0.226269
0.226269
0.226269
0.226269
0.226269
0.226269
0.226269
0.226269
0.226269
0.226269
0.226269
0.226269
0.226269
0.226269
0.226269
0.226269
0.226269
0.226269
0.226269
0.226269
0.226269
0.226269
0.226269
0.226269
0.226269
0.226269
0.226269
0.226269
0.226269
0.226269
0.226269
0.226269
0.226269
0.226269
0.226269
0.226269
0.226269
0.226269
0.226269
0.226269
0.226269
0.226269
0.226269
0.226269
0.226269
0.226269
0.22627
0.22627
0.226272
0.226274
0.226277
0.226277
0.22625
0.226096
0.225458
0.223393
0.218122
0.208178
0.194646
0.177558
0.155762
0.130345
0.105414
0.0851243
0.066615
0.0555799
0.0481011
0.043041
0.0395597
0.0370913
0.0352717
0.0338719
0.0327487
0.0318126
0.0310076
0.0302975
0.029659
0.0290767
0.0285397
0.0280405
0.0275737
0.0271349
0.0267209
0.0263291
0.0259571
0.0256033
0.0252659
0.0249436
0.0246353
0.0243399
0.0240566
0.0237849
0.0235322
0.0232918
0.0230584
0.0228317
0.0226114
0.022397
0.0221882
0.0219849
0.0217867
0.0215934
0.0214047
0.0212205
0.0210406
0.0208649
0.0206931
0.0205252
0.020361
0.0202004
0.0200432
0.0198894
0.0197388
0.0195914
0.019447
0.0193055
0.0191669
0.0190311
0.018898
0.0187674
0.0186393
0.0185136
0.0183903
0.0182693
0.0181504
0.0180337
0.017919
0.0178063
0.0176955
0.0175866
0.0174795
0.0173741
0.0172705
0.0171684
0.017068
0.016969
0.0168716
0.0167757
0.0166811
0.016588
0.0164962
0.0164056
0.0163164
0.0162284
0.0161416
0.016056
0.0159715
0.0158882
0.015806
0.0157248
0.0156448
0.0155657
0.0154877
0.0154107
0.0153347
0.0152596
0.0151856
0.0151124
0.0150401
0.0149687
0.0148982
0.0148285
0.0147597
0.0146918
0.0146247
0.0145584
0.0144929
0.0144282
0.0143642
0.0143011
0.0142387
0.014177
0.014116
0.0140558
0.0139963
0.0139375
0.0138793
0.0138218
0.013765
0.0137088
0.0136532
0.0135982
0.0135439
0.0134901
0.0134369
0.0133842
0.0133321
0.0132806
0.0132295
0.013179
0.0131289
0.0130793
0.0130302
0.0129816
0.0129334
0.0128856
0.0128383
0.0127914
0.0127448
0.0126987
0.0126529
0.0126076
0.0125626
0.0125179
0.0124736
0.0124297
0.0123861
0.0123428
0.0122999
0.0122573
0.012215
0.012173
0.0121314
0.0120901
0.012049
0.0120083
0.011968
0.0119279
0.0118881
0.0118486
0.0118094
0.0117705
0.011732
0.0116937
0.0116557
0.011618
0.0115806
0.0115435
0.0115067
0.0114702
0.0114339
0.011398
0.0113623
0.0113269
0.0112918
0.0112569
0.0112224
0.0111881
0.0111541
0.0111203
0.0110869
0.0110537
0.0110207
0.010988
0.0109556
0.0109234
0.0108915
0.0108598
0.0108284
0.0107972
0.0107663
0.0107356
0.0107051
0.0106749
0.0106449
0.0106151
0.0105856
0.0105563
0.0105272
0.0104983
0.0104696
0.0104411
0.0104128
0.0103847
0.0103568
0.010329
0.0103014
0.010274
0.0102467
0.0102195
0.0101924
0.0101655
0.0101386
0.0101119
0.0100854
0.0100591
0.0100335
0.0100092
0.00998767
0.00997261
)
;

boundaryField
{
    boundary
    {
        type            empty;
    }
    inlet
    {
        type            fixedValue;
        value           uniform 0.226269;
    }
    outlet
    {
        type            zeroGradient;
    }
}


// ************************************************************************* //
