/*--------------------------------*- C++ -*----------------------------------*\
  =========                 |
  \\      /  F ield         | OpenFOAM: The Open Source CFD Toolbox
   \\    /   O peration     | Website:  https://openfoam.org
    \\  /    A nd           | Version:  7
     \\/     M anipulation  |
\*---------------------------------------------------------------------------*/
FoamFile
{
    version     2.0;
    format      ascii;
    class       volScalarField;
    location    "0.00096";
    object      OH;
}
// * * * * * * * * * * * * * * * * * * * * * * * * * * * * * * * * * * * * * //

dimensions      [0 0 0 0 0 0 0];

internalField   nonuniform List<scalar> 
500
(
9.38214e-48
1.82844e-47
2.43729e-47
2.84989e-47
3.12912e-47
3.31842e-47
3.44719e-47
3.53525e-47
3.59589e-47
3.63805e-47
3.66771e-47
3.68887e-47
3.70418e-47
3.71543e-47
3.72378e-47
3.73001e-47
3.73464e-47
3.73802e-47
3.7404e-47
3.74196e-47
3.74286e-47
3.74324e-47
3.74323e-47
3.74298e-47
3.74261e-47
3.74227e-47
3.74211e-47
3.74225e-47
3.74283e-47
3.74398e-47
3.7458e-47
3.7484e-47
3.75188e-47
3.7563e-47
3.76177e-47
3.76833e-47
3.77608e-47
3.78507e-47
3.79539e-47
3.80714e-47
3.8204e-47
3.8353e-47
3.85197e-47
3.87056e-47
3.89124e-47
3.91419e-47
3.9396e-47
3.96769e-47
3.99868e-47
4.03277e-47
4.07019e-47
4.11115e-47
4.15585e-47
4.20445e-47
4.25712e-47
4.31396e-47
4.37506e-47
4.44044e-47
4.5101e-47
4.58394e-47
4.66183e-47
4.74358e-47
4.82892e-47
4.91752e-47
5.00898e-47
5.10286e-47
5.19866e-47
5.29581e-47
5.39374e-47
5.49183e-47
5.58947e-47
5.68601e-47
5.78085e-47
5.87341e-47
5.96313e-47
6.04952e-47
6.13214e-47
6.21061e-47
6.28464e-47
6.354e-47
6.41854e-47
6.4782e-47
6.53297e-47
6.58292e-47
6.62816e-47
6.66887e-47
6.70527e-47
6.73759e-47
6.76612e-47
6.79113e-47
6.81293e-47
6.8318e-47
6.84805e-47
6.86194e-47
6.87376e-47
6.88375e-47
6.89215e-47
6.89917e-47
6.905e-47
6.90982e-47
6.91379e-47
6.91703e-47
6.91967e-47
6.92182e-47
6.92354e-47
6.92494e-47
6.92605e-47
6.92695e-47
6.92766e-47
6.92824e-47
6.9287e-47
6.92908e-47
6.92939e-47
6.92964e-47
6.92986e-47
6.93004e-47
6.93021e-47
6.93035e-47
6.93049e-47
6.93062e-47
6.93074e-47
6.93085e-47
6.93093e-47
6.93092e-47
6.93068e-47
6.93027e-47
6.93035e-47
6.93044e-47
6.93055e-47
6.93069e-47
6.93086e-47
6.93105e-47
6.93126e-47
6.93149e-47
6.93174e-47
6.93201e-47
6.93229e-47
6.9326e-47
6.93293e-47
6.93327e-47
6.93363e-47
6.93401e-47
6.93439e-47
6.93478e-47
6.93516e-47
6.93555e-47
6.93592e-47
6.93629e-47
6.93664e-47
6.93698e-47
6.93731e-47
6.93762e-47
6.93793e-47
6.93822e-47
6.93852e-47
6.93881e-47
6.93911e-47
6.93941e-47
6.93973e-47
6.94006e-47
6.94041e-47
6.94078e-47
6.94116e-47
6.94156e-47
6.94198e-47
6.94242e-47
6.94288e-47
6.94335e-47
6.94383e-47
6.94432e-47
6.94482e-47
6.94533e-47
6.94585e-47
6.94637e-47
6.94689e-47
6.94742e-47
6.94796e-47
6.94849e-47
6.94903e-47
6.94958e-47
6.95012e-47
6.95067e-47
6.95123e-47
6.95178e-47
6.95235e-47
6.95291e-47
6.95348e-47
6.95406e-47
6.95464e-47
6.95524e-47
6.9559e-47
6.95673e-47
6.95816e-47
6.96159e-47
6.97173e-47
7.00424e-47
7.11106e-47
7.46353e-47
8.6249e-47
1.24389e-46
2.49168e-46
6.55846e-46
1.97628e-45
6.2478e-45
2.00166e-44
6.42461e-44
2.05852e-43
6.57769e-43
2.09559e-42
6.6568e-42
2.1086e-41
6.66117e-41
2.09891e-40
6.59758e-40
2.06913e-39
6.47537e-39
2.02245e-38
6.30502e-38
1.96224e-37
6.09724e-37
1.89184e-36
5.86218e-36
1.81429e-35
5.60887e-35
1.73224e-34
5.34496e-34
1.64785e-33
5.07649e-33
1.56281e-32
4.80808e-32
1.47836e-31
4.54312e-31
1.39544e-30
4.28421e-30
1.3148e-29
4.03382e-29
1.23733e-28
3.79525e-28
1.16436e-27
3.57421e-27
1.09837e-26
3.38169e-26
1.04428e-25
3.23968e-25
1.01198e-24
3.19281e-24
1.02164e-23
3.33263e-23
1.11486e-22
3.84815e-22
1.37767e-21
5.15947e-21
2.00435e-20
8.06502e-20
3.34906e-19
1.42706e-18
6.20327e-18
2.73667e-17
1.22028e-16
5.48236e-16
2.47607e-15
1.12238e-14
5.10031e-14
2.3216e-13
1.05795e-12
4.82441e-12
2.20089e-11
1.00423e-10
4.62743e-10
2.15469e-09
1.01003e-08
4.77311e-08
2.31908e-07
1.22682e-06
7.63891e-06
5.21699e-05
0.000265882
0.000628302
0.000832834
0.00101088
0.00145701
0.00233499
0.00357604
0.00495633
0.00642344
0.00756019
0.0084737
0.00919127
0.00975014
0.0101863
0.010529
0.010801
0.0110186
0.0111941
0.0113365
0.0114523
0.0115466
0.0116232
0.0116851
0.0117345
0.0117735
0.0118036
0.0118259
0.0118415
0.0118514
0.0118562
0.0118566
0.0118531
0.0118462
0.0118362
0.0118235
0.0118085
0.0117919
0.011774
0.0117546
0.0117339
0.0117118
0.0116886
0.0116643
0.0116391
0.011613
0.011586
0.0115584
0.0115302
0.0115014
0.011472
0.0114422
0.011412
0.0113815
0.0113507
0.0113195
0.0112882
0.0112567
0.011225
0.0111931
0.0111612
0.0111291
0.0110971
0.0110649
0.0110328
0.0110006
0.0109684
0.0109363
0.0109042
0.0108721
0.0108401
0.0108081
0.0107762
0.0107444
0.0107126
0.010681
0.0106494
0.0106179
0.0105865
0.0105552
0.0105241
0.010493
0.0104621
0.0104313
0.0104006
0.01037
0.0103395
0.0103092
0.010279
0.0102489
0.010219
0.0101892
0.0101596
0.01013
0.0101007
0.0100715
0.0100424
0.0100135
0.00998471
0.00995608
0.0099276
0.00989925
0.009871
0.00984292
0.00981499
0.00978721
0.0097596
0.00973213
0.00970483
0.00967768
0.00965068
0.00962385
0.00959718
0.00957066
0.0095443
0.0095181
0.00949206
0.00946618
0.00944045
0.00941488
0.00938947
0.00936421
0.00933911
0.00931416
0.00928936
0.00926471
0.00924022
0.00921587
0.00919166
0.0091676
0.00914368
0.0091199
0.00909626
0.00907276
0.00904939
0.00902615
0.00900304
0.00898005
0.0089572
0.00893446
0.00891185
0.00888936
0.00886699
0.00884473
0.00882259
0.00880057
0.00877865
0.00875685
0.00873516
0.00871358
0.0086921
0.00867074
0.00864948
0.00862833
0.00860729
0.00858635
0.00856552
0.0085448
0.00852419
0.00850368
0.00848328
0.00846298
0.00844279
0.00842271
0.00840274
0.00838288
0.00836312
0.00834347
0.00832393
0.0083045
0.00828517
0.00826596
0.00824685
0.00822785
0.00820896
0.00819018
0.00817151
0.00815294
0.00813448
0.00811613
0.00809788
0.00807975
0.00806172
0.0080438
0.00802598
0.00800827
0.00799066
0.00797316
0.00795577
0.00793848
0.0079213
0.00790422
0.00788725
0.00787038
0.00785361
0.00783695
0.0078204
0.00780394
0.0077876
0.00777135
0.00775521
0.00773917
0.00772324
0.00770741
0.00769169
0.00767606
0.00766055
0.00764514
0.00762984
0.00761465
0.00759957
0.00758462
0.00756979
0.0075551
0.00754057
0.00752622
0.00751208
0.00749821
0.00748469
0.00747163
0.0074592
0.00744766
0.00743744
0.00742917
0.00742397
)
;

boundaryField
{
    boundary
    {
        type            empty;
    }
    inlet
    {
        type            fixedValue;
        value           uniform 0;
    }
    outlet
    {
        type            zeroGradient;
    }
}


// ************************************************************************* //
