/*--------------------------------*- C++ -*----------------------------------*\
  =========                 |
  \\      /  F ield         | OpenFOAM: The Open Source CFD Toolbox
   \\    /   O peration     | Website:  https://openfoam.org
    \\  /    A nd           | Version:  7
     \\/     M anipulation  |
\*---------------------------------------------------------------------------*/
FoamFile
{
    version     2.0;
    format      ascii;
    class       surfaceScalarField;
    location    "0.00096";
    object      phi;
}
// * * * * * * * * * * * * * * * * * * * * * * * * * * * * * * * * * * * * * //

dimensions      [1 0 -1 0 0 0 0];

internalField   nonuniform List<scalar> 
499
(
6.93092e-06
6.93094e-06
6.93096e-06
6.93097e-06
6.93097e-06
6.93097e-06
6.93098e-06
6.93098e-06
6.93098e-06
6.93098e-06
6.93099e-06
6.931e-06
6.93102e-06
6.93104e-06
6.93107e-06
6.9311e-06
6.93114e-06
6.93119e-06
6.93125e-06
6.93131e-06
6.93139e-06
6.93147e-06
6.93155e-06
6.93164e-06
6.93173e-06
6.93183e-06
6.93192e-06
6.932e-06
6.93208e-06
6.93215e-06
6.93221e-06
6.93226e-06
6.9323e-06
6.93232e-06
6.93232e-06
6.93231e-06
6.93228e-06
6.93223e-06
6.93216e-06
6.93206e-06
6.93195e-06
6.93181e-06
6.93164e-06
6.93144e-06
6.93122e-06
6.93096e-06
6.93067e-06
6.93034e-06
6.92997e-06
6.92955e-06
6.92909e-06
6.92859e-06
6.92803e-06
6.92743e-06
6.92677e-06
6.92606e-06
6.9253e-06
6.92449e-06
6.92363e-06
6.92273e-06
6.92178e-06
6.9208e-06
6.91978e-06
6.91873e-06
6.91766e-06
6.91657e-06
6.91547e-06
6.91438e-06
6.91328e-06
6.9122e-06
6.91114e-06
6.9101e-06
6.90909e-06
6.90811e-06
6.90718e-06
6.90629e-06
6.90544e-06
6.90465e-06
6.90391e-06
6.90322e-06
6.90258e-06
6.902e-06
6.90147e-06
6.90098e-06
6.90055e-06
6.90016e-06
6.89982e-06
6.89951e-06
6.89924e-06
6.89901e-06
6.89881e-06
6.89864e-06
6.89849e-06
6.89836e-06
6.89826e-06
6.89817e-06
6.8981e-06
6.89804e-06
6.89799e-06
6.89796e-06
6.89793e-06
6.8979e-06
6.89789e-06
6.89788e-06
6.89787e-06
6.89786e-06
6.89786e-06
6.89786e-06
6.89786e-06
6.89786e-06
6.89786e-06
6.89787e-06
6.89787e-06
6.89787e-06
6.89788e-06
6.89788e-06
6.89789e-06
6.89789e-06
6.8979e-06
6.8979e-06
6.8979e-06
6.89791e-06
6.89791e-06
6.89791e-06
6.89791e-06
6.89792e-06
6.89792e-06
6.89792e-06
6.89792e-06
6.89792e-06
6.89793e-06
6.89793e-06
6.89792e-06
6.89792e-06
6.89792e-06
6.89792e-06
6.89792e-06
6.89791e-06
6.89791e-06
6.89791e-06
6.8979e-06
6.8979e-06
6.89789e-06
6.89789e-06
6.89788e-06
6.89788e-06
6.89787e-06
6.89786e-06
6.89786e-06
6.89785e-06
6.89784e-06
6.89783e-06
6.89783e-06
6.89782e-06
6.89781e-06
6.8978e-06
6.8978e-06
6.89779e-06
6.89778e-06
6.89777e-06
6.89776e-06
6.89775e-06
6.89774e-06
6.89773e-06
6.89772e-06
6.8977e-06
6.89769e-06
6.89768e-06
6.89767e-06
6.89765e-06
6.89764e-06
6.89762e-06
6.89761e-06
6.89759e-06
6.89758e-06
6.89756e-06
6.89755e-06
6.89753e-06
6.89751e-06
6.8975e-06
6.89748e-06
6.89746e-06
6.89745e-06
6.89743e-06
6.89741e-06
6.89739e-06
6.89737e-06
6.89735e-06
6.89733e-06
6.89732e-06
6.8973e-06
6.89728e-06
6.89726e-06
6.89724e-06
6.89722e-06
6.8972e-06
6.89718e-06
6.89715e-06
6.89713e-06
6.89711e-06
6.89709e-06
6.89707e-06
6.89705e-06
6.89703e-06
6.89701e-06
6.89699e-06
6.89697e-06
6.89694e-06
6.89692e-06
6.8969e-06
6.89688e-06
6.89686e-06
6.89684e-06
6.89682e-06
6.8968e-06
6.89678e-06
6.89676e-06
6.89674e-06
6.89672e-06
6.8967e-06
6.89668e-06
6.89666e-06
6.89664e-06
6.89662e-06
6.8966e-06
6.89658e-06
6.89656e-06
6.89654e-06
6.89653e-06
6.89651e-06
6.89649e-06
6.89648e-06
6.89646e-06
6.89645e-06
6.89643e-06
6.89642e-06
6.8964e-06
6.89639e-06
6.89638e-06
6.89637e-06
6.89635e-06
6.89634e-06
6.89633e-06
6.89633e-06
6.89632e-06
6.89631e-06
6.8963e-06
6.8963e-06
6.89629e-06
6.89629e-06
6.89629e-06
6.89629e-06
6.89629e-06
6.89629e-06
6.89629e-06
6.89629e-06
6.8963e-06
6.8963e-06
6.89631e-06
6.89632e-06
6.89632e-06
6.89633e-06
6.89634e-06
6.89635e-06
6.89637e-06
6.89638e-06
6.8964e-06
6.89643e-06
6.8965e-06
6.89669e-06
6.89726e-06
6.89895e-06
6.90382e-06
6.91725e-06
6.94949e-06
7.0056e-06
7.06644e-06
7.11163e-06
7.14089e-06
7.16039e-06
7.17414e-06
7.18402e-06
7.19109e-06
7.19611e-06
7.19975e-06
7.20249e-06
7.20463e-06
7.20635e-06
7.20778e-06
7.20899e-06
7.21005e-06
7.21099e-06
7.21183e-06
7.21259e-06
7.21329e-06
7.21392e-06
7.21451e-06
7.21504e-06
7.21554e-06
7.216e-06
7.21643e-06
7.21682e-06
7.21719e-06
7.21753e-06
7.21786e-06
7.21816e-06
7.21844e-06
7.21871e-06
7.21896e-06
7.2192e-06
7.21943e-06
7.21964e-06
7.21984e-06
7.22002e-06
7.2202e-06
7.22037e-06
7.22054e-06
7.2207e-06
7.22085e-06
7.221e-06
7.22114e-06
7.22128e-06
7.22141e-06
7.22153e-06
7.22165e-06
7.22177e-06
7.22188e-06
7.22199e-06
7.22209e-06
7.22219e-06
7.22229e-06
7.22238e-06
7.22247e-06
7.22255e-06
7.22264e-06
7.22272e-06
7.2228e-06
7.22287e-06
7.22294e-06
7.22302e-06
7.22309e-06
7.22315e-06
7.22322e-06
7.22329e-06
7.22335e-06
7.22342e-06
7.22348e-06
7.22354e-06
7.2236e-06
7.22366e-06
7.22372e-06
7.22377e-06
7.22383e-06
7.22389e-06
7.22394e-06
7.224e-06
7.22405e-06
7.2241e-06
7.22416e-06
7.22421e-06
7.22426e-06
7.22431e-06
7.22436e-06
7.22441e-06
7.22446e-06
7.22451e-06
7.22456e-06
7.22461e-06
7.22466e-06
7.22471e-06
7.22476e-06
7.22481e-06
7.22485e-06
7.2249e-06
7.22495e-06
7.225e-06
7.22504e-06
7.22509e-06
7.22513e-06
7.22518e-06
7.22522e-06
7.22527e-06
7.22531e-06
7.22535e-06
7.2254e-06
7.22544e-06
7.22548e-06
7.22552e-06
7.22556e-06
7.22559e-06
7.22563e-06
7.22567e-06
7.2257e-06
7.22574e-06
7.22577e-06
7.2258e-06
7.22584e-06
7.22587e-06
7.2259e-06
7.22593e-06
7.22595e-06
7.22598e-06
7.22601e-06
7.22604e-06
7.22606e-06
7.22609e-06
7.22611e-06
7.22614e-06
7.22616e-06
7.22619e-06
7.22621e-06
7.22623e-06
7.22626e-06
7.22628e-06
7.22631e-06
7.22633e-06
7.22636e-06
7.22638e-06
7.22641e-06
7.22644e-06
7.22646e-06
7.22649e-06
7.22652e-06
7.22655e-06
7.22658e-06
7.22661e-06
7.22664e-06
7.22667e-06
7.2267e-06
7.22673e-06
7.22676e-06
7.22679e-06
7.22682e-06
7.22686e-06
7.22689e-06
7.22692e-06
7.22695e-06
7.22698e-06
7.22701e-06
7.22704e-06
7.22707e-06
7.2271e-06
7.22713e-06
7.22716e-06
7.22718e-06
7.22721e-06
7.22724e-06
7.22726e-06
7.22729e-06
7.22731e-06
7.22733e-06
7.22735e-06
7.22738e-06
7.2274e-06
7.22742e-06
7.22743e-06
7.22745e-06
7.22747e-06
7.22748e-06
7.2275e-06
7.22751e-06
7.22752e-06
7.22753e-06
7.22754e-06
7.22755e-06
7.22756e-06
7.22757e-06
7.22757e-06
7.22758e-06
7.22758e-06
7.22758e-06
7.22758e-06
7.22758e-06
7.22758e-06
7.22758e-06
7.22757e-06
7.22756e-06
7.22756e-06
7.22754e-06
7.22753e-06
7.22752e-06
7.2275e-06
7.22748e-06
7.22746e-06
7.22744e-06
7.22742e-06
7.22739e-06
7.22736e-06
7.22733e-06
7.2273e-06
7.22726e-06
7.22722e-06
7.22718e-06
7.22714e-06
7.2271e-06
7.22705e-06
7.227e-06
7.22695e-06
7.2269e-06
)
;

boundaryField
{
    boundary
    {
        type            empty;
        value           nonuniform 0();
    }
    inlet
    {
        type            calculated;
        value           uniform -6.93089e-06;
    }
    outlet
    {
        type            calculated;
        value           uniform 7.22685e-06;
    }
}


// ************************************************************************* //
