/*--------------------------------*- C++ -*----------------------------------*\
  =========                 |
  \\      /  F ield         | OpenFOAM: The Open Source CFD Toolbox
   \\    /   O peration     | Website:  https://openfoam.org
    \\  /    A nd           | Version:  7
     \\/     M anipulation  |
\*---------------------------------------------------------------------------*/
FoamFile
{
    version     2.0;
    format      ascii;
    class       volScalarField;
    location    "0.00096";
    object      Qdot;
}
// * * * * * * * * * * * * * * * * * * * * * * * * * * * * * * * * * * * * * //

dimensions      [1 -1 -3 0 0 0 0];

internalField   nonuniform List<scalar> 
500
(
-2.45183e-27
-1.86208e-27
-1.73513e-27
-1.70808e-27
-1.70261e-27
-1.70182e-27
-1.70202e-27
-1.7024e-27
-1.70278e-27
-1.70312e-27
-1.70338e-27
-1.70355e-27
-1.70361e-27
-1.70355e-27
-1.70334e-27
-1.70298e-27
-1.70244e-27
-1.70172e-27
-1.70082e-27
-1.69975e-27
-1.69852e-27
-1.69716e-27
-1.69571e-27
-1.69419e-27
-1.69265e-27
-1.69113e-27
-1.68969e-27
-1.68837e-27
-1.68721e-27
-1.68627e-27
-1.68557e-27
-1.68515e-27
-1.68505e-27
-1.68529e-27
-1.68591e-27
-1.68692e-27
-1.68835e-27
-1.69022e-27
-1.69256e-27
-1.6954e-27
-1.69878e-27
-1.70273e-27
-1.70729e-27
-1.71253e-27
-1.71848e-27
-1.72522e-27
-1.73281e-27
-1.74131e-27
-1.75081e-27
-1.76136e-27
-1.77305e-27
-1.78593e-27
-1.80007e-27
-1.81552e-27
-1.83233e-27
-1.85052e-27
-1.87013e-27
-1.89114e-27
-1.91356e-27
-1.93733e-27
-1.96241e-27
-1.98873e-27
-2.01619e-27
-2.04467e-27
-2.07404e-27
-2.10414e-27
-2.13481e-27
-2.16587e-27
-2.19711e-27
-2.22835e-27
-2.25937e-27
-2.28999e-27
-2.32001e-27
-2.34923e-27
-2.3775e-27
-2.40466e-27
-2.43058e-27
-2.45515e-27
-2.47827e-27
-2.4999e-27
-2.51998e-27
-2.53851e-27
-2.55548e-27
-2.57093e-27
-2.58491e-27
-2.59746e-27
-2.60866e-27
-2.6186e-27
-2.62736e-27
-2.63502e-27
-2.6417e-27
-2.64747e-27
-2.65243e-27
-2.65667e-27
-2.66028e-27
-2.66332e-27
-2.66588e-27
-2.66801e-27
-2.66978e-27
-2.67125e-27
-2.67245e-27
-2.67344e-27
-2.67424e-27
-2.67489e-27
-2.67542e-27
-2.67584e-27
-2.67618e-27
-2.67645e-27
-2.67667e-27
-2.67685e-27
-2.67699e-27
-2.67711e-27
-2.67721e-27
-2.67729e-27
-2.67735e-27
-2.67741e-27
-2.67747e-27
-2.67751e-27
-2.67756e-27
-2.6776e-27
-2.67764e-27
-2.67769e-27
-2.67772e-27
-2.67776e-27
-2.6778e-27
-2.67784e-27
-2.67786e-27
-2.67788e-27
-2.67792e-27
-2.67796e-27
-2.67801e-27
-2.67808e-27
-2.67814e-27
-2.67822e-27
-2.6783e-27
-2.67839e-27
-2.67848e-27
-2.67858e-27
-2.67869e-27
-2.6788e-27
-2.67892e-27
-2.67904e-27
-2.67916e-27
-2.67928e-27
-2.67941e-27
-2.67953e-27
-2.67965e-27
-2.67976e-27
-2.67987e-27
-2.67998e-27
-2.68008e-27
-2.68017e-27
-2.68026e-27
-2.68035e-27
-2.68044e-27
-2.68052e-27
-2.68061e-27
-2.68069e-27
-2.68078e-27
-2.68088e-27
-2.68098e-27
-2.68108e-27
-2.68119e-27
-2.6813e-27
-2.68142e-27
-2.68155e-27
-2.68168e-27
-2.68182e-27
-2.68196e-27
-2.68211e-27
-2.68226e-27
-2.68241e-27
-2.68257e-27
-2.68272e-27
-2.68289e-27
-2.68305e-27
-2.68321e-27
-2.68338e-27
-2.68355e-27
-2.68372e-27
-2.68389e-27
-2.68407e-27
-2.68424e-27
-2.68442e-27
-2.6846e-27
-2.68477e-27
-2.68496e-27
-2.68514e-27
-2.68532e-27
-2.6855e-27
-2.68569e-27
-2.68587e-27
-2.68605e-27
-2.68624e-27
-2.68642e-27
-2.6866e-27
-2.68678e-27
-2.68696e-27
-2.68713e-27
-2.6873e-27
-2.68747e-27
-2.68764e-27
-2.68779e-27
-2.68794e-27
-2.68808e-27
-2.68817e-27
-2.68813e-27
-2.68773e-27
-2.68616e-27
-2.68092e-27
-2.66408e-27
-2.61072e-27
-2.44259e-27
-1.91456e-27
-2.60294e-28
4.91134e-27
2.10478e-26
7.13065e-26
2.27586e-25
7.128e-25
2.2172e-24
6.87568e-24
2.12843e-23
6.58032e-23
2.03224e-22
6.27042e-22
1.9331e-21
5.955e-21
1.83318e-20
5.63957e-20
1.73391e-19
5.32797e-19
1.63632e-18
5.02296e-18
1.54118e-17
4.72686e-17
1.44925e-16
4.44231e-16
1.36154e-15
4.17347e-15
1.27981e-14
3.92799e-14
1.20741e-13
3.72065e-13
1.15093e-12
3.58091e-12
1.1236e-11
3.56847e-11
1.15244e-10
3.80584e-10
1.29312e-09
4.57022e-09
1.67373e-08
6.36912e-08
2.51819e-07
1.03059e-06
4.34179e-06
1.87172e-05
8.21229e-05
0.000365055
0.00163887
0.00741416
0.0337599
0.154693
0.713881
3.32451
15.6786
79.0608
436.992
2838.31
21930.4
176369
1.60953e+06
1.53464e+07
1.40996e+08
1.05764e+09
4.67809e+09
1.03803e+10
1.33602e+10
1.38652e+10
1.39118e+10
1.37806e+10
1.29654e+10
1.12849e+10
9.24806e+09
7.51015e+09
6.18863e+09
5.17438e+09
4.40283e+09
3.80888e+09
3.34312e+09
2.97049e+09
2.66659e+09
2.41439e+09
2.2019e+09
2.02051e+09
1.86392e+09
1.72743e+09
1.60745e+09
1.50123e+09
1.40657e+09
1.32175e+09
1.24534e+09
1.17622e+09
1.11341e+09
1.05612e+09
1.00369e+09
9.55556e+08
9.11236e+08
8.70324e+08
8.32483e+08
7.97476e+08
7.6587e+08
7.36857e+08
7.09504e+08
6.8376e+08
6.59484e+08
6.36545e+08
6.14846e+08
5.94295e+08
5.74804e+08
5.56301e+08
5.38713e+08
5.21983e+08
5.0605e+08
4.90862e+08
4.76373e+08
4.62538e+08
4.49317e+08
4.36672e+08
4.2457e+08
4.12978e+08
4.01867e+08
3.91211e+08
3.80982e+08
3.71159e+08
3.61719e+08
3.52642e+08
3.43908e+08
3.355e+08
3.27401e+08
3.19595e+08
3.12068e+08
3.04807e+08
2.97797e+08
2.91028e+08
2.84489e+08
2.78167e+08
2.72054e+08
2.66139e+08
2.60414e+08
2.54871e+08
2.49502e+08
2.44298e+08
2.39254e+08
2.34362e+08
2.29616e+08
2.2501e+08
2.20539e+08
2.16197e+08
2.11978e+08
2.07879e+08
2.03894e+08
2.00019e+08
1.96251e+08
1.92584e+08
1.89015e+08
1.85542e+08
1.8216e+08
1.78865e+08
1.75656e+08
1.7253e+08
1.69483e+08
1.66515e+08
1.63626e+08
1.60816e+08
1.58073e+08
1.5538e+08
1.52748e+08
1.50179e+08
1.47671e+08
1.45221e+08
1.42827e+08
1.40489e+08
1.38203e+08
1.3597e+08
1.33786e+08
1.3165e+08
1.29561e+08
1.27518e+08
1.2552e+08
1.23564e+08
1.2165e+08
1.19776e+08
1.17942e+08
1.16145e+08
1.14386e+08
1.12663e+08
1.10976e+08
1.09322e+08
1.07701e+08
1.06113e+08
1.04556e+08
1.03029e+08
1.01533e+08
1.00065e+08
9.86251e+07
9.72128e+07
9.58272e+07
9.44676e+07
9.31334e+07
9.18239e+07
9.05381e+07
8.92761e+07
8.8037e+07
8.682e+07
8.56249e+07
8.44509e+07
8.32976e+07
8.21645e+07
8.10511e+07
7.99569e+07
7.88816e+07
7.78246e+07
7.67855e+07
7.57639e+07
7.47594e+07
7.37716e+07
7.28e+07
7.18451e+07
7.09054e+07
6.99809e+07
6.90715e+07
6.81767e+07
6.72962e+07
6.64298e+07
6.55772e+07
6.4738e+07
6.39119e+07
6.30988e+07
6.22983e+07
6.15103e+07
6.07343e+07
5.99702e+07
5.92179e+07
5.84769e+07
5.77473e+07
5.70277e+07
5.632e+07
5.56226e+07
5.49355e+07
5.42585e+07
5.35915e+07
5.29342e+07
5.22864e+07
5.16481e+07
5.10191e+07
5.03986e+07
4.97875e+07
4.9185e+07
4.85911e+07
4.80056e+07
4.74282e+07
4.6859e+07
4.62977e+07
4.57443e+07
4.51984e+07
4.46602e+07
4.41293e+07
4.36057e+07
4.30893e+07
4.25798e+07
4.20773e+07
4.15816e+07
4.10926e+07
4.06102e+07
4.01342e+07
3.96645e+07
3.92012e+07
3.8744e+07
3.82928e+07
3.78477e+07
3.74084e+07
3.69749e+07
3.65471e+07
3.61249e+07
3.57082e+07
3.5297e+07
3.48913e+07
3.44908e+07
3.40952e+07
3.37049e+07
3.33194e+07
3.29384e+07
3.25614e+07
3.21878e+07
3.18176e+07
3.14522e+07
3.11031e+07
3.08349e+07
)
;

boundaryField
{
    boundary
    {
        type            empty;
    }
    inlet
    {
        type            calculated;
        value           uniform 0;
    }
    outlet
    {
        type            calculated;
        value           uniform 0;
    }
}


// ************************************************************************* //
