/*--------------------------------*- C++ -*----------------------------------*\
  =========                 |
  \\      /  F ield         | OpenFOAM: The Open Source CFD Toolbox
   \\    /   O peration     | Website:  https://openfoam.org
    \\  /    A nd           | Version:  7
     \\/     M anipulation  |
\*---------------------------------------------------------------------------*/
FoamFile
{
    version     2.0;
    format      ascii;
    class       volScalarField;
    location    "0.00096";
    object      T;
}
// * * * * * * * * * * * * * * * * * * * * * * * * * * * * * * * * * * * * * //

dimensions      [0 0 0 1 0 0 0];

internalField   nonuniform List<scalar> 
500
(
300
300
300
300.001
300.002
300.003
300.004
300.005
300.005
300.006
300.006
300.007
300.007
300.007
300.006
300.006
300.005
300.003
300.002
300
299.997
299.995
299.992
299.989
299.986
299.983
299.98
299.977
299.975
299.973
299.972
299.971
299.971
299.971
299.972
299.974
299.977
299.981
299.985
299.991
299.997
300.005
300.014
300.024
300.035
300.048
300.063
300.079
300.097
300.117
300.139
300.163
300.189
300.218
300.248
300.281
300.316
300.353
300.392
300.433
300.476
300.521
300.566
300.613
300.661
300.709
300.757
300.805
300.853
300.901
300.947
300.992
301.036
301.078
301.118
301.156
301.192
301.226
301.258
301.287
301.314
301.339
301.362
301.382
301.4
301.417
301.431
301.444
301.456
301.466
301.474
301.482
301.488
301.494
301.498
301.502
301.505
301.508
301.511
301.512
301.514
301.515
301.516
301.517
301.518
301.518
301.519
301.519
301.519
301.52
301.52
301.52
301.52
301.52
301.52
301.52
301.52
301.521
301.521
301.521
301.521
301.521
301.521
301.521
301.521
301.521
301.521
301.521
301.521
301.521
301.521
301.521
301.521
301.521
301.521
301.522
301.522
301.522
301.522
301.522
301.522
301.522
301.523
301.523
301.523
301.523
301.523
301.523
301.523
301.524
301.524
301.524
301.524
301.524
301.524
301.524
301.524
301.524
301.525
301.525
301.525
301.525
301.525
301.525
301.525
301.526
301.526
301.526
301.526
301.526
301.526
301.527
301.527
301.527
301.527
301.527
301.528
301.528
301.528
301.528
301.528
301.529
301.529
301.529
301.529
301.53
301.53
301.53
301.53
301.53
301.531
301.531
301.531
301.531
301.532
301.532
301.532
301.532
301.533
301.533
301.533
301.533
301.533
301.534
301.534
301.534
301.534
301.534
301.534
301.535
301.535
301.535
301.535
301.535
301.535
301.535
301.535
301.535
301.535
301.535
301.535
301.535
301.535
301.535
301.535
301.535
301.534
301.534
301.534
301.534
301.534
301.533
301.533
301.533
301.532
301.532
301.531
301.531
301.53
301.53
301.529
301.528
301.528
301.527
301.526
301.525
301.524
301.523
301.522
301.521
301.52
301.519
301.518
301.517
301.515
301.514
301.513
301.511
301.51
301.508
301.507
301.505
301.503
301.502
301.501
301.501
301.504
301.516
301.554
301.666
301.987
302.903
305.517
312.933
333.361
383.866
482.479
623.468
778.658
929.537
1071.26
1200.03
1309.23
1402.59
1481.49
1544.15
1593.92
1636.12
1672.4
1704.07
1732.09
1757.16
1779.8
1800.4
1819.26
1836.64
1852.73
1867.68
1881.62
1894.68
1906.95
1918.5
1929.4
1939.71
1949.49
1958.78
1967.62
1976.05
1984.09
1991.77
1999.12
2006.14
2012.67
2018.83
2024.81
2030.59
2036.18
2041.61
2046.88
2051.99
2056.95
2061.78
2066.47
2071.04
2075.48
2079.81
2084.03
2088.15
2092.16
2096.08
2099.9
2103.63
2107.28
2110.85
2114.34
2117.75
2121.09
2124.36
2127.56
2130.69
2133.76
2136.77
2139.73
2142.62
2145.46
2148.24
2150.98
2153.66
2156.3
2158.88
2161.42
2163.92
2166.38
2168.79
2171.16
2173.49
2175.79
2178.04
2180.26
2182.45
2184.6
2186.71
2188.8
2190.85
2192.87
2194.86
2196.82
2198.76
2200.66
2202.54
2204.39
2206.21
2208
2209.77
2211.51
2213.22
2214.91
2216.59
2218.25
2219.89
2221.5
2223.1
2224.67
2226.23
2227.76
2229.28
2230.78
2232.26
2233.72
2235.17
2236.59
2238.01
2239.4
2240.78
2242.14
2243.49
2244.82
2246.14
2247.44
2248.73
2250.01
2251.27
2252.52
2253.75
2254.97
2256.18
2257.37
2258.55
2259.72
2260.88
2262.03
2263.16
2264.28
2265.39
2266.49
2267.58
2268.65
2269.72
2270.77
2271.81
2272.85
2273.87
2274.88
2275.88
2276.87
2277.85
2278.83
2279.79
2280.74
2281.68
2282.62
2283.55
2284.46
2285.37
2286.27
2287.16
2288.04
2288.92
2289.78
2290.64
2291.49
2292.34
2293.17
2294
2294.82
2295.64
2296.44
2297.24
2298.04
2298.82
2299.6
2300.37
2301.14
2301.9
2302.66
2303.4
2304.14
2304.88
2305.61
2306.33
2307.05
2307.76
2308.47
2309.17
2309.86
2310.55
2311.24
2311.92
2312.59
2313.26
2313.92
2314.58
2315.23
2315.88
2316.53
2317.16
2317.8
2318.43
2319.05
2319.67
2320.29
2320.9
2321.51
2322.11
2322.71
2323.3
2323.89
2324.48
2325.06
2325.64
2326.21
2326.78
2327.35
2327.91
2328.46
2329.01
2329.54
2330.03
2330.46
2330.75
)
;

boundaryField
{
    boundary
    {
        type            empty;
    }
    inlet
    {
        type            fixedValue;
        value           uniform 300;
    }
    outlet
    {
        type            zeroGradient;
    }
}


// ************************************************************************* //
