/*--------------------------------*- C++ -*----------------------------------*\
  =========                 |
  \\      /  F ield         | OpenFOAM: The Open Source CFD Toolbox
   \\    /   O peration     | Website:  https://openfoam.org
    \\  /    A nd           | Version:  7
     \\/     M anipulation  |
\*---------------------------------------------------------------------------*/
FoamFile
{
    version     2.0;
    format      ascii;
    class       volScalarField;
    location    "0.0006";
    object      H;
}
// * * * * * * * * * * * * * * * * * * * * * * * * * * * * * * * * * * * * * //

dimensions      [0 0 0 0 0 0 0];

internalField   nonuniform List<scalar> 
124
(
0.000339484
0.00033618
0.000332934
0.000329743
0.000326606
0.000323522
0.000320489
0.000317507
0.000314574
0.000311688
0.00030885
0.000306058
0.00030331
0.000300607
0.000297946
0.000295327
0.000292749
0.000290212
0.000287713
0.000285254
0.000282832
0.000280447
0.000278098
0.000275785
0.000273508
0.000271264
0.000269054
0.000266877
0.000264733
0.000262621
0.00026054
0.00025849
0.000256471
0.000254481
0.000252521
0.00025059
0.000248687
0.000246813
0.000244966
0.000243147
0.000241355
0.000239589
0.00023785
0.000236136
0.000234448
0.000232786
0.000231148
0.000229535
0.000227947
0.000226383
0.000224843
0.000223326
0.000221833
0.000220363
0.000218916
0.000217491
0.00021609
0.00021471
0.000213352
0.000212016
0.000210701
0.000209405
0.000208127
0.000206856
0.000205572
0.000204229
0.000203019
0.00020183
0.000200662
0.000199513
0.000198382
0.000197269
0.000196172
0.000195091
0.000194026
0.000192975
0.000191938
0.000190915
0.000189905
0.000188907
0.000187921
0.000186946
0.000185981
0.000185026
0.000184079
0.000183141
0.000182211
0.000181287
0.000180369
0.000179456
0.000178547
0.000177641
0.000176739
0.000175838
0.000174938
0.000174038
0.000173138
0.000172236
0.000171332
0.000170425
0.000169515
0.000168601
0.000167682
0.000166758
0.000165829
0.000164893
0.000163952
0.000163005
0.000162051
0.000161093
0.000160129
0.000159162
0.000158193
0.000157223
0.000156256
0.000155295
0.000154346
0.000153415
0.000152514
0.000151657
0.000150866
0.000150174
0.000149631
0.000149311
)
;

boundaryField
{
    boundary
    {
        type            empty;
    }
    inlet
    {
        type            fixedValue;
        value           nonuniform 0();
    }
    outlet
    {
        type            zeroGradient;
    }
    procBoundary0to1
    {
        type            processor;
        value           uniform 0.000342842;
    }
}


// ************************************************************************* //
