/*--------------------------------*- C++ -*----------------------------------*\
  =========                 |
  \\      /  F ield         | OpenFOAM: The Open Source CFD Toolbox
   \\    /   O peration     | Website:  https://openfoam.org
    \\  /    A nd           | Version:  7
     \\/     M anipulation  |
\*---------------------------------------------------------------------------*/
FoamFile
{
    version     2.0;
    format      ascii;
    class       volScalarField;
    location    "0.0006";
    object      H2O2;
}
// * * * * * * * * * * * * * * * * * * * * * * * * * * * * * * * * * * * * * //

dimensions      [0 0 0 0 0 0 0];

internalField   nonuniform List<scalar> 
124
(
1.13088e-06
1.11688e-06
1.10317e-06
1.08973e-06
1.07657e-06
1.06367e-06
1.05103e-06
1.03864e-06
1.0265e-06
1.01459e-06
1.00291e-06
9.91447e-07
9.80205e-07
9.69174e-07
9.58349e-07
9.47723e-07
9.37292e-07
9.27051e-07
9.16994e-07
9.07118e-07
8.97417e-07
8.87887e-07
8.78525e-07
8.69325e-07
8.60284e-07
8.51398e-07
8.42664e-07
8.34078e-07
8.25635e-07
8.17334e-07
8.09171e-07
8.01142e-07
7.93245e-07
7.85475e-07
7.77831e-07
7.70309e-07
7.62907e-07
7.55622e-07
7.48451e-07
7.4139e-07
7.34439e-07
7.27594e-07
7.20853e-07
7.14212e-07
7.07671e-07
7.01226e-07
6.94875e-07
6.88617e-07
6.82447e-07
6.76366e-07
6.70369e-07
6.64456e-07
6.58624e-07
6.52871e-07
6.47194e-07
6.41593e-07
6.36065e-07
6.30608e-07
6.25219e-07
6.19896e-07
6.14638e-07
6.09444e-07
6.04325e-07
5.99204e-07
5.93908e-07
5.87595e-07
5.82713e-07
5.77783e-07
5.7287e-07
5.67987e-07
5.63136e-07
5.58313e-07
5.53516e-07
5.48741e-07
5.43984e-07
5.39242e-07
5.34511e-07
5.29789e-07
5.25071e-07
5.20355e-07
5.15637e-07
5.10914e-07
5.06182e-07
5.01438e-07
4.9668e-07
4.91904e-07
4.87107e-07
4.82288e-07
4.77443e-07
4.7257e-07
4.67667e-07
4.62733e-07
4.57766e-07
4.52764e-07
4.47728e-07
4.42655e-07
4.37548e-07
4.32406e-07
4.27229e-07
4.22021e-07
4.16781e-07
4.11514e-07
4.06222e-07
4.00909e-07
3.95578e-07
3.90236e-07
3.84887e-07
3.79537e-07
3.74193e-07
3.68862e-07
3.63551e-07
3.5827e-07
3.53028e-07
3.47833e-07
3.42699e-07
3.37636e-07
3.32662e-07
3.27797e-07
3.23069e-07
3.18521e-07
3.14228e-07
3.10316e-07
3.07026e-07
3.04849e-07
)
;

boundaryField
{
    boundary
    {
        type            empty;
    }
    inlet
    {
        type            fixedValue;
        value           nonuniform 0();
    }
    outlet
    {
        type            zeroGradient;
    }
    procBoundary0to1
    {
        type            processor;
        value           uniform 1.14516e-06;
    }
}


// ************************************************************************* //
