/*--------------------------------*- C++ -*----------------------------------*\
  =========                 |
  \\      /  F ield         | OpenFOAM: The Open Source CFD Toolbox
   \\    /   O peration     | Website:  https://openfoam.org
    \\  /    A nd           | Version:  7
     \\/     M anipulation  |
\*---------------------------------------------------------------------------*/
FoamFile
{
    version     2.0;
    format      ascii;
    class       volScalarField;
    location    "0.0006";
    object      p;
}
// * * * * * * * * * * * * * * * * * * * * * * * * * * * * * * * * * * * * * //

dimensions      [1 -1 -2 0 0 0 0];

internalField   nonuniform List<scalar> 
124
(
103140
103140
103140
103140
103140
103140
103140
103140
103140
103140
103140
103140
103140
103140
103140
103140
103140
103140
103140
103140
103140
103140
103140
103140
103140
103140
103140
103139
103139
103139
103139
103139
103139
103139
103139
103139
103139
103139
103139
103139
103139
103139
103139
103139
103139
103139
103139
103139
103139
103139
103139
103139
103139
103139
103139
103139
103139
103139
103139
103139
103139
103139
103139
103139
103139
103139
103139
103139
103139
103139
103139
103139
103139
103139
103139
103139
103139
103139
103139
103139
103139
103139
103139
103139
103139
103139
103139
103139
103139
103139
103139
103139
103139
103139
103139
103139
103139
103139
103139
103139
103139
103139
103139
103139
103139
103139
103139
103139
103139
103139
103139
103139
103139
103139
103139
103139
103139
103139
103139
103139
103139
103139
103139
103139
)
;

boundaryField
{
    boundary
    {
        type            empty;
    }
    inlet
    {
        type            zeroGradient;
    }
    outlet
    {
        type            waveTransmissive;
        gamma           1.4;
        value           uniform 103139;
    }
    procBoundary0to1
    {
        type            processor;
        value           uniform 103140;
    }
}


// ************************************************************************* //
