/*--------------------------------*- C++ -*----------------------------------*\
  =========                 |
  \\      /  F ield         | OpenFOAM: The Open Source CFD Toolbox
   \\    /   O peration     | Website:  https://openfoam.org
    \\  /    A nd           | Version:  7
     \\/     M anipulation  |
\*---------------------------------------------------------------------------*/
FoamFile
{
    version     2.0;
    format      ascii;
    class       volScalarField;
    location    "0.00075";
    object      H;
}
// * * * * * * * * * * * * * * * * * * * * * * * * * * * * * * * * * * * * * //

dimensions      [0 0 0 0 0 0 0];

internalField   nonuniform List<scalar> 
500
(
1.48594e-41
2.01256e-41
2.12541e-41
2.14862e-41
2.15212e-41
2.15098e-41
2.14852e-41
2.14549e-41
2.14215e-41
2.13865e-41
2.13514e-41
2.13176e-41
2.12865e-41
2.12591e-41
2.12365e-41
2.12193e-41
2.12079e-41
2.12024e-41
2.1203e-41
2.12094e-41
2.12214e-41
2.12389e-41
2.12616e-41
2.12895e-41
2.13225e-41
2.13609e-41
2.1405e-41
2.14553e-41
2.15126e-41
2.15777e-41
2.16516e-41
2.17357e-41
2.18312e-41
2.19395e-41
2.20621e-41
2.22007e-41
2.23566e-41
2.25314e-41
2.27265e-41
2.29431e-41
2.31823e-41
2.34448e-41
2.37311e-41
2.40414e-41
2.43756e-41
2.47328e-41
2.51122e-41
2.55121e-41
2.59306e-41
2.63653e-41
2.68133e-41
2.72714e-41
2.77362e-41
2.82039e-41
2.86708e-41
2.91329e-41
2.95865e-41
3.00279e-41
3.04539e-41
3.08614e-41
3.12478e-41
3.16111e-41
3.19498e-41
3.22628e-41
3.25495e-41
3.281e-41
3.30446e-41
3.32541e-41
3.34397e-41
3.36027e-41
3.37448e-41
3.38676e-41
3.3973e-41
3.40626e-41
3.41383e-41
3.42017e-41
3.42545e-41
3.4298e-41
3.43337e-41
3.43628e-41
3.43863e-41
3.44051e-41
3.44202e-41
3.44321e-41
3.44415e-41
3.44488e-41
3.44546e-41
3.44591e-41
3.44625e-41
3.44652e-41
3.44673e-41
3.44689e-41
3.44702e-41
3.44712e-41
3.4472e-41
3.44727e-41
3.44733e-41
3.44738e-41
3.44743e-41
3.44748e-41
3.44752e-41
3.44756e-41
3.44761e-41
3.44765e-41
3.4477e-41
3.44774e-41
3.44779e-41
3.44784e-41
3.44789e-41
3.44795e-41
3.448e-41
3.44806e-41
3.44812e-41
3.44819e-41
3.44825e-41
3.44832e-41
3.44839e-41
3.44847e-41
3.44855e-41
3.44863e-41
3.44872e-41
3.44881e-41
3.44892e-41
3.44903e-41
3.44914e-41
3.44928e-41
3.4495e-41
3.44973e-41
3.44996e-41
3.45018e-41
3.45039e-41
3.45059e-41
3.45078e-41
3.45094e-41
3.45108e-41
3.45119e-41
3.45129e-41
3.45137e-41
3.45144e-41
3.4515e-41
3.45156e-41
3.45162e-41
3.4517e-41
3.45178e-41
3.45188e-41
3.452e-41
3.45213e-41
3.45228e-41
3.45244e-41
3.45262e-41
3.4528e-41
3.453e-41
3.4532e-41
3.4534e-41
3.45361e-41
3.45382e-41
3.45404e-41
3.45425e-41
3.45447e-41
3.45469e-41
3.45491e-41
3.45513e-41
3.45535e-41
3.45558e-41
3.4558e-41
3.45603e-41
3.45626e-41
3.45649e-41
3.45673e-41
3.45697e-41
3.45721e-41
3.45745e-41
3.45769e-41
3.45794e-41
3.45819e-41
3.45844e-41
3.45869e-41
3.45894e-41
3.4592e-41
3.45945e-41
3.4597e-41
3.45995e-41
3.4602e-41
3.46044e-41
3.46068e-41
3.46092e-41
3.46115e-41
3.46137e-41
3.46159e-41
3.4618e-41
3.462e-41
3.46219e-41
3.46238e-41
3.46255e-41
3.46271e-41
3.46285e-41
3.46299e-41
3.46311e-41
3.46321e-41
3.4633e-41
3.46338e-41
3.46344e-41
3.46348e-41
3.4635e-41
3.4635e-41
3.46348e-41
3.46344e-41
3.46339e-41
3.46333e-41
3.46333e-41
3.46357e-41
3.46467e-41
3.46875e-41
3.48289e-41
3.53067e-41
3.69011e-41
4.21829e-41
5.95791e-41
1.16581e-40
3.02456e-40
9.05792e-40
2.85554e-39
9.1298e-39
2.9239e-38
9.34424e-38
2.97683e-37
9.45175e-37
2.99128e-36
9.4376e-36
2.96902e-35
9.31542e-35
2.91555e-34
9.10455e-34
2.83734e-33
8.82616e-33
2.74118e-32
8.50176e-32
2.63388e-31
8.15308e-31
2.5225e-30
7.8037e-30
2.41523e-29
7.48355e-29
2.32357e-28
7.23878e-28
2.26679e-27
7.15242e-27
2.28141e-26
7.38715e-26
2.44046e-25
8.27203e-25
2.90687e-24
1.05508e-23
3.97202e-23
1.55219e-22
6.27961e-22
2.61795e-21
1.11869e-20
4.87497e-20
2.15745e-19
9.66807e-19
4.38001e-18
2.00576e-17
9.29727e-17
4.37591e-16
2.10186e-15
1.03741e-14
5.30433e-14
2.83187e-13
1.67934e-12
1.2109e-11
1.11465e-10
1.0613e-09
9.91543e-09
9.22214e-08
8.14615e-07
6.28573e-06
3.69359e-05
0.000140494
0.000342487
0.000630283
0.000978963
0.00133656
0.00163221
0.00182284
0.00191351
0.00192366
0.00188688
0.001825
0.00175203
0.00167617
0.00160186
0.0015313
0.00146539
0.00140435
0.00134803
0.0012961
0.00124818
0.0012039
0.00116288
0.00112479
0.00108933
0.00105624
0.00102528
0.000996245
0.000968959
0.000943262
0.000919016
0.000896096
0.000874395
0.000853814
0.000834267
0.000816222
0.000799405
0.000783259
0.000767745
0.000752825
0.000738465
0.000724633
0.000711299
0.000698435
0.000686017
0.00067402
0.000662423
0.000651206
0.000640348
0.000629833
0.000619644
0.000609766
0.000600184
0.000590884
0.000581854
0.000573082
0.000564556
0.000556266
0.000548202
0.000540355
0.000532715
0.000525275
0.000518027
0.000510962
0.000504074
0.000497356
0.000490802
0.000484406
0.000478162
0.000472064
0.000466108
0.000460288
0.0004546
0.000449039
0.000443601
0.000438282
0.000433078
0.000427985
0.000423
0.000418119
0.000413339
0.000408657
0.00040407
0.000399575
0.000395169
0.00039085
0.000386615
0.000382462
0.000378389
0.000374392
0.000370472
0.000366624
0.000362848
0.000359142
0.000355504
0.000351933
0.000348427
0.000344985
0.000341607
0.00033828
0.000335
0.000331775
0.000328605
0.000325488
0.000322422
0.000319406
0.00031644
0.000313522
0.00031065
0.000307824
0.000305043
0.000302306
0.000299611
0.000296958
0.000294345
0.000291773
0.000289239
0.000286744
0.000284286
0.000281865
0.000279479
0.000277129
0.000274813
0.00027253
0.00027028
0.000268063
0.000265877
0.000263722
0.000261598
0.000259503
0.000257438
0.000255401
0.000253392
0.000251411
0.000249457
0.00024753
0.000245628
0.000243752
0.000241902
0.000240076
0.000238274
0.000236496
0.000234742
0.00023301
0.000231302
0.000229615
0.00022795
0.000226307
0.000224686
0.000223085
0.000221504
0.000219944
0.000218403
0.000216883
0.000215381
0.000213899
0.000212435
0.00021099
0.000209563
0.000208154
0.000206762
0.000205389
0.000204032
0.000202693
0.00020137
0.000200064
0.000198775
0.000197502
0.000196245
0.000195004
0.000193779
0.00019257
0.000191376
0.000190197
0.000189034
0.000187886
0.000186753
0.000185635
0.000184532
0.000183443
0.000182369
0.000181309
0.000180264
0.000179233
0.000178217
0.000177215
0.000176227
0.000175253
0.000174293
0.000173347
0.000172415
0.000171496
0.000170591
0.0001697
0.000168823
0.000167959
0.000167109
0.000166272
0.000165448
0.000164637
0.000163839
0.000163054
0.00016228
0.000161517
0.000160758
0.000159998
0.000159162
0.000158433
0.000157722
0.000157026
0.000156341
0.000155668
0.000155007
0.000154358
0.000153722
0.000153099
0.000152493
0.000151909
0.000151352
0.000150837
0.000150383
0.000150024
0.000149811
)
;

boundaryField
{
    boundary
    {
        type            empty;
    }
    inlet
    {
        type            fixedValue;
        value           uniform 0;
    }
    outlet
    {
        type            zeroGradient;
    }
}


// ************************************************************************* //
