/*--------------------------------*- C++ -*----------------------------------*\
  =========                 |
  \\      /  F ield         | OpenFOAM: The Open Source CFD Toolbox
   \\    /   O peration     | Website:  https://openfoam.org
    \\  /    A nd           | Version:  7
     \\/     M anipulation  |
\*---------------------------------------------------------------------------*/
FoamFile
{
    version     2.0;
    format      ascii;
    class       volScalarField;
    location    "0.00075";
    object      H2;
}
// * * * * * * * * * * * * * * * * * * * * * * * * * * * * * * * * * * * * * //

dimensions      [0 0 0 0 0 0 0];

internalField   nonuniform List<scalar> 
500
(
0.0285116
0.0285116
0.0285116
0.0285116
0.0285116
0.0285116
0.0285116
0.0285116
0.0285116
0.0285116
0.0285116
0.0285116
0.0285116
0.0285116
0.0285116
0.0285116
0.0285116
0.0285116
0.0285116
0.0285116
0.0285116
0.0285116
0.0285116
0.0285116
0.0285116
0.0285116
0.0285116
0.0285116
0.0285116
0.0285116
0.0285116
0.0285116
0.0285116
0.0285116
0.0285116
0.0285116
0.0285116
0.0285116
0.0285116
0.0285116
0.0285116
0.0285116
0.0285116
0.0285116
0.0285116
0.0285116
0.0285116
0.0285116
0.0285116
0.0285116
0.0285116
0.0285116
0.0285116
0.0285116
0.0285116
0.0285116
0.0285116
0.0285116
0.0285116
0.0285116
0.0285116
0.0285116
0.0285116
0.0285116
0.0285116
0.0285116
0.0285116
0.0285116
0.0285116
0.0285116
0.0285116
0.0285116
0.0285116
0.0285116
0.0285116
0.0285116
0.0285116
0.0285116
0.0285116
0.0285116
0.0285116
0.0285116
0.0285116
0.0285116
0.0285116
0.0285116
0.0285116
0.0285116
0.0285116
0.0285116
0.0285116
0.0285116
0.0285116
0.0285116
0.0285116
0.0285116
0.0285116
0.0285116
0.0285116
0.0285116
0.0285116
0.0285116
0.0285116
0.0285116
0.0285116
0.0285116
0.0285116
0.0285116
0.0285116
0.0285116
0.0285116
0.0285116
0.0285116
0.0285116
0.0285116
0.0285116
0.0285116
0.0285116
0.0285116
0.0285116
0.0285116
0.0285116
0.0285116
0.0285116
0.0285116
0.0285116
0.0285116
0.0285116
0.0285116
0.0285116
0.0285116
0.0285116
0.0285116
0.0285116
0.0285116
0.0285116
0.0285116
0.0285116
0.0285116
0.0285116
0.0285116
0.0285116
0.0285116
0.0285116
0.0285116
0.0285116
0.0285116
0.0285116
0.0285116
0.0285116
0.0285116
0.0285116
0.0285116
0.0285116
0.0285116
0.0285116
0.0285116
0.0285116
0.0285116
0.0285116
0.0285116
0.0285116
0.0285116
0.0285116
0.0285116
0.0285116
0.0285116
0.0285116
0.0285116
0.0285116
0.0285116
0.0285116
0.0285116
0.0285116
0.0285116
0.0285116
0.0285116
0.0285116
0.0285116
0.0285116
0.0285116
0.0285116
0.0285116
0.0285116
0.0285116
0.0285116
0.0285116
0.0285116
0.0285116
0.0285116
0.0285116
0.0285116
0.0285116
0.0285116
0.0285116
0.0285116
0.0285116
0.0285116
0.0285116
0.0285116
0.0285116
0.0285116
0.0285116
0.0285116
0.0285116
0.0285116
0.0285116
0.0285116
0.0285116
0.0285116
0.0285116
0.0285116
0.0285116
0.0285116
0.0285116
0.0285116
0.0285116
0.0285116
0.0285116
0.0285116
0.0285116
0.0285116
0.0285116
0.0285116
0.0285116
0.0285116
0.0285116
0.0285116
0.0285116
0.0285116
0.0285116
0.0285116
0.0285116
0.0285116
0.0285116
0.0285116
0.0285116
0.0285116
0.0285116
0.0285116
0.0285116
0.0285116
0.0285116
0.0285116
0.0285116
0.0285116
0.0285116
0.0285116
0.0285116
0.0285116
0.0285116
0.0285116
0.0285116
0.0285116
0.0285116
0.0285116
0.0285116
0.0285116
0.0285116
0.0285116
0.0285116
0.0285115
0.0285115
0.0285114
0.0285113
0.0285109
0.0285102
0.0285088
0.0285057
0.0284993
0.028486
0.0284584
0.0284009
0.0282822
0.0280398
0.027561
0.0266798
0.0252328
0.023183
0.0206891
0.0178726
0.0148329
0.0118342
0.00924909
0.00730376
0.00587571
0.00502347
0.00449304
0.00416655
0.00396456
0.00383686
0.00375283
0.00369423
0.00365028
0.00361473
0.00358395
0.00355589
0.00352939
0.00350379
0.00347878
0.00345416
0.00342987
0.00340587
0.00338216
0.00335875
0.00333564
0.00331286
0.00329041
0.0032683
0.00324653
0.00322512
0.00320406
0.00318398
0.0031647
0.00314567
0.0031269
0.00310839
0.00309012
0.0030721
0.00305432
0.00303679
0.0030195
0.00300245
0.00298563
0.00296905
0.0029527
0.00293657
0.00292067
0.00290498
0.00288952
0.00287426
0.00285922
0.00284438
0.00282974
0.00281531
0.00280106
0.00278701
0.00277315
0.00275946
0.00274596
0.00273263
0.00271947
0.00270647
0.00269364
0.00268097
0.00266845
0.00265609
0.00264387
0.0026318
0.00261986
0.00260807
0.00259641
0.00258488
0.00257348
0.0025622
0.00255105
0.00254002
0.00252911
0.00251831
0.00250763
0.00249705
0.00248659
0.00247624
0.00246599
0.00245584
0.0024458
0.00243587
0.00242603
0.00241629
0.00240666
0.00239712
0.00238767
0.00237833
0.00236908
0.00235993
0.00235089
0.0023419
0.00233295
0.00232409
0.00231531
0.00230662
0.00229801
0.00228947
0.00228101
0.00227263
0.00226433
0.0022561
0.00224794
0.00223986
0.00223184
0.0022239
0.00221603
0.00220822
0.00220048
0.00219281
0.0021852
0.00217766
0.00217018
0.00216277
0.00215541
0.00214812
0.00214089
0.00213371
0.0021266
0.00211954
0.00211254
0.00210559
0.0020987
0.00209187
0.00208508
0.00207836
0.00207168
0.00206506
0.00205849
0.00205197
0.0020455
0.00203908
0.00203272
0.0020264
0.00202013
0.00201391
0.00200774
0.00200162
0.00199555
0.00198953
0.00198355
0.00197762
0.00197174
0.00196591
0.00196013
0.0019544
0.00194872
0.00194308
0.00193749
0.00193196
0.00192647
0.00192103
0.00191564
0.0019103
0.00190502
0.00189978
0.00189459
0.00188946
0.00188438
0.00187936
0.00187439
0.00186947
0.00186461
0.0018598
0.00185505
0.00185036
0.00184573
0.00184115
0.00183664
0.00183219
0.00182781
0.00182349
0.00181923
0.00181504
0.00181092
0.00180688
0.0018029
0.001799
0.00179518
0.00179143
0.00178777
0.00178419
0.00178069
0.00177728
0.00177397
0.00177074
0.00176762
0.00176459
0.00176167
0.00175885
0.00175614
0.00175355
0.00175107
0.00174872
0.00174649
0.0017444
0.00174247
0.00174074
0.00173891
0.00173742
0.00173606
0.00173484
0.00173377
0.00173286
0.00173211
0.00173154
0.00173114
0.00173092
0.00173089
0.00173105
0.00173138
0.00173187
0.00173247
0.00173306
0.00173348
)
;

boundaryField
{
    boundary
    {
        type            empty;
    }
    inlet
    {
        type            fixedValue;
        value           uniform 0.0285116;
    }
    outlet
    {
        type            zeroGradient;
    }
}


// ************************************************************************* //
