/*--------------------------------*- C++ -*----------------------------------*\
  =========                 |
  \\      /  F ield         | OpenFOAM: The Open Source CFD Toolbox
   \\    /   O peration     | Website:  https://openfoam.org
    \\  /    A nd           | Version:  7
     \\/     M anipulation  |
\*---------------------------------------------------------------------------*/
FoamFile
{
    version     2.0;
    format      ascii;
    class       volScalarField;
    location    "0.00075";
    object      H2O2;
}
// * * * * * * * * * * * * * * * * * * * * * * * * * * * * * * * * * * * * * //

dimensions      [0 0 0 0 0 0 0];

internalField   nonuniform List<scalar> 
500
(
1.98845e-52
6.38387e-52
1.26802e-51
2.08706e-51
3.09472e-51
4.29024e-51
5.67305e-51
7.24292e-51
9.00007e-51
1.09453e-50
1.30798e-50
1.54053e-50
1.7924e-50
2.06383e-50
2.35505e-50
2.66633e-50
2.9979e-50
3.35001e-50
3.7229e-50
4.11683e-50
4.53207e-50
4.96894e-50
5.42785e-50
5.90929e-50
6.41387e-50
6.94235e-50
7.4957e-50
8.07506e-50
8.68179e-50
9.31749e-50
9.984e-50
1.06834e-49
1.14179e-49
1.21899e-49
1.3002e-49
1.38568e-49
1.47566e-49
1.57039e-49
1.67006e-49
1.77482e-49
1.88477e-49
1.99992e-49
2.12021e-49
2.24545e-49
2.37537e-49
2.50955e-49
2.64746e-49
2.78846e-49
2.9318e-49
3.07661e-49
3.22195e-49
3.36684e-49
3.51023e-49
3.65109e-49
3.78841e-49
3.92123e-49
4.04866e-49
4.16992e-49
4.28436e-49
4.39144e-49
4.4908e-49
4.58221e-49
4.66558e-49
4.74096e-49
4.80854e-49
4.86859e-49
4.92151e-49
4.96773e-49
5.00777e-49
5.04215e-49
5.07143e-49
5.09616e-49
5.11687e-49
5.13407e-49
5.14824e-49
5.15983e-49
5.16922e-49
5.17677e-49
5.18281e-49
5.18758e-49
5.19134e-49
5.19428e-49
5.19655e-49
5.19831e-49
5.19965e-49
5.20067e-49
5.20145e-49
5.20203e-49
5.20247e-49
5.20281e-49
5.20306e-49
5.20325e-49
5.20341e-49
5.20353e-49
5.20363e-49
5.20371e-49
5.20378e-49
5.20385e-49
5.20392e-49
5.20398e-49
5.20405e-49
5.20411e-49
5.20418e-49
5.20425e-49
5.20432e-49
5.2044e-49
5.20448e-49
5.20457e-49
5.20465e-49
5.20475e-49
5.20485e-49
5.20495e-49
5.20506e-49
5.20517e-49
5.20529e-49
5.20541e-49
5.20554e-49
5.20568e-49
5.20582e-49
5.20596e-49
5.20608e-49
5.20612e-49
5.20582e-49
5.20417e-49
5.19716e-49
5.18323e-49
5.18344e-49
5.18366e-49
5.18389e-49
5.18413e-49
5.18437e-49
5.18462e-49
5.18487e-49
5.18512e-49
5.18538e-49
5.18564e-49
5.18591e-49
5.18621e-49
5.18653e-49
5.1869e-49
5.18732e-49
5.18781e-49
5.18838e-49
5.18904e-49
5.18981e-49
5.19068e-49
5.19167e-49
5.19277e-49
5.19397e-49
5.19526e-49
5.19663e-49
5.19804e-49
5.19948e-49
5.2009e-49
5.20228e-49
5.20359e-49
5.2048e-49
5.2059e-49
5.20686e-49
5.20768e-49
5.20837e-49
5.20892e-49
5.20935e-49
5.20969e-49
5.20996e-49
5.21018e-49
5.21039e-49
5.21062e-49
5.21088e-49
5.2112e-49
5.21161e-49
5.2121e-49
5.21269e-49
5.21338e-49
5.21416e-49
5.21504e-49
5.216e-49
5.21702e-49
5.2181e-49
5.21922e-49
5.22036e-49
5.2215e-49
5.22264e-49
5.22375e-49
5.22484e-49
5.22588e-49
5.22687e-49
5.2278e-49
5.22868e-49
5.2295e-49
5.23025e-49
5.23094e-49
5.23156e-49
5.23213e-49
5.23264e-49
5.23309e-49
5.23348e-49
5.23383e-49
5.23412e-49
5.23439e-49
5.23471e-49
5.2355e-49
5.23894e-49
5.25632e-49
5.34531e-49
5.79913e-49
8.0971e-49
1.96483e-48
7.72916e-48
3.62881e-47
1.76773e-46
8.62962e-46
4.19119e-45
2.02227e-44
9.69182e-44
4.61371e-43
2.18181e-42
1.02508e-41
4.78551e-41
2.2202e-40
1.02381e-39
4.69334e-39
2.13925e-38
9.69711e-38
4.37237e-37
1.96147e-36
8.75667e-36
3.89131e-35
1.72173e-34
7.58679e-34
3.33039e-33
1.45678e-32
6.35148e-32
2.76094e-31
1.1969e-30
5.17598e-30
2.23343e-29
9.61842e-29
4.13512e-28
1.77509e-27
7.6101e-27
3.25895e-26
1.39429e-25
5.96052e-25
2.54638e-24
1.08721e-23
4.6397e-23
1.97911e-22
8.43845e-22
3.59637e-21
1.53201e-20
6.56453e-20
2.801e-19
1.19176e-18
5.06437e-18
2.14996e-17
9.11801e-17
3.86285e-16
1.63468e-15
6.90985e-15
2.91763e-14
1.23071e-13
5.18687e-13
2.18458e-12
9.19715e-12
3.87155e-11
1.63001e-10
6.86567e-10
2.89369e-09
1.22045e-08
5.1497e-08
2.17162e-07
9.11803e-07
3.76248e-06
1.46065e-05
4.69593e-05
9.69269e-05
0.000124064
0.000105785
5.81364e-05
2.45062e-05
9.99402e-06
5.33954e-06
4.41966e-06
4.73081e-06
5.4406e-06
6.00989e-06
6.41956e-06
6.66124e-06
6.76298e-06
6.76006e-06
6.6837e-06
6.55825e-06
6.40154e-06
6.22618e-06
6.04102e-06
5.85202e-06
5.66327e-06
5.47749e-06
5.29643e-06
5.12123e-06
4.95252e-06
4.79064e-06
4.63571e-06
4.48771e-06
4.34651e-06
4.2119e-06
4.08365e-06
3.96151e-06
3.8452e-06
3.7345e-06
3.62922e-06
3.53217e-06
3.44089e-06
3.35329e-06
3.26918e-06
3.18839e-06
3.11075e-06
3.03611e-06
2.96431e-06
2.89524e-06
2.82874e-06
2.7647e-06
2.703e-06
2.64353e-06
2.58618e-06
2.53084e-06
2.47744e-06
2.42587e-06
2.37605e-06
2.3279e-06
2.28134e-06
2.23631e-06
2.19273e-06
2.15055e-06
2.10969e-06
2.07011e-06
2.03175e-06
1.99456e-06
1.95848e-06
1.92348e-06
1.88951e-06
1.85653e-06
1.82449e-06
1.79337e-06
1.76312e-06
1.73372e-06
1.70513e-06
1.67732e-06
1.65026e-06
1.62393e-06
1.59829e-06
1.57332e-06
1.54901e-06
1.52531e-06
1.50223e-06
1.47972e-06
1.45777e-06
1.43637e-06
1.41549e-06
1.39512e-06
1.37524e-06
1.35583e-06
1.33688e-06
1.31837e-06
1.30029e-06
1.28262e-06
1.26536e-06
1.24848e-06
1.23198e-06
1.21585e-06
1.20007e-06
1.18464e-06
1.16955e-06
1.1548e-06
1.14039e-06
1.12626e-06
1.11237e-06
1.09876e-06
1.08543e-06
1.07236e-06
1.05956e-06
1.04701e-06
1.03471e-06
1.02264e-06
1.01081e-06
9.99212e-07
9.8783e-07
9.76664e-07
9.65708e-07
9.54956e-07
9.44403e-07
9.34045e-07
9.23875e-07
9.13891e-07
9.04086e-07
8.94457e-07
8.84999e-07
8.75708e-07
8.6658e-07
8.57612e-07
8.48799e-07
8.40138e-07
8.31625e-07
8.23257e-07
8.15031e-07
8.06943e-07
7.98991e-07
7.9117e-07
7.83479e-07
7.75914e-07
7.68472e-07
7.61152e-07
7.53949e-07
7.46863e-07
7.39889e-07
7.33026e-07
7.26271e-07
7.19622e-07
7.13076e-07
7.06632e-07
7.00287e-07
6.9404e-07
6.87887e-07
6.81828e-07
6.7586e-07
6.69981e-07
6.64189e-07
6.58483e-07
6.5286e-07
6.4732e-07
6.41859e-07
6.36478e-07
6.31173e-07
6.25943e-07
6.20788e-07
6.15704e-07
6.10692e-07
6.05748e-07
6.00873e-07
5.96064e-07
5.9132e-07
5.8664e-07
5.82023e-07
5.77467e-07
5.72971e-07
5.68534e-07
5.64154e-07
5.59831e-07
5.55563e-07
5.5135e-07
5.47189e-07
5.43081e-07
5.39024e-07
5.35017e-07
5.31058e-07
5.27148e-07
5.23284e-07
5.19466e-07
5.15693e-07
5.11964e-07
5.08277e-07
5.04632e-07
5.01028e-07
4.97464e-07
4.93938e-07
4.90449e-07
4.86997e-07
4.8358e-07
4.80198e-07
4.76848e-07
4.7353e-07
4.70243e-07
4.66986e-07
4.63756e-07
4.60552e-07
4.57374e-07
4.54218e-07
4.51084e-07
4.4797e-07
4.44882e-07
4.41755e-07
4.38704e-07
4.3453e-07
4.31503e-07
4.28446e-07
4.25381e-07
4.22315e-07
4.19249e-07
4.16183e-07
4.13118e-07
4.10054e-07
4.06995e-07
4.03948e-07
4.00928e-07
3.97963e-07
3.95107e-07
3.92458e-07
3.90202e-07
3.88708e-07
)
;

boundaryField
{
    boundary
    {
        type            empty;
    }
    inlet
    {
        type            fixedValue;
        value           uniform 0;
    }
    outlet
    {
        type            zeroGradient;
    }
}


// ************************************************************************* //
