/*--------------------------------*- C++ -*----------------------------------*\
  =========                 |
  \\      /  F ield         | OpenFOAM: The Open Source CFD Toolbox
   \\    /   O peration     | Website:  https://openfoam.org
    \\  /    A nd           | Version:  7
     \\/     M anipulation  |
\*---------------------------------------------------------------------------*/
FoamFile
{
    version     2.0;
    format      ascii;
    class       volScalarField;
    location    "0.00075";
    object      O2;
}
// * * * * * * * * * * * * * * * * * * * * * * * * * * * * * * * * * * * * * //

dimensions      [0 0 0 0 0 0 0];

internalField   nonuniform List<scalar> 
500
(
0.226269
0.226269
0.226269
0.226269
0.226269
0.226269
0.226269
0.226269
0.226269
0.226269
0.226269
0.226269
0.226269
0.226269
0.226269
0.226269
0.226269
0.226269
0.226269
0.226269
0.226269
0.226269
0.226269
0.226269
0.226269
0.226269
0.226269
0.226269
0.226269
0.226269
0.226269
0.226269
0.226269
0.226269
0.226269
0.226269
0.226269
0.226269
0.226269
0.226269
0.226269
0.226269
0.226269
0.226269
0.226269
0.226269
0.226269
0.226269
0.226269
0.226269
0.226269
0.226269
0.226269
0.226269
0.226269
0.226269
0.226269
0.226269
0.226269
0.226269
0.226269
0.226269
0.226269
0.226269
0.226269
0.226269
0.226269
0.226269
0.226269
0.226269
0.226269
0.226269
0.226269
0.226269
0.226269
0.226269
0.226269
0.226269
0.226269
0.226269
0.226269
0.226269
0.226269
0.226269
0.226269
0.226269
0.226269
0.226269
0.226269
0.226269
0.226269
0.226269
0.226269
0.226269
0.226269
0.226269
0.226269
0.226269
0.226269
0.226269
0.226269
0.226269
0.226269
0.226269
0.226269
0.226269
0.226269
0.226269
0.226269
0.226269
0.226269
0.226269
0.226269
0.226269
0.226269
0.226269
0.226269
0.226269
0.226269
0.226269
0.226269
0.226269
0.226269
0.226269
0.226269
0.226269
0.226269
0.226269
0.226269
0.226269
0.226269
0.226269
0.226269
0.226269
0.226269
0.226269
0.226269
0.226269
0.226269
0.226269
0.226269
0.226269
0.226269
0.226269
0.226269
0.226269
0.226269
0.226269
0.226269
0.226269
0.226269
0.226269
0.226269
0.226269
0.226269
0.226269
0.226269
0.226269
0.226269
0.226269
0.226269
0.226269
0.226269
0.226269
0.226269
0.226269
0.226269
0.226269
0.226269
0.226269
0.226269
0.226269
0.226269
0.226269
0.226269
0.226269
0.226269
0.226269
0.226269
0.226269
0.226269
0.226269
0.226269
0.226269
0.226269
0.226269
0.226269
0.226269
0.226269
0.226269
0.226269
0.226269
0.226269
0.226269
0.226269
0.226269
0.226269
0.226269
0.226269
0.226269
0.226269
0.226269
0.226269
0.226269
0.226269
0.226269
0.226269
0.226269
0.226269
0.226269
0.226269
0.226269
0.226269
0.226269
0.226269
0.226269
0.226269
0.226269
0.226269
0.226269
0.226269
0.226269
0.226269
0.226269
0.226269
0.226269
0.226269
0.226269
0.226269
0.226269
0.226269
0.226269
0.226269
0.226269
0.226269
0.226269
0.226269
0.226269
0.226269
0.226269
0.226269
0.226269
0.226269
0.226269
0.226269
0.226269
0.226269
0.226269
0.226269
0.226269
0.226269
0.226269
0.226269
0.226269
0.226269
0.226269
0.226269
0.226269
0.226269
0.226269
0.226269
0.226269
0.226269
0.226269
0.226269
0.226269
0.226269
0.22627
0.22627
0.226272
0.226274
0.226277
0.226276
0.226243
0.226061
0.225331
0.223029
0.217298
0.206905
0.193044
0.175503
0.153207
0.127593
0.102934
0.0831776
0.0652688
0.0546748
0.0475042
0.0426471
0.0392957
0.036909
0.0351402
0.0337715
0.0326671
0.031742
0.0309428
0.0302354
0.0295975
0.0290144
0.0284758
0.0279745
0.0275052
0.027064
0.0266475
0.0262533
0.0258793
0.0255236
0.0251848
0.0248616
0.0245528
0.0242575
0.0239751
0.0237134
0.023465
0.0232247
0.022992
0.0227664
0.0225476
0.0223352
0.0221288
0.0219281
0.0217328
0.0215426
0.0213573
0.0211765
0.0210002
0.020828
0.0206598
0.0204954
0.0203345
0.0201771
0.020023
0.0198721
0.0197241
0.0195791
0.0194368
0.0192973
0.0191603
0.0190259
0.0188938
0.0187642
0.0186368
0.0185116
0.0183886
0.0182677
0.0181488
0.0180319
0.017917
0.017804
0.0176928
0.0175835
0.0174759
0.0173701
0.017266
0.0171635
0.0170627
0.0169634
0.0168656
0.0167694
0.0166747
0.0165813
0.0164894
0.0163988
0.0163095
0.0162216
0.0161348
0.0160494
0.0159651
0.0158819
0.0157999
0.015719
0.0156391
0.0155604
0.0154826
0.0154059
0.0153302
0.0152555
0.0151815
0.0151085
0.0150363
0.0149649
0.0148944
0.0148248
0.0147559
0.0146878
0.0146205
0.014554
0.0144882
0.0144231
0.0143588
0.0142952
0.0142322
0.01417
0.0141084
0.0140475
0.0139872
0.0139276
0.0138686
0.0138102
0.0137525
0.0136953
0.0136388
0.0135828
0.0135275
0.0134727
0.0134185
0.0133649
0.0133118
0.0132592
0.0132072
0.0131558
0.0131048
0.0130544
0.0130045
0.0129551
0.0129062
0.0128578
0.0128098
0.0127623
0.0127153
0.0126688
0.0126227
0.012577
0.0125317
0.0124869
0.0124424
0.0123984
0.0123547
0.0123114
0.0122685
0.0122259
0.0121836
0.0121417
0.0121001
0.0120588
0.0120178
0.0119771
0.0119366
0.0118964
0.0118565
0.0118167
0.0117772
0.011738
0.0116989
0.01166
0.0116213
0.0115827
0.0115443
0.011506
0.0114679
0.0114298
0.0113919
0.0113541
0.0113163
0.0112785
0.0112408
0.0112032
0.0111655
0.0111278
0.01109
0.0110522
0.0110143
0.0109763
0.0109381
0.0108998
0.0108612
0.0108225
0.0107834
0.0107441
0.0107044
0.0106643
0.0106239
0.0105829
0.0105415
0.0104994
0.0104568
0.0104135
0.0103695
0.0103248
0.0102794
0.0102333
0.0101861
0.0101349
0.010064
0.0100129
0.00996031
0.00990621
0.00985062
0.00979354
0.00973494
0.00967481
0.00961315
0.00955
0.00948548
0.00941983
0.00935357
0.0092877
0.00922434
0.0091679
0.00912824
)
;

boundaryField
{
    boundary
    {
        type            empty;
    }
    inlet
    {
        type            fixedValue;
        value           uniform 0.226269;
    }
    outlet
    {
        type            zeroGradient;
    }
}


// ************************************************************************* //
