/*--------------------------------*- C++ -*----------------------------------*\
  =========                 |
  \\      /  F ield         | OpenFOAM: The Open Source CFD Toolbox
   \\    /   O peration     | Website:  https://openfoam.org
    \\  /    A nd           | Version:  7
     \\/     M anipulation  |
\*---------------------------------------------------------------------------*/
FoamFile
{
    version     2.0;
    format      ascii;
    class       volScalarField;
    location    "0.00075";
    object      OH;
}
// * * * * * * * * * * * * * * * * * * * * * * * * * * * * * * * * * * * * * //

dimensions      [0 0 0 0 0 0 0];

internalField   nonuniform List<scalar> 
500
(
9.37961e-48
1.82711e-47
2.43378e-47
2.84295e-47
3.11756e-47
3.30113e-47
3.42324e-47
3.50391e-47
3.55668e-47
3.59079e-47
3.61256e-47
3.62631e-47
3.63505e-47
3.64085e-47
3.64512e-47
3.64883e-47
3.65261e-47
3.65688e-47
3.66188e-47
3.66776e-47
3.67458e-47
3.68237e-47
3.69114e-47
3.70093e-47
3.71175e-47
3.72366e-47
3.73676e-47
3.75117e-47
3.76705e-47
3.7846e-47
3.80406e-47
3.8257e-47
3.84981e-47
3.8767e-47
3.90673e-47
3.94023e-47
3.97755e-47
4.01903e-47
4.06499e-47
4.11571e-47
4.17146e-47
4.23242e-47
4.29873e-47
4.37046e-47
4.44757e-47
4.52995e-47
4.61739e-47
4.70956e-47
4.80603e-47
4.90628e-47
5.00968e-47
5.11552e-47
5.223e-47
5.33129e-47
5.4395e-47
5.54675e-47
5.65214e-47
5.75484e-47
5.85406e-47
5.94909e-47
6.03931e-47
6.12423e-47
6.20346e-47
6.27674e-47
6.34393e-47
6.40501e-47
6.46005e-47
6.50924e-47
6.55283e-47
6.59113e-47
6.6245e-47
6.65336e-47
6.6781e-47
6.69915e-47
6.71692e-47
6.73181e-47
6.74418e-47
6.7544e-47
6.76276e-47
6.76957e-47
6.77506e-47
6.77947e-47
6.78299e-47
6.78577e-47
6.78796e-47
6.78968e-47
6.79101e-47
6.79205e-47
6.79286e-47
6.79348e-47
6.79397e-47
6.79435e-47
6.79464e-47
6.79488e-47
6.79507e-47
6.79524e-47
6.79537e-47
6.7955e-47
6.79561e-47
6.79572e-47
6.79582e-47
6.79592e-47
6.79602e-47
6.79613e-47
6.79623e-47
6.79635e-47
6.79646e-47
6.79658e-47
6.7967e-47
6.79683e-47
6.79697e-47
6.79711e-47
6.79725e-47
6.79741e-47
6.79756e-47
6.79773e-47
6.7979e-47
6.79808e-47
6.79826e-47
6.79846e-47
6.79866e-47
6.79887e-47
6.79908e-47
6.79926e-47
6.79927e-47
6.7992e-47
6.79965e-47
6.80013e-47
6.80062e-47
6.80112e-47
6.80161e-47
6.80207e-47
6.8025e-47
6.80288e-47
6.80321e-47
6.8035e-47
6.80373e-47
6.80394e-47
6.80412e-47
6.80429e-47
6.80447e-47
6.80467e-47
6.80489e-47
6.80514e-47
6.80543e-47
6.80577e-47
6.80614e-47
6.80655e-47
6.807e-47
6.80747e-47
6.80796e-47
6.80847e-47
6.809e-47
6.80953e-47
6.81006e-47
6.8106e-47
6.81114e-47
6.81167e-47
6.81221e-47
6.81274e-47
6.81327e-47
6.8138e-47
6.81433e-47
6.81486e-47
6.8154e-47
6.81594e-47
6.81648e-47
6.81703e-47
6.81759e-47
6.81815e-47
6.81871e-47
6.81929e-47
6.81987e-47
6.82045e-47
6.82104e-47
6.82164e-47
6.82224e-47
6.82284e-47
6.82345e-47
6.82405e-47
6.82466e-47
6.82526e-47
6.82585e-47
6.82644e-47
6.82702e-47
6.82759e-47
6.82814e-47
6.82869e-47
6.82921e-47
6.82972e-47
6.8302e-47
6.83067e-47
6.83112e-47
6.8316e-47
6.83221e-47
6.83343e-47
6.83697e-47
6.84923e-47
6.89365e-47
7.05591e-47
7.64686e-47
9.78766e-47
1.74966e-46
4.50873e-46
1.43234e-45
4.90248e-45
1.70976e-44
5.96985e-44
2.07629e-43
7.18293e-43
2.47085e-42
8.45088e-42
2.87399e-41
9.71915e-41
3.26867e-40
1.09334e-39
3.63776e-39
1.20409e-38
3.96539e-38
1.29951e-37
4.23843e-37
1.37605e-36
4.4478e-36
1.43157e-35
4.58905e-35
1.46541e-34
4.66242e-34
1.47832e-33
4.67222e-33
1.47221e-32
4.62594e-32
1.44981e-31
4.53315e-31
1.41437e-30
4.40457e-30
1.36939e-29
4.25152e-29
1.31852e-28
4.08603e-28
1.26581e-27
3.92206e-27
1.21629e-26
3.77869e-26
1.17754e-25
3.68714e-25
1.16281e-24
3.70504e-24
1.19757e-23
3.94615e-23
1.33297e-22
4.6414e-22
1.68229e-21
6.3122e-21
2.45419e-20
9.8749e-20
4.09445e-19
1.74002e-18
7.53812e-18
3.31332e-17
1.4719e-16
6.58899e-16
2.9657e-15
1.34002e-14
6.07113e-14
2.75579e-13
1.25252e-12
5.69779e-12
2.59347e-11
1.18095e-10
5.43888e-10
2.53144e-09
1.18659e-08
5.61608e-08
2.74476e-07
1.47344e-06
9.34192e-06
6.33805e-05
0.000302868
0.00065919
0.000847657
0.00104102
0.0015287
0.00245328
0.00372203
0.00510384
0.00655568
0.00766955
0.00856113
0.00926041
0.00980493
0.01023
0.0105644
0.0108297
0.0110421
0.0112133
0.0113521
0.0114648
0.0115563
0.0116304
0.01169
0.0117374
0.0117745
0.0118027
0.0118233
0.0118374
0.0118459
0.0118494
0.0118486
0.0118441
0.0118362
0.0118254
0.011812
0.011797
0.0117805
0.0117624
0.0117429
0.0117221
0.0117001
0.011677
0.0116529
0.0116279
0.0116021
0.0115755
0.0115483
0.0115205
0.0114922
0.0114633
0.0114341
0.0114043
0.0113743
0.0113439
0.0113132
0.0112822
0.0112511
0.0112197
0.0111881
0.0111564
0.0111245
0.0110925
0.0110605
0.0110283
0.0109962
0.010964
0.0109317
0.0108995
0.0108673
0.0108351
0.010803
0.0107709
0.0107388
0.0107069
0.010675
0.0106433
0.0106116
0.01058
0.0105486
0.0105172
0.010486
0.010455
0.010424
0.0103932
0.0103625
0.010332
0.0103016
0.0102714
0.0102413
0.0102114
0.0101816
0.010152
0.0101225
0.0100932
0.010064
0.010035
0.0100061
0.00997739
0.00994884
0.00992041
0.00989206
0.00986386
0.00983582
0.00980792
0.00978017
0.00975256
0.0097251
0.00969778
0.00967061
0.00964358
0.00961669
0.00958995
0.00956336
0.0095369
0.0095106
0.00948443
0.00945841
0.00943254
0.00940681
0.00938123
0.00935579
0.00933049
0.00930534
0.00928034
0.00925548
0.00923076
0.0092062
0.00918177
0.0091575
0.00913337
0.00910938
0.00908554
0.00906185
0.0090383
0.00901489
0.00899163
0.00896852
0.00894555
0.00892272
0.00890003
0.00887748
0.00885508
0.00883281
0.00881068
0.00878869
0.00876684
0.00874512
0.00872353
0.00870207
0.00868075
0.00865955
0.00863847
0.00861753
0.0085967
0.008576
0.00855541
0.00853495
0.0085146
0.00849436
0.00847423
0.00845422
0.00843431
0.00841451
0.00839482
0.00837523
0.00835574
0.00833635
0.00831706
0.00829787
0.00827877
0.00825977
0.00824086
0.00822204
0.00820331
0.00818466
0.0081661
0.00814762
0.00812922
0.0081109
0.00809265
0.00807447
0.00805636
0.00803831
0.00802032
0.00800239
0.0079845
0.00796666
0.00794885
0.00793107
0.00791331
0.00789556
0.00787782
0.00786007
0.0078423
0.0078245
0.00780666
0.00778877
0.0077708
0.00775276
0.0077346
0.00771633
0.00769792
0.00767935
0.00766059
0.00764165
0.00762211
0.00759683
0.00757711
0.00755698
0.00753648
0.00751564
0.00749444
0.0074729
0.00745099
0.00742874
0.00740619
0.0073834
0.00736052
0.00733783
0.00731582
0.00729535
0.007278
0.00726659
)
;

boundaryField
{
    boundary
    {
        type            empty;
    }
    inlet
    {
        type            fixedValue;
        value           uniform 0;
    }
    outlet
    {
        type            zeroGradient;
    }
}


// ************************************************************************* //
