/*--------------------------------*- C++ -*----------------------------------*\
  =========                 |
  \\      /  F ield         | OpenFOAM: The Open Source CFD Toolbox
   \\    /   O peration     | Website:  https://openfoam.org
    \\  /    A nd           | Version:  7
     \\/     M anipulation  |
\*---------------------------------------------------------------------------*/
FoamFile
{
    version     2.0;
    format      ascii;
    class       volScalarField;
    location    "0.00075";
    object      T;
}
// * * * * * * * * * * * * * * * * * * * * * * * * * * * * * * * * * * * * * //

dimensions      [0 0 0 1 0 0 0];

internalField   nonuniform List<scalar> 
500
(
300
300
299.999
299.997
299.994
299.991
299.987
299.982
299.977
299.972
299.967
299.962
299.957
299.953
299.949
299.947
299.945
299.944
299.944
299.945
299.947
299.95
299.953
299.957
299.962
299.968
299.975
299.982
299.991
300
300.011
300.024
300.038
300.053
300.071
300.091
300.114
300.138
300.166
300.196
300.23
300.266
300.305
300.346
300.391
300.437
300.486
300.537
300.589
300.643
300.697
300.751
300.806
300.86
300.912
300.964
301.014
301.062
301.107
301.15
301.19
301.227
301.262
301.293
301.322
301.347
301.37
301.391
301.409
301.424
301.438
301.45
301.46
301.468
301.475
301.481
301.486
301.49
301.494
301.496
301.499
301.5
301.502
301.503
301.504
301.504
301.505
301.505
301.506
301.506
301.506
301.506
301.506
301.507
301.507
301.507
301.507
301.507
301.507
301.507
301.507
301.507
301.507
301.507
301.507
301.507
301.507
301.507
301.507
301.507
301.507
301.507
301.507
301.508
301.508
301.508
301.508
301.508
301.508
301.508
301.508
301.508
301.508
301.508
301.508
301.509
301.509
301.509
301.509
301.509
301.51
301.51
301.51
301.51
301.51
301.51
301.51
301.511
301.511
301.511
301.511
301.511
301.511
301.511
301.511
301.511
301.511
301.511
301.512
301.512
301.512
301.512
301.512
301.512
301.513
301.513
301.513
301.513
301.513
301.514
301.514
301.514
301.514
301.514
301.515
301.515
301.515
301.515
301.516
301.516
301.516
301.516
301.516
301.517
301.517
301.517
301.517
301.518
301.518
301.518
301.518
301.519
301.519
301.519
301.519
301.519
301.52
301.52
301.52
301.52
301.52
301.521
301.521
301.521
301.521
301.521
301.521
301.521
301.522
301.522
301.522
301.522
301.522
301.522
301.522
301.522
301.522
301.522
301.522
301.522
301.521
301.521
301.521
301.521
301.521
301.52
301.52
301.52
301.519
301.519
301.519
301.518
301.518
301.517
301.517
301.516
301.515
301.515
301.514
301.513
301.512
301.511
301.51
301.51
301.509
301.507
301.506
301.505
301.504
301.503
301.501
301.5
301.499
301.497
301.496
301.494
301.492
301.491
301.489
301.487
301.485
301.483
301.481
301.479
301.477
301.475
301.473
301.471
301.469
301.466
301.464
301.461
301.459
301.456
301.454
301.452
301.451
301.454
301.467
301.51
301.635
301.996
303.024
305.949
314.223
336.851
391.753
495.671
639.563
794.851
944.904
1085.54
1212.68
1319.85
1411.2
1488.46
1549.87
1598.71
1640.22
1675.95
1707.2
1734.88
1759.68
1782.08
1802.48
1821.17
1838.4
1854.35
1869.18
1883.02
1895.98
1908.15
1919.61
1930.44
1940.68
1950.39
1959.61
1968.39
1976.76
1984.74
1992.37
1999.65
2006.42
2012.8
2018.97
2024.95
2030.73
2036.34
2041.77
2047.04
2052.16
2057.13
2061.96
2066.66
2071.23
2075.68
2080.01
2084.24
2088.36
2092.37
2096.29
2100.12
2103.85
2107.5
2111.07
2114.56
2117.97
2121.31
2124.57
2127.77
2130.9
2133.97
2136.97
2139.92
2142.81
2145.64
2148.42
2151.15
2153.83
2156.46
2159.04
2161.57
2164.07
2166.51
2168.92
2171.29
2173.62
2175.91
2178.16
2180.38
2182.56
2184.71
2186.82
2188.9
2190.95
2192.97
2194.96
2196.92
2198.86
2200.76
2202.64
2204.49
2206.31
2208.1
2209.87
2211.61
2213.33
2215.03
2216.71
2218.37
2220.01
2221.63
2223.22
2224.8
2226.36
2227.89
2229.41
2230.91
2232.39
2233.85
2235.3
2236.73
2238.14
2239.53
2240.91
2242.28
2243.62
2244.95
2246.27
2247.57
2248.86
2250.14
2251.39
2252.64
2253.87
2255.09
2256.3
2257.49
2258.68
2259.84
2261
2262.15
2263.28
2264.41
2265.52
2266.62
2267.71
2268.79
2269.86
2270.92
2271.97
2273
2274.03
2275.05
2276.06
2277.06
2278.05
2279.04
2280.01
2280.97
2281.93
2282.87
2283.81
2284.74
2285.66
2286.57
2287.48
2288.37
2289.26
2290.14
2291.01
2291.88
2292.73
2293.58
2294.42
2295.26
2296.08
2296.9
2297.72
2298.52
2299.32
2300.11
2300.89
2301.67
2302.44
2303.2
2303.96
2304.71
2305.45
2306.19
2306.91
2307.64
2308.35
2309.06
2309.76
2310.45
2311.14
2311.81
2312.48
2313.15
2313.8
2314.44
2315.08
2315.7
2316.32
2316.93
2317.52
2318.11
2318.68
2319.24
2319.78
2320.35
2320.89
2321.57
2322.1
2322.58
2323.07
2323.53
2323.98
2324.42
2324.85
2325.26
2325.66
2326.04
2326.41
2326.76
2327.09
2327.4
2327.66
2327.82
)
;

boundaryField
{
    boundary
    {
        type            empty;
    }
    inlet
    {
        type            fixedValue;
        value           uniform 300;
    }
    outlet
    {
        type            zeroGradient;
    }
}


// ************************************************************************* //
