/*--------------------------------*- C++ -*----------------------------------*\
  =========                 |
  \\      /  F ield         | OpenFOAM: The Open Source CFD Toolbox
   \\    /   O peration     | Website:  https://openfoam.org
    \\  /    A nd           | Version:  7
     \\/     M anipulation  |
\*---------------------------------------------------------------------------*/
FoamFile
{
    version     2.0;
    format      ascii;
    class       volScalarField;
    location    "3e-05";
    object      H2O2;
}
// * * * * * * * * * * * * * * * * * * * * * * * * * * * * * * * * * * * * * //

dimensions      [0 0 0 0 0 0 0];

internalField   nonuniform List<scalar> 
125
(
1.0662e-38
2.00976e-37
3.79907e-36
7.15167e-35
1.33644e-33
2.47636e-32
4.54701e-31
8.26871e-30
1.4882e-28
2.64879e-27
4.65785e-26
8.08327e-25
1.38258e-23
2.32732e-22
3.84909e-21
6.24297e-20
9.90963e-19
1.53589e-17
2.3184e-16
3.39866e-15
4.82311e-14
6.60196e-13
8.68036e-12
1.09096e-10
1.30291e-09
1.46701e-08
1.53702e-07
1.45431e-06
1.14115e-05
5.82104e-05
0.000122572
0.000130758
8.20497e-05
3.55174e-05
1.39611e-05
6.46511e-06
4.35384e-06
4.08176e-06
4.32903e-06
4.56123e-06
4.57349e-06
4.33514e-06
3.90837e-06
3.38753e-06
2.85641e-06
2.36931e-06
1.95131e-06
1.60719e-06
1.3308e-06
1.11168e-06
9.38774e-07
8.0221e-07
6.9382e-07
6.07152e-07
5.37238e-07
4.80308e-07
4.33523e-07
3.94746e-07
3.6237e-07
3.3518e-07
3.12246e-07
2.93428e-07
2.77686e-07
2.64173e-07
2.52582e-07
2.42654e-07
2.34167e-07
2.26931e-07
2.20779e-07
2.15565e-07
2.11161e-07
2.07454e-07
2.04344e-07
2.01743e-07
1.99577e-07
1.97777e-07
1.96287e-07
1.95057e-07
1.94045e-07
1.93216e-07
1.92537e-07
1.91983e-07
1.91533e-07
1.91168e-07
1.90872e-07
1.90633e-07
1.9044e-07
1.90285e-07
1.9016e-07
1.90059e-07
1.89979e-07
1.89914e-07
1.89861e-07
1.89819e-07
1.89785e-07
1.89757e-07
1.89734e-07
1.89715e-07
1.89699e-07
1.89685e-07
1.89674e-07
1.89663e-07
1.89655e-07
1.89647e-07
1.89639e-07
1.89633e-07
1.89626e-07
1.8962e-07
1.89615e-07
1.8961e-07
1.89604e-07
1.89599e-07
1.89595e-07
1.8959e-07
1.89585e-07
1.8958e-07
1.89576e-07
1.89571e-07
1.89566e-07
1.89562e-07
1.89557e-07
1.89551e-07
1.89545e-07
1.89538e-07
1.89532e-07
)
;

boundaryField
{
    boundary
    {
        type            empty;
    }
    inlet
    {
        type            fixedValue;
        value           nonuniform 0();
    }
    outlet
    {
        type            zeroGradient;
    }
    procBoundary1to0
    {
        type            processor;
        value           uniform 1.89526e-07;
    }
    procBoundary1to3
    {
        type            processor;
        value           uniform 2.64241e-40;
    }
}


// ************************************************************************* //
