/*--------------------------------*- C++ -*----------------------------------*\
  =========                 |
  \\      /  F ield         | OpenFOAM: The Open Source CFD Toolbox
   \\    /   O peration     | Website:  https://openfoam.org
    \\  /    A nd           | Version:  7
     \\/     M anipulation  |
\*---------------------------------------------------------------------------*/
FoamFile
{
    version     2.0;
    format      ascii;
    class       volScalarField;
    location    "3e-05";
    object      HO2;
}
// * * * * * * * * * * * * * * * * * * * * * * * * * * * * * * * * * * * * * //

dimensions      [0 0 0 0 0 0 0];

internalField   nonuniform List<scalar> 
125
(
6.49119e-26
3.52971e-25
1.89939e-24
1.02306e-23
5.52105e-23
2.9856e-22
1.61763e-21
8.77967e-21
4.77273e-20
2.59886e-19
1.41793e-18
7.75479e-18
4.25471e-17
2.34536e-16
1.30255e-15
7.32165e-15
4.19281e-14
2.46646e-13
1.50359e-12
9.5677e-12
6.37439e-11
4.40921e-10
3.09527e-09
2.1297e-08
1.40515e-07
8.95487e-07
5.33825e-06
2.83504e-05
0.000122597
0.000360139
0.000532286
0.000485206
0.000380583
0.000267604
0.00018224
0.000121582
7.929e-05
5.08302e-05
3.25365e-05
2.1161e-05
1.41797e-05
9.87193e-06
7.16173e-06
5.40914e-06
4.24253e-06
3.44639e-06
2.89336e-06
2.50548e-06
2.23277e-06
2.04166e-06
1.90875e-06
1.81729e-06
1.75524e-06
1.71391e-06
1.68711e-06
1.67049e-06
1.66097e-06
1.65642e-06
1.65532e-06
1.65659e-06
1.65944e-06
1.66318e-06
1.66736e-06
1.67181e-06
1.67631e-06
1.68071e-06
1.68491e-06
1.68882e-06
1.69241e-06
1.69564e-06
1.69852e-06
1.70106e-06
1.70327e-06
1.70519e-06
1.70683e-06
1.70822e-06
1.70941e-06
1.71041e-06
1.71125e-06
1.71195e-06
1.71254e-06
1.71303e-06
1.71343e-06
1.71377e-06
1.71406e-06
1.7143e-06
1.7145e-06
1.71467e-06
1.71481e-06
1.71493e-06
1.71504e-06
1.71514e-06
1.71522e-06
1.71529e-06
1.71536e-06
1.71542e-06
1.71548e-06
1.71553e-06
1.71558e-06
1.71563e-06
1.71567e-06
1.71571e-06
1.71575e-06
1.71579e-06
1.71583e-06
1.71587e-06
1.71591e-06
1.71595e-06
1.71598e-06
1.71602e-06
1.71605e-06
1.71609e-06
1.71613e-06
1.71616e-06
1.71619e-06
1.71622e-06
1.71625e-06
1.71629e-06
1.71632e-06
1.71635e-06
1.71639e-06
1.71642e-06
1.71645e-06
1.71645e-06
1.71634e-06
)
;

boundaryField
{
    boundary
    {
        type            empty;
    }
    inlet
    {
        type            fixedValue;
        value           nonuniform 0();
    }
    outlet
    {
        type            zeroGradient;
    }
    procBoundary1to0
    {
        type            processor;
        value           uniform 1.71633e-06;
    }
    procBoundary1to3
    {
        type            processor;
        value           uniform 1.07229e-26;
    }
}


// ************************************************************************* //
