/*--------------------------------*- C++ -*----------------------------------*\
  =========                 |
  \\      /  F ield         | OpenFOAM: The Open Source CFD Toolbox
   \\    /   O peration     | Website:  https://openfoam.org
    \\  /    A nd           | Version:  7
     \\/     M anipulation  |
\*---------------------------------------------------------------------------*/
FoamFile
{
    version     2.0;
    format      ascii;
    class       volScalarField;
    location    "3e-05";
    object      p;
}
// * * * * * * * * * * * * * * * * * * * * * * * * * * * * * * * * * * * * * //

dimensions      [1 -1 -2 0 0 0 0];

internalField   nonuniform List<scalar> 
125
(
102030
102031
102031
102032
102032
102033
102033
102034
102034
102035
102035
102036
102036
102037
102038
102038
102039
102039
102040
102041
102041
102042
102043
102043
102044
102045
102045
102046
102047
102047
102047
102047
102045
102044
102042
102041
102040
102039
102038
102038
102037
102037
102036
102036
102035
102035
102035
102034
102034
102033
102033
102033
102032
102032
102032
102031
102031
102030
102030
102030
102029
102029
102029
102028
102028
102028
102027
102027
102027
102026
102026
102026
102025
102025
102025
102024
102024
102024
102023
102023
102023
102022
102022
102022
102021
102021
102021
102020
102020
102019
102019
102019
102018
102018
102018
102017
102017
102017
102016
102016
102016
102015
102015
102015
102014
102014
102013
102013
102013
102012
102012
102012
102011
102011
102011
102010
102010
102010
102009
102009
102009
102008
102008
102008
102007
)
;

boundaryField
{
    boundary
    {
        type            empty;
    }
    inlet
    {
        type            zeroGradient;
    }
    outlet
    {
        type            waveTransmissive;
        gamma           1.4;
        value           nonuniform 0();
    }
    procBoundary1to0
    {
        type            processor;
        value           uniform 102007;
    }
    procBoundary1to3
    {
        type            processor;
        value           uniform 102030;
    }
}


// ************************************************************************* //
