/*--------------------------------*- C++ -*----------------------------------*\
  =========                 |
  \\      /  F ield         | OpenFOAM: The Open Source CFD Toolbox
   \\    /   O peration     | Website:  https://openfoam.org
    \\  /    A nd           | Version:  7
     \\/     M anipulation  |
\*---------------------------------------------------------------------------*/
FoamFile
{
    version     2.0;
    format      ascii;
    class       surfaceScalarField;
    location    "3e-05";
    object      phi;
}
// * * * * * * * * * * * * * * * * * * * * * * * * * * * * * * * * * * * * * //

dimensions      [1 0 -1 0 0 0 0];

internalField   nonuniform List<scalar> 
124
(
1.18894e-06
1.17823e-06
1.16759e-06
1.15701e-06
1.14649e-06
1.13603e-06
1.12562e-06
1.11527e-06
1.10498e-06
1.09474e-06
1.08456e-06
1.07443e-06
1.06436e-06
1.05434e-06
1.04437e-06
1.03446e-06
1.0246e-06
1.01479e-06
1.00503e-06
9.95332e-07
9.8568e-07
9.76077e-07
9.66519e-07
9.57023e-07
9.47753e-07
9.39836e-07
9.39608e-07
9.78813e-07
1.1936e-06
1.91801e-06
3.04953e-06
3.8982e-06
4.38694e-06
4.63697e-06
4.78164e-06
4.84079e-06
4.84349e-06
4.80224e-06
4.72536e-06
4.62138e-06
4.49902e-06
4.36643e-06
4.23061e-06
4.09717e-06
3.97032e-06
3.853e-06
3.74706e-06
3.65345e-06
3.57245e-06
3.5038e-06
3.44685e-06
3.40068e-06
3.3642e-06
3.33623e-06
3.31556e-06
3.30099e-06
3.29141e-06
3.28579e-06
3.28322e-06
3.28291e-06
3.2842e-06
3.28638e-06
3.28916e-06
3.29225e-06
3.29543e-06
3.29853e-06
3.30145e-06
3.30409e-06
3.30641e-06
3.30839e-06
3.31002e-06
3.3113e-06
3.31226e-06
3.31291e-06
3.31328e-06
3.3134e-06
3.3133e-06
3.31299e-06
3.31251e-06
3.31188e-06
3.31112e-06
3.31025e-06
3.30928e-06
3.30824e-06
3.30713e-06
3.30596e-06
3.30475e-06
3.30349e-06
3.30221e-06
3.3009e-06
3.29956e-06
3.29821e-06
3.29684e-06
3.29546e-06
3.29407e-06
3.29268e-06
3.29127e-06
3.28986e-06
3.28844e-06
3.28701e-06
3.28559e-06
3.28416e-06
3.28272e-06
3.28128e-06
3.27984e-06
3.2784e-06
3.27695e-06
3.2755e-06
3.27404e-06
3.27259e-06
3.27113e-06
3.26967e-06
3.2682e-06
3.26674e-06
3.26527e-06
3.26379e-06
3.26232e-06
3.26084e-06
3.25936e-06
3.25787e-06
3.25638e-06
3.25489e-06
3.25339e-06
3.25189e-06
)
;

boundaryField
{
    boundary
    {
        type            empty;
        value           nonuniform 0();
    }
    inlet
    {
        type            calculated;
        value           nonuniform 0();
    }
    outlet
    {
        type            calculated;
        value           nonuniform 0();
    }
    procBoundary1to0
    {
        type            processor;
        value           uniform 3.25039e-06;
    }
    procBoundary1to3
    {
        type            processor;
        value           uniform -1.19971e-06;
    }
}


// ************************************************************************* //
