/*--------------------------------*- C++ -*----------------------------------*\
  =========                 |
  \\      /  F ield         | OpenFOAM: The Open Source CFD Toolbox
   \\    /   O peration     | Website:  https://openfoam.org
    \\  /    A nd           | Version:  7
     \\/     M anipulation  |
\*---------------------------------------------------------------------------*/
FoamFile
{
    version     2.0;
    format      ascii;
    class       volScalarField;
    location    "3e-05";
    object      Qdot;
}
// * * * * * * * * * * * * * * * * * * * * * * * * * * * * * * * * * * * * * //

dimensions      [1 -1 -3 0 0 0 0];

internalField   nonuniform List<scalar> 
125
(
2.8832e-15
1.71835e-14
1.01408e-13
5.97846e-13
3.52192e-12
2.07317e-11
1.2194e-10
7.16631e-10
4.20786e-09
2.4684e-08
1.44654e-07
8.46776e-07
4.95109e-06
2.89127e-05
0.000168628
0.000982159
0.00571276
0.0331818
0.192436
1.11395
6.71056
45.3527
381.367
3179.45
20677.7
147863
1.06488e+06
7.87504e+06
6.16805e+07
4.78234e+08
2.6668e+09
7.95754e+09
1.21605e+10
1.24415e+10
1.18311e+10
1.09856e+10
9.56386e+09
7.59955e+09
5.62821e+09
4.00992e+09
2.81225e+09
1.96652e+09
1.37924e+09
9.72274e+08
6.88944e+08
4.90217e+08
3.4966e+08
2.49389e+08
1.77268e+08
1.25008e+08
8.68977e+07
5.89755e+07
3.84656e+07
2.34092e+07
1.24033e+07
4.43646e+06
-1.22438e+06
-5.13272e+06
-7.70164e+06
-9.25306e+06
-1.00278e+07
-1.02525e+07
-1.01397e+07
-9.76236e+06
-9.20077e+06
-8.52745e+06
-7.79732e+06
-7.04881e+06
-6.31381e+06
-5.61114e+06
-4.95335e+06
-4.34614e+06
-3.8008e+06
-3.30984e+06
-2.87254e+06
-2.48899e+06
-2.15195e+06
-1.85719e+06
-1.60517e+06
-1.38774e+06
-1.20195e+06
-1.04321e+06
-909266
-796859
-702555
-623427
-557897
-503857
-459371
-422752
-393741
-369986
-351233
-336080
-323718
-314677
-307589
-302283
-298381
-295644
-293297
-292180
-291612
-291475
-291673
-292130
-292785
-293587
-294494
-295469
-296469
-297875
-298930
-300017
-300739
-301934
-303176
-304499
-305979
-307783
-310260
-314103
-321199
-333835
-358162
)
;

boundaryField
{
    boundary
    {
        type            empty;
    }
    inlet
    {
        type            calculated;
        value           nonuniform 0();
    }
    outlet
    {
        type            calculated;
        value           nonuniform 0();
    }
    procBoundary1to0
    {
        type            processor;
        value           uniform 0;
    }
    procBoundary1to3
    {
        type            processor;
        value           uniform 0;
    }
}


// ************************************************************************* //
