/*--------------------------------*- C++ -*----------------------------------*\
  =========                 |
  \\      /  F ield         | OpenFOAM: The Open Source CFD Toolbox
   \\    /   O peration     | Website:  https://openfoam.org
    \\  /    A nd           | Version:  7
     \\/     M anipulation  |
\*---------------------------------------------------------------------------*/
FoamFile
{
    version     2.0;
    format      ascii;
    class       volScalarField;
    location    "3e-05";
    object      T;
}
// * * * * * * * * * * * * * * * * * * * * * * * * * * * * * * * * * * * * * //

dimensions      [0 0 0 1 0 0 0];

internalField   nonuniform List<scalar> 
125
(
300.405
300.403
300.4
300.397
300.393
300.39
300.387
300.383
300.38
300.376
300.372
300.368
300.364
300.36
300.356
300.352
300.347
300.343
300.338
300.334
300.329
300.324
300.32
300.317
300.321
300.367
300.618
301.877
307.948
334.245
415.021
560.294
732.176
899.774
1052.46
1191.35
1313.51
1420.03
1515.14
1602.78
1685.36
1763.85
1838.36
1908.54
1973.87
2033.86
2088.16
2136.6
2179.21
2216.15
2247.77
2274.48
2296.77
2315.17
2330.19
2342.34
2352.09
2359.85
2366
2370.84
2374.65
2377.56
2379.81
2381.61
2383.06
2384.23
2385.18
2385.95
2386.58
2387.1
2387.53
2387.89
2388.19
2388.45
2388.66
2388.84
2389
2389.13
2389.24
2389.33
2389.42
2389.49
2389.55
2389.6
2389.64
2389.68
2389.72
2389.75
2389.77
2389.8
2389.82
2389.84
2389.85
2389.87
2389.88
2389.9
2389.91
2389.92
2389.93
2389.94
2389.95
2389.97
2389.98
2389.98
2389.99
2390
2390.01
2390.02
2390.03
2390.04
2390.05
2390.06
2390.06
2390.07
2390.08
2390.09
2390.1
2390.1
2390.11
2390.12
2390.13
2390.13
2390.14
2390.15
2390.16
)
;

boundaryField
{
    boundary
    {
        type            empty;
    }
    inlet
    {
        type            fixedValue;
        value           nonuniform 0();
    }
    outlet
    {
        type            zeroGradient;
    }
    procBoundary1to0
    {
        type            processor;
        value           uniform 2390.16;
    }
    procBoundary1to3
    {
        type            processor;
        value           uniform 300.409;
    }
}


// ************************************************************************* //
