/*--------------------------------*- C++ -*----------------------------------*\
  =========                 |
  \\      /  F ield         | OpenFOAM: The Open Source CFD Toolbox
   \\    /   O peration     | Website:  https://openfoam.org
    \\  /    A nd           | Version:  7
     \\/     M anipulation  |
\*---------------------------------------------------------------------------*/
FoamFile
{
    version     2.0;
    format      ascii;
    class       volVectorField;
    location    "3e-05";
    object      U;
}
// * * * * * * * * * * * * * * * * * * * * * * * * * * * * * * * * * * * * * //

dimensions      [0 1 -1 0 0 0 0];

internalField   nonuniform List<vector> 
125
(
(0.409593 0 0)
(0.406014 0 0)
(0.402342 0 0)
(0.398657 0 0)
(0.394927 0 0)
(0.391528 0 0)
(0.387797 0 0)
(0.384171 0 0)
(0.380697 0 0)
(0.377177 0 0)
(0.373655 0 0)
(0.370154 0 0)
(0.366648 0 0)
(0.363191 0 0)
(0.359823 0 0)
(0.35631 0 0)
(0.353107 0 0)
(0.34961 0 0)
(0.346201 0 0)
(0.34292 0 0)
(0.339601 0 0)
(0.336251 0 0)
(0.333084 0 0)
(0.32973 0 0)
(0.326658 0 0)
(0.323439 0 0)
(0.321159 0 0)
(0.325183 0 0)
(0.366647 0 0)
(0.542417 0 0)
(1.00447 0 0)
(1.8893 0 0)
(3.04755 0 0)
(4.2044 0 0)
(5.2164 0 0)
(6.05318 0 0)
(6.71568 0 0)
(7.22577 0 0)
(7.60643 0 0)
(7.8803 0 0)
(8.0679 0 0)
(8.18686 0 0)
(8.2517 0 0)
(8.27362 0 0)
(8.26536 0 0)
(8.23281 0 0)
(8.18573 0 0)
(8.13017 0 0)
(8.07144 0 0)
(8.01362 0 0)
(7.95971 0 0)
(7.91168 0 0)
(7.87063 0 0)
(7.83695 0 0)
(7.81051 0 0)
(7.79077 0 0)
(7.77697 0 0)
(7.7682 0 0)
(7.76342 0 0)
(7.76201 0 0)
(7.76284 0 0)
(7.7653 0 0)
(7.76855 0 0)
(7.77239 0 0)
(7.77645 0 0)
(7.78046 0 0)
(7.78424 0 0)
(7.78764 0 0)
(7.79059 0 0)
(7.79303 0 0)
(7.79492 0 0)
(7.79629 0 0)
(7.79712 0 0)
(7.79745 0 0)
(7.79732 0 0)
(7.79681 0 0)
(7.79591 0 0)
(7.79462 0 0)
(7.79308 0 0)
(7.79126 0 0)
(7.78921 0 0)
(7.78697 0 0)
(7.78456 0 0)
(7.782 0 0)
(7.77932 0 0)
(7.77654 0 0)
(7.77368 0 0)
(7.77073 0 0)
(7.76773 0 0)
(7.76468 0 0)
(7.76158 0 0)
(7.75845 0 0)
(7.75529 0 0)
(7.75211 0 0)
(7.7489 0 0)
(7.74567 0 0)
(7.74243 0 0)
(7.73918 0 0)
(7.73591 0 0)
(7.73264 0 0)
(7.72935 0 0)
(7.72606 0 0)
(7.72276 0 0)
(7.71945 0 0)
(7.71613 0 0)
(7.71281 0 0)
(7.70948 0 0)
(7.70615 0 0)
(7.70281 0 0)
(7.69946 0 0)
(7.69611 0 0)
(7.69276 0 0)
(7.68939 0 0)
(7.68603 0 0)
(7.68265 0 0)
(7.67928 0 0)
(7.67589 0 0)
(7.67251 0 0)
(7.66912 0 0)
(7.6657 0 0)
(7.66229 0 0)
(7.65896 0 0)
(7.65683 0 0)
(7.65345 0 0)
(7.64969 0 0)
)
;

boundaryField
{
    boundary
    {
        type            empty;
    }
    inlet
    {
        type            fixedValue;
        value           nonuniform 0();
    }
    outlet
    {
        type            zeroGradient;
    }
    procBoundary1to0
    {
        type            processor;
        value           uniform (7.64566 0 0);
    }
    procBoundary1to3
    {
        type            processor;
        value           uniform (0.413285 0 0);
    }
}


// ************************************************************************* //
