/*--------------------------------*- C++ -*----------------------------------*\
  =========                 |
  \\      /  F ield         | OpenFOAM: The Open Source CFD Toolbox
   \\    /   O peration     | Website:  https://openfoam.org
    \\  /    A nd           | Version:  7
     \\/     M anipulation  |
\*---------------------------------------------------------------------------*/
FoamFile
{
    version     2.0;
    format      ascii;
    class       volScalarField;
    location    "2e-05";
    object      cellCpuTimes;
}
// * * * * * * * * * * * * * * * * * * * * * * * * * * * * * * * * * * * * * //

dimensions      [0 0 0 0 0 0 0];

internalField   nonuniform List<scalar> 
500
(
7.9e-05
5.1e-05
5e-05
4.9e-05
5e-05
4.9e-05
5e-05
4.9e-05
4.9e-05
4.8e-05
4.9e-05
4.9e-05
4.9e-05
4.9e-05
4.8e-05
4.9e-05
4.8e-05
4.9e-05
4.7e-05
4.9e-05
4.8e-05
4.8e-05
4.8e-05
4.9e-05
4.9e-05
4.9e-05
4.9e-05
4.9e-05
4.9e-05
4.8e-05
4.8e-05
4.7e-05
4.9e-05
4.8e-05
4.8e-05
4.8e-05
4.8e-05
4.7e-05
4.8e-05
4.9e-05
4.7e-05
4.7e-05
4.8e-05
4.8e-05
4.9e-05
4.9e-05
4.9e-05
5.5e-05
4.9e-05
4.8e-05
4.9e-05
4.8e-05
4.8e-05
4.7e-05
4.9e-05
4.8e-05
4.8e-05
4.8e-05
4.9e-05
4.9e-05
4.9e-05
4.7e-05
4.7e-05
4.7e-05
4.7e-05
4.8e-05
4.7e-05
4.7e-05
4.7e-05
4.9e-05
4.8e-05
4.9e-05
4.8e-05
4.8e-05
4.8e-05
4.7e-05
4.9e-05
4.9e-05
4.7e-05
4.9e-05
4.9e-05
4.9e-05
4.9e-05
4.7e-05
4.8e-05
4.9e-05
4.8e-05
4.9e-05
4.9e-05
4.7e-05
4.8e-05
4.7e-05
4.8e-05
4.8e-05
4.7e-05
4.8e-05
4.7e-05
4.7e-05
4.9e-05
4.9e-05
4.8e-05
4.9e-05
4.8e-05
4.9e-05
4.7e-05
4.8e-05
4.7e-05
4.7e-05
4.8e-05
4.8e-05
4.8e-05
4.8e-05
4.9e-05
4.9e-05
4.8e-05
4.7e-05
4.7e-05
4.8e-05
4.9e-05
4.8e-05
4.9e-05
4.8e-05
4.7e-05
4.7e-05
4.7e-05
8.5e-05
5.7e-05
4.9e-05
4.9e-05
4.8e-05
4.7e-05
4.8e-05
4.9e-05
4.8e-05
4.7e-05
4.8e-05
4.7e-05
4.7e-05
4.8e-05
4.7e-05
4.7e-05
4.6e-05
4.7e-05
4.7e-05
4.7e-05
4.7e-05
4.6e-05
4.7e-05
4.7e-05
4.7e-05
4.8e-05
4.6e-05
4.7e-05
4.7e-05
4.8e-05
4.7e-05
4.7e-05
4.7e-05
4.7e-05
4.7e-05
4.6e-05
4.7e-05
4.7e-05
4.7e-05
4.7e-05
4.8e-05
4.7e-05
4.6e-05
4.7e-05
4.6e-05
4.7e-05
4.7e-05
4.6e-05
6e-05
4.7e-05
4.7e-05
4.7e-05
4.7e-05
4.6e-05
4.7e-05
4.7e-05
4.6e-05
4.7e-05
4.7e-05
4.7e-05
4.7e-05
4.6e-05
4.7e-05
4.7e-05
4.7e-05
4.7e-05
4.7e-05
4.7e-05
4.7e-05
4.7e-05
4.7e-05
4.6e-05
4.7e-05
4.8e-05
4.6e-05
4.7e-05
4.7e-05
4.7e-05
4.7e-05
4.7e-05
4.7e-05
4.7e-05
4.7e-05
4.6e-05
4.7e-05
4.6e-05
4.7e-05
4.7e-05
4.7e-05
4.6e-05
4.6e-05
4.7e-05
4.7e-05
4.7e-05
4.7e-05
4.6e-05
4.7e-05
4.7e-05
4.6e-05
4.6e-05
4.6e-05
4.7e-05
4.6e-05
4.7e-05
4.6e-05
4.7e-05
4.7e-05
4.6e-05
4.7e-05
4.6e-05
4.7e-05
4.7e-05
4.7e-05
4.7e-05
4.6e-05
4.7e-05
4.6e-05
4.6e-05
4.7e-05
4.7e-05
4.7e-05
4.7e-05
4.7e-05
4.7e-05
4.7e-05
4.6e-05
4.7e-05
4.7e-05
4.7e-05
4.7e-05
6e-05
4.8e-05
4.6e-05
4.7e-05
4.7e-05
4.7e-05
4.7e-05
4.6e-05
4.7e-05
4.7e-05
4.7e-05
4.6e-05
4.7e-05
4.6e-05
4.6e-05
4.6e-05
4.7e-05
4.7e-05
5.1e-05
5.7e-05
7.4e-05
8.3e-05
9.7e-05
0.000141
0.000155
0.000198
0.000184
0.000198
0.000212
0.000226
0.000276
0.000273
0.000273
0.000281
0.000268
0.000252
0.000242
0.000211
0.000193
0.000191
0.000195
0.000247
0.000208
0.000204
0.000201
0.000202
0.0002
0.000209
0.000203
0.000187
0.000202
0.000183
0.000206
0.00018
0.000171
0.000181
0.000186
0.000175
0.00017
0.000173
0.000174
0.000172
0.000156
0.000159
0.000145
0.000134
0.000136
0.000124
0.000131
0.000139
0.000128
0.000114
0.000115
0.000109
0.000108
0.000101
9.7e-05
9.5e-05
9.2e-05
9.2e-05
9.5e-05
0.000105
9.7e-05
9.5e-05
8.7e-05
8.8e-05
8.7e-05
8.9e-05
8.9e-05
8.8e-05
8.8e-05
8.8e-05
8.8e-05
8.8e-05
8.8e-05
8.8e-05
8.8e-05
8.9e-05
8.8e-05
8.9e-05
8.8e-05
8.8e-05
8.8e-05
8.8e-05
8.8e-05
8.8e-05
8.8e-05
8.9e-05
9e-05
8.8e-05
8.8e-05
8.9e-05
8.9e-05
8.9e-05
8.9e-05
8.9e-05
8.8e-05
8.9e-05
9.6e-05
9.2e-05
9.5e-05
9.9e-05
9.8e-05
9.9e-05
9.9e-05
9.9e-05
9.9e-05
9.7e-05
9.8e-05
9.7e-05
9.9e-05
9.9e-05
9.8e-05
9.9e-05
9.9e-05
9.9e-05
9.9e-05
9.9e-05
9.5e-05
9.5e-05
0.000143
0.000103
0.0001
9.9e-05
9.8e-05
9.9e-05
9.9e-05
9.8e-05
9.6e-05
9.7e-05
9.8e-05
9.8e-05
9.8e-05
9.8e-05
9.8e-05
9.9e-05
9.8e-05
9.6e-05
9.5e-05
9.5e-05
9.4e-05
9.5e-05
9.5e-05
9.5e-05
0.000108
9.6e-05
9.4e-05
9.5e-05
9.4e-05
9.5e-05
9.5e-05
9.5e-05
9.6e-05
9.5e-05
9.5e-05
9.5e-05
9.4e-05
9.5e-05
9.5e-05
9.4e-05
9.8e-05
9.7e-05
9.9e-05
9.8e-05
9.6e-05
9.5e-05
9.8e-05
9.8e-05
9.7e-05
9.5e-05
9.5e-05
9.9e-05
9.9e-05
9.9e-05
9.9e-05
0.0001
9.1e-05
9.2e-05
8.7e-05
9.1e-05
9.7e-05
9e-05
9.1e-05
9.4e-05
8.7e-05
9.2e-05
9e-05
8.5e-05
8.4e-05
8.2e-05
8.3e-05
7.8e-05
7.7e-05
7.3e-05
7.2e-05
7e-05
7e-05
6.7e-05
6.8e-05
6.3e-05
6.5e-05
7e-05
7.2e-05
7.7e-05
7.7e-05
7.7e-05
8.4e-05
8.3e-05
8.6e-05
8.5e-05
8.4e-05
8.8e-05
8.9e-05
9.4e-05
9e-05
9.1e-05
9.6e-05
9.7e-05
9.1e-05
9.1e-05
9.2e-05
9.2e-05
9.9e-05
9.8e-05
0.0001
)
;

boundaryField
{
    boundary
    {
        type            empty;
    }
    inlet
    {
        type            calculated;
        value           uniform 0;
    }
    outlet
    {
        type            calculated;
        value           uniform 0;
    }
}


// ************************************************************************* //
