/*--------------------------------*- C++ -*----------------------------------*\
  =========                 |
  \\      /  F ield         | OpenFOAM: The Open Source CFD Toolbox
   \\    /   O peration     | Website:  https://openfoam.org
    \\  /    A nd           | Version:  7
     \\/     M anipulation  |
\*---------------------------------------------------------------------------*/
FoamFile
{
    version     2.0;
    format      ascii;
    class       volScalarField;
    location    "2e-05";
    object      H;
}
// * * * * * * * * * * * * * * * * * * * * * * * * * * * * * * * * * * * * * //

dimensions      [0 0 0 0 0 0 0];

internalField   nonuniform List<scalar> 
500
(
1.43223e-41
2.05345e-41
2.21611e-41
2.25855e-41
2.26969e-41
2.27275e-41
2.27376e-41
2.27429e-41
2.27472e-41
2.27517e-41
2.27565e-41
2.27618e-41
2.27676e-41
2.27738e-41
2.27805e-41
2.27877e-41
2.27954e-41
2.28035e-41
2.28121e-41
2.28211e-41
2.28307e-41
2.28407e-41
2.28511e-41
2.28621e-41
2.28735e-41
2.28853e-41
2.28977e-41
2.29105e-41
2.29237e-41
2.29374e-41
2.29516e-41
2.29663e-41
2.29813e-41
2.29969e-41
2.30129e-41
2.30293e-41
2.30462e-41
2.30636e-41
2.30813e-41
2.30995e-41
2.31182e-41
2.31372e-41
2.31567e-41
2.31767e-41
2.3197e-41
2.32177e-41
2.32389e-41
2.32604e-41
2.32824e-41
2.33047e-41
2.33274e-41
2.33505e-41
2.3374e-41
2.33978e-41
2.3422e-41
2.34465e-41
2.34713e-41
2.34965e-41
2.3522e-41
2.35478e-41
2.35738e-41
2.36002e-41
2.36269e-41
2.36538e-41
2.36809e-41
2.37083e-41
2.37359e-41
2.37638e-41
2.37918e-41
2.382e-41
2.38483e-41
2.38768e-41
2.39055e-41
2.39343e-41
2.39631e-41
2.39921e-41
2.40211e-41
2.40501e-41
2.40792e-41
2.41083e-41
2.41374e-41
2.41664e-41
2.41954e-41
2.42243e-41
2.42532e-41
2.42819e-41
2.43104e-41
2.43388e-41
2.4367e-41
2.43951e-41
2.44228e-41
2.44504e-41
2.44776e-41
2.45046e-41
2.45312e-41
2.45574e-41
2.45833e-41
2.46088e-41
2.46339e-41
2.46585e-41
2.46827e-41
2.47064e-41
2.47295e-41
2.47521e-41
2.47741e-41
2.47956e-41
2.48164e-41
2.48366e-41
2.48561e-41
2.4875e-41
2.48932e-41
2.49106e-41
2.49273e-41
2.49432e-41
2.49584e-41
2.49728e-41
2.49863e-41
2.49991e-41
2.5011e-41
2.5022e-41
2.50322e-41
2.50417e-41
2.5051e-41
2.50622e-41
2.50805e-41
2.50969e-41
2.50831e-41
2.50805e-41
2.50817e-41
2.50833e-41
2.50843e-41
2.50844e-41
2.50836e-41
2.50819e-41
2.50793e-41
2.50757e-41
2.50713e-41
2.50659e-41
2.50597e-41
2.50526e-41
2.50446e-41
2.50358e-41
2.50262e-41
2.50157e-41
2.50045e-41
2.49925e-41
2.49798e-41
2.49664e-41
2.49522e-41
2.49374e-41
2.4922e-41
2.4906e-41
2.48893e-41
2.48722e-41
2.48545e-41
2.48363e-41
2.48177e-41
2.47986e-41
2.47792e-41
2.47595e-41
2.47394e-41
2.4719e-41
2.46984e-41
2.46776e-41
2.46567e-41
2.46356e-41
2.46144e-41
2.45932e-41
2.45719e-41
2.45507e-41
2.45295e-41
2.45083e-41
2.44873e-41
2.44665e-41
2.44458e-41
2.44253e-41
2.44051e-41
2.43851e-41
2.43654e-41
2.43461e-41
2.4327e-41
2.43083e-41
2.42901e-41
2.42722e-41
2.42547e-41
2.42376e-41
2.4221e-41
2.42048e-41
2.41891e-41
2.41739e-41
2.41591e-41
2.41448e-41
2.4131e-41
2.41177e-41
2.41048e-41
2.40924e-41
2.40804e-41
2.40689e-41
2.40578e-41
2.40472e-41
2.40369e-41
2.40271e-41
2.40176e-41
2.40085e-41
2.39997e-41
2.39912e-41
2.3983e-41
2.39751e-41
2.39674e-41
2.396e-41
2.39527e-41
2.39456e-41
2.39387e-41
2.39318e-41
2.39251e-41
2.39184e-41
2.39118e-41
2.39051e-41
2.38985e-41
2.38919e-41
2.38851e-41
2.38783e-41
2.38715e-41
2.38645e-41
2.38573e-41
2.38501e-41
2.38426e-41
2.3835e-41
2.38273e-41
2.38195e-41
2.38128e-41
2.38127e-41
2.38495e-41
2.40888e-41
2.54315e-41
3.27773e-41
7.27814e-41
2.90741e-40
1.48138e-39
8.0134e-39
4.40592e-38
2.44427e-37
1.36772e-36
7.72437e-36
4.405e-35
2.5366e-34
1.4742e-33
8.63778e-33
5.09472e-32
3.01888e-31
1.79286e-30
9.78079e-30
5.86459e-29
3.51361e-28
2.10977e-27
1.26863e-26
7.63296e-26
4.59202e-25
2.76064e-24
1.65768e-23
9.93841e-23
5.94768e-22
3.5524e-21
2.11743e-20
1.25953e-19
7.47752e-19
4.43111e-18
2.62153e-17
1.54874e-16
9.13886e-16
5.38778e-15
3.1743e-14
1.86948e-13
1.16294e-12
7.98056e-12
6.25589e-11
4.74464e-10
3.43085e-09
2.48249e-08
1.79052e-07
1.27422e-06
8.49351e-06
4.60095e-05
0.000168162
0.000388409
0.000689491
0.000989441
0.00122915
0.00134903
0.00135336
0.00128172
0.00117171
0.00104803
0.000924636
0.000808631
0.000703221
0.000609456
0.000527238
0.00045589
0.000394464
0.00034192
0.000297221
0.000259381
0.000227489
0.000200721
0.00017834
0.000159697
0.000144221
0.000131417
0.000120857
0.000112175
0.000105058
9.94116e-05
9.48809e-05
9.11419e-05
8.80662e-05
8.55443e-05
8.34833e-05
8.18044e-05
8.04413e-05
7.93384e-05
7.84489e-05
7.7734e-05
7.71612e-05
7.6704e-05
7.63402e-05
7.60517e-05
7.58237e-05
7.5644e-05
7.5503e-05
7.53926e-05
7.53065e-05
7.52395e-05
7.51875e-05
7.51473e-05
7.51163e-05
7.50925e-05
7.50742e-05
7.50602e-05
7.50495e-05
7.50413e-05
7.5035e-05
7.50302e-05
7.50265e-05
7.50237e-05
7.50215e-05
7.50198e-05
7.50184e-05
7.50174e-05
7.50165e-05
7.50158e-05
7.50152e-05
7.50147e-05
7.50143e-05
7.50139e-05
7.50135e-05
7.50132e-05
7.50129e-05
7.50126e-05
7.50123e-05
7.5012e-05
7.50117e-05
7.50115e-05
7.50112e-05
7.5011e-05
7.50107e-05
7.50105e-05
7.50103e-05
7.50101e-05
7.50099e-05
7.50097e-05
7.50096e-05
7.50095e-05
7.50094e-05
7.50096e-05
7.50103e-05
7.50091e-05
7.50084e-05
7.50081e-05
7.5008e-05
7.50079e-05
7.50078e-05
7.50077e-05
7.50077e-05
7.50076e-05
7.50075e-05
7.50074e-05
7.50074e-05
7.50073e-05
7.50072e-05
7.50072e-05
7.50072e-05
7.50071e-05
7.5007e-05
7.5007e-05
7.5007e-05
7.50069e-05
7.50069e-05
7.50069e-05
7.50068e-05
7.50068e-05
7.50068e-05
7.50068e-05
7.50068e-05
7.50067e-05
7.50067e-05
7.50067e-05
7.50067e-05
7.50067e-05
7.50067e-05
7.50067e-05
7.50068e-05
7.50068e-05
7.50068e-05
7.50068e-05
7.50069e-05
7.50069e-05
7.5007e-05
7.5007e-05
7.50071e-05
7.50072e-05
7.50072e-05
7.50073e-05
7.50074e-05
7.50075e-05
7.50076e-05
7.50077e-05
7.50078e-05
7.50079e-05
7.5008e-05
7.50081e-05
7.50082e-05
7.50084e-05
7.50085e-05
7.50086e-05
7.50088e-05
7.50089e-05
7.5009e-05
7.50092e-05
7.50093e-05
7.50095e-05
7.50096e-05
7.50098e-05
7.50099e-05
7.50101e-05
7.50102e-05
7.50104e-05
7.50105e-05
7.50107e-05
7.50108e-05
7.5011e-05
7.50111e-05
7.50113e-05
7.50114e-05
7.50115e-05
7.50116e-05
7.50117e-05
7.50118e-05
7.50119e-05
7.5012e-05
7.50121e-05
7.50121e-05
7.50122e-05
7.50123e-05
7.50123e-05
7.50123e-05
7.50123e-05
7.50123e-05
7.50123e-05
7.50123e-05
7.50123e-05
7.50122e-05
7.50121e-05
7.50121e-05
7.5012e-05
7.50119e-05
7.50117e-05
7.50116e-05
7.50114e-05
7.50113e-05
7.50111e-05
7.50108e-05
7.50106e-05
7.50104e-05
7.50101e-05
7.50098e-05
7.50095e-05
7.50092e-05
7.50089e-05
7.50085e-05
7.50081e-05
7.50077e-05
7.50073e-05
7.50068e-05
7.50064e-05
7.50059e-05
7.50054e-05
7.5005e-05
7.50046e-05
7.50043e-05
)
;

boundaryField
{
    boundary
    {
        type            empty;
    }
    inlet
    {
        type            fixedValue;
        value           uniform 0;
    }
    outlet
    {
        type            zeroGradient;
    }
}


// ************************************************************************* //
