/*--------------------------------*- C++ -*----------------------------------*\
  =========                 |
  \\      /  F ield         | OpenFOAM: The Open Source CFD Toolbox
   \\    /   O peration     | Website:  https://openfoam.org
    \\  /    A nd           | Version:  7
     \\/     M anipulation  |
\*---------------------------------------------------------------------------*/
FoamFile
{
    version     2.0;
    format      ascii;
    class       volScalarField;
    location    "2e-05";
    object      H2O;
}
// * * * * * * * * * * * * * * * * * * * * * * * * * * * * * * * * * * * * * //

dimensions      [0 0 0 0 0 0 0];

internalField   nonuniform List<scalar> 
500
(
4.2736e-48
8.80506e-48
1.15607e-47
1.29325e-47
1.35225e-47
1.3749e-47
1.38286e-47
1.38548e-47
1.38631e-47
1.38658e-47
1.3867e-47
1.38678e-47
1.38685e-47
1.38692e-47
1.387e-47
1.38708e-47
1.38717e-47
1.38727e-47
1.38737e-47
1.38747e-47
1.38758e-47
1.3877e-47
1.38782e-47
1.38795e-47
1.38809e-47
1.38823e-47
1.38838e-47
1.38853e-47
1.38869e-47
1.38886e-47
1.38903e-47
1.38921e-47
1.3894e-47
1.38959e-47
1.38979e-47
1.38999e-47
1.3902e-47
1.39042e-47
1.39065e-47
1.39088e-47
1.39112e-47
1.39137e-47
1.39162e-47
1.39188e-47
1.39215e-47
1.39242e-47
1.39271e-47
1.393e-47
1.39329e-47
1.3936e-47
1.39391e-47
1.39423e-47
1.39456e-47
1.3949e-47
1.39524e-47
1.39559e-47
1.39595e-47
1.39632e-47
1.3967e-47
1.39708e-47
1.39748e-47
1.39788e-47
1.39829e-47
1.39871e-47
1.39914e-47
1.39957e-47
1.40002e-47
1.40047e-47
1.40093e-47
1.4014e-47
1.40188e-47
1.40237e-47
1.40287e-47
1.40338e-47
1.4039e-47
1.40442e-47
1.40496e-47
1.4055e-47
1.40606e-47
1.40662e-47
1.40719e-47
1.40777e-47
1.40837e-47
1.40897e-47
1.40958e-47
1.4102e-47
1.41083e-47
1.41146e-47
1.41211e-47
1.41277e-47
1.41344e-47
1.41411e-47
1.4148e-47
1.41549e-47
1.4162e-47
1.41691e-47
1.41763e-47
1.41836e-47
1.4191e-47
1.41985e-47
1.42061e-47
1.42138e-47
1.42216e-47
1.42294e-47
1.42374e-47
1.42454e-47
1.42535e-47
1.42617e-47
1.427e-47
1.42783e-47
1.42868e-47
1.42953e-47
1.43039e-47
1.43126e-47
1.43213e-47
1.43302e-47
1.43391e-47
1.4348e-47
1.43571e-47
1.43661e-47
1.43748e-47
1.43815e-47
1.43753e-47
1.42971e-47
1.38473e-47
1.33284e-47
1.38756e-47
1.41733e-47
1.4335e-47
1.4416e-47
1.44549e-47
1.44752e-47
1.44885e-47
1.44994e-47
1.45096e-47
1.45196e-47
1.45296e-47
1.45396e-47
1.45497e-47
1.45597e-47
1.45698e-47
1.45799e-47
1.459e-47
1.46001e-47
1.46103e-47
1.46204e-47
1.46305e-47
1.46407e-47
1.46508e-47
1.4661e-47
1.46711e-47
1.46812e-47
1.46913e-47
1.47014e-47
1.47115e-47
1.47215e-47
1.47315e-47
1.47415e-47
1.47514e-47
1.47613e-47
1.47712e-47
1.4781e-47
1.47908e-47
1.48005e-47
1.48101e-47
1.48197e-47
1.48292e-47
1.48387e-47
1.4848e-47
1.48573e-47
1.48665e-47
1.48757e-47
1.48847e-47
1.48936e-47
1.49024e-47
1.49112e-47
1.49198e-47
1.49283e-47
1.49366e-47
1.49449e-47
1.4953e-47
1.4961e-47
1.49688e-47
1.49765e-47
1.49841e-47
1.49915e-47
1.49987e-47
1.50058e-47
1.50127e-47
1.50194e-47
1.50259e-47
1.50323e-47
1.50385e-47
1.50444e-47
1.50502e-47
1.50558e-47
1.50611e-47
1.50663e-47
1.50712e-47
1.50759e-47
1.50803e-47
1.50846e-47
1.50885e-47
1.50923e-47
1.50958e-47
1.5099e-47
1.5102e-47
1.51047e-47
1.51071e-47
1.51093e-47
1.51112e-47
1.51128e-47
1.51142e-47
1.51152e-47
1.5116e-47
1.51164e-47
1.51166e-47
1.51165e-47
1.5116e-47
1.51152e-47
1.51142e-47
1.51128e-47
1.51111e-47
1.51091e-47
1.51067e-47
1.5104e-47
1.5101e-47
1.50976e-47
1.50939e-47
1.50899e-47
1.50857e-47
1.50821e-47
1.50844e-47
1.51267e-47
1.54315e-47
1.7442e-47
3.05147e-47
1.15206e-46
6.62698e-46
4.19462e-45
2.69293e-44
1.72951e-43
1.10892e-42
7.09732e-42
4.53315e-41
2.88521e-40
1.82214e-39
1.13204e-38
6.82588e-38
3.93414e-37
2.15241e-36
1.53195e-35
1.03671e-34
8.73245e-34
9.64335e-33
1.29088e-31
1.89882e-30
2.90041e-29
4.49008e-28
6.97445e-27
1.08165e-25
1.66929e-24
2.556e-23
3.87184e-22
5.78557e-21
8.50356e-20
1.22591e-18
1.72877e-17
2.37843e-16
3.18428e-15
4.13824e-14
5.20751e-13
6.32934e-12
7.40545e-11
8.31954e-10
8.94548e-09
9.1673e-08
8.90202e-07
8.12227e-06
6.86566e-05
0.000520765
0.00321735
0.0131402
0.0325033
0.0568043
0.0899271
0.122088
0.153039
0.177487
0.194409
0.205546
0.212959
0.218137
0.221988
0.225021
0.227515
0.229616
0.231406
0.232931
0.234225
0.235316
0.236226
0.236981
0.237601
0.238108
0.23852
0.238853
0.239122
0.239339
0.239512
0.239651
0.239762
0.239848
0.239916
0.239971
0.240015
0.240051
0.24008
0.240103
0.240121
0.240136
0.240148
0.240157
0.240165
0.240171
0.240175
0.240179
0.240182
0.240184
0.240186
0.240187
0.240188
0.240189
0.24019
0.24019
0.24019
0.240191
0.240191
0.240191
0.240191
0.240191
0.240191
0.240191
0.240191
0.240191
0.240191
0.240191
0.240191
0.240191
0.240191
0.240191
0.240191
0.240191
0.240191
0.240191
0.240191
0.240191
0.240191
0.240191
0.240191
0.240191
0.240191
0.240191
0.240191
0.240191
0.240191
0.240191
0.240191
0.240191
0.240191
0.240191
0.240191
0.240191
0.240191
0.240191
0.240191
0.240191
0.240191
0.240191
0.240191
0.240191
0.240191
0.240191
0.240191
0.240191
0.240191
0.240191
0.240191
0.240191
0.240191
0.240191
0.240191
0.240191
0.240191
0.240191
0.240191
0.240191
0.240191
0.240191
0.240191
0.240191
0.240191
0.240191
0.240191
0.240191
0.240191
0.240191
0.240191
0.240191
0.240191
0.240191
0.240191
0.240191
0.240191
0.240191
0.240191
0.240191
0.240191
0.240191
0.240191
0.240191
0.240191
0.240191
0.240191
0.240191
0.240191
0.240191
0.240191
0.240191
0.240191
0.240191
0.240191
0.240191
0.240191
0.240191
0.240191
0.240191
0.240191
0.240191
0.240191
0.240191
0.240191
0.240191
0.240191
0.240191
0.240191
0.240191
0.240191
0.240191
0.240191
0.240191
0.240191
0.240191
0.240191
0.240191
0.240191
0.240191
0.240191
0.240191
0.240191
0.240191
0.240191
0.240191
0.240191
0.240191
0.240191
0.240191
0.240191
0.240191
0.240191
0.240191
0.240191
0.240191
0.240191
0.240191
0.240191
0.240191
0.240191
0.240191
0.240191
0.240191
0.240191
0.240191
0.240191
0.240191
0.240191
0.240191
0.240191
0.240191
0.240191
0.240191
0.240191
0.240191
0.240191
0.240191
0.240191
0.240191
0.240191
0.240191
0.240191
)
;

boundaryField
{
    boundary
    {
        type            empty;
    }
    inlet
    {
        type            fixedValue;
        value           uniform 0;
    }
    outlet
    {
        type            zeroGradient;
    }
}


// ************************************************************************* //
