/*--------------------------------*- C++ -*----------------------------------*\
  =========                 |
  \\      /  F ield         | OpenFOAM: The Open Source CFD Toolbox
   \\    /   O peration     | Website:  https://openfoam.org
    \\  /    A nd           | Version:  7
     \\/     M anipulation  |
\*---------------------------------------------------------------------------*/
FoamFile
{
    version     2.0;
    format      ascii;
    class       volScalarField;
    location    "2e-05";
    object      H2O2;
}
// * * * * * * * * * * * * * * * * * * * * * * * * * * * * * * * * * * * * * //

dimensions      [0 0 0 0 0 0 0];

internalField   nonuniform List<scalar> 
500
(
7.85086e-53
1.61788e-52
2.11985e-52
2.36452e-52
2.46676e-52
2.50471e-52
2.51756e-52
2.52164e-52
2.52293e-52
2.52338e-52
2.52362e-52
2.5238e-52
2.52399e-52
2.52419e-52
2.5244e-52
2.52463e-52
2.52487e-52
2.52513e-52
2.52541e-52
2.5257e-52
2.526e-52
2.52633e-52
2.52666e-52
2.52702e-52
2.52739e-52
2.52778e-52
2.52818e-52
2.5286e-52
2.52904e-52
2.52949e-52
2.52996e-52
2.53045e-52
2.53095e-52
2.53148e-52
2.53201e-52
2.53257e-52
2.53315e-52
2.53374e-52
2.53435e-52
2.53498e-52
2.53562e-52
2.53629e-52
2.53697e-52
2.53767e-52
2.53839e-52
2.53913e-52
2.53988e-52
2.54066e-52
2.54145e-52
2.54227e-52
2.5431e-52
2.54396e-52
2.54483e-52
2.54572e-52
2.54663e-52
2.54757e-52
2.54852e-52
2.54949e-52
2.55048e-52
2.55149e-52
2.55253e-52
2.55358e-52
2.55465e-52
2.55575e-52
2.55686e-52
2.558e-52
2.55915e-52
2.56033e-52
2.56153e-52
2.56275e-52
2.56399e-52
2.56525e-52
2.56653e-52
2.56783e-52
2.56915e-52
2.57049e-52
2.57186e-52
2.57324e-52
2.57465e-52
2.57607e-52
2.57752e-52
2.57898e-52
2.58047e-52
2.58197e-52
2.5835e-52
2.58505e-52
2.58661e-52
2.5882e-52
2.5898e-52
2.59142e-52
2.59307e-52
2.59473e-52
2.59641e-52
2.59811e-52
2.59982e-52
2.60155e-52
2.6033e-52
2.60507e-52
2.60686e-52
2.60866e-52
2.61047e-52
2.61231e-52
2.61415e-52
2.61602e-52
2.6179e-52
2.61979e-52
2.62169e-52
2.62361e-52
2.62554e-52
2.62749e-52
2.62944e-52
2.63141e-52
2.63339e-52
2.63538e-52
2.63738e-52
2.63939e-52
2.6414e-52
2.64343e-52
2.64546e-52
2.6475e-52
2.64952e-52
2.6514e-52
2.65222e-52
2.64567e-52
2.58642e-52
2.5163e-52
2.60427e-52
2.63658e-52
2.65359e-52
2.66317e-52
2.6685e-52
2.6718e-52
2.67428e-52
2.67649e-52
2.6786e-52
2.68069e-52
2.68276e-52
2.68484e-52
2.6869e-52
2.68897e-52
2.69102e-52
2.69307e-52
2.69512e-52
2.69715e-52
2.69918e-52
2.7012e-52
2.7032e-52
2.7052e-52
2.70719e-52
2.70916e-52
2.71113e-52
2.71308e-52
2.71501e-52
2.71694e-52
2.71884e-52
2.72074e-52
2.72261e-52
2.72447e-52
2.72632e-52
2.72814e-52
2.72994e-52
2.73173e-52
2.7335e-52
2.73524e-52
2.73697e-52
2.73867e-52
2.74035e-52
2.74201e-52
2.74364e-52
2.74525e-52
2.74683e-52
2.74839e-52
2.74992e-52
2.75142e-52
2.7529e-52
2.75435e-52
2.75576e-52
2.75715e-52
2.75851e-52
2.75984e-52
2.76113e-52
2.76239e-52
2.76362e-52
2.76481e-52
2.76597e-52
2.7671e-52
2.76818e-52
2.76923e-52
2.77024e-52
2.77122e-52
2.77215e-52
2.77305e-52
2.7739e-52
2.77471e-52
2.77548e-52
2.77621e-52
2.77689e-52
2.77753e-52
2.77813e-52
2.77867e-52
2.77917e-52
2.77963e-52
2.78004e-52
2.78039e-52
2.7807e-52
2.78096e-52
2.78117e-52
2.78133e-52
2.78143e-52
2.78149e-52
2.78149e-52
2.78144e-52
2.78133e-52
2.78117e-52
2.78096e-52
2.78069e-52
2.78036e-52
2.77998e-52
2.77954e-52
2.77905e-52
2.77849e-52
2.77788e-52
2.77722e-52
2.77649e-52
2.77571e-52
2.77487e-52
2.77396e-52
2.773e-52
2.77198e-52
2.7709e-52
2.76977e-52
2.76863e-52
2.76777e-52
2.76907e-52
2.78463e-52
2.89267e-52
3.59802e-52
8.15479e-52
3.75072e-51
2.2621e-50
1.43695e-49
9.18944e-49
5.87453e-48
3.7528e-47
2.39899e-46
1.53722e-45
9.87326e-45
6.31922e-44
3.96495e-43
2.37183e-42
1.31705e-41
9.28924e-41
7.06221e-40
8.08235e-39
1.33535e-37
2.58357e-36
5.20559e-35
1.05181e-33
2.10988e-32
4.19191e-31
8.24681e-30
1.60706e-28
3.1037e-27
5.94395e-26
1.12931e-24
2.12905e-23
3.98224e-22
7.38496e-21
1.35609e-19
2.46091e-18
4.40161e-17
7.73353e-16
1.3294e-14
2.22555e-13
3.60919e-12
5.63482e-11
8.40494e-10
1.18501e-08
1.54845e-07
1.78654e-06
1.5769e-05
7.04209e-05
0.000102693
8.65916e-05
4.34276e-05
1.556e-05
7.00732e-06
4.45817e-06
4.00056e-06
3.97738e-06
3.75819e-06
3.28018e-06
2.69464e-06
2.13908e-06
1.6769e-06
1.31812e-06
1.04897e-06
8.49669e-07
7.02061e-07
5.91822e-07
5.08409e-07
4.44337e-07
3.94375e-07
3.54885e-07
3.23322e-07
2.97882e-07
2.7726e-07
2.60488e-07
2.46831e-07
2.35712e-07
2.26673e-07
2.19341e-07
2.13587e-07
2.08996e-07
2.05247e-07
2.02195e-07
1.99719e-07
1.97716e-07
1.96102e-07
1.94805e-07
1.93766e-07
1.92936e-07
1.92275e-07
1.9175e-07
1.91334e-07
1.91005e-07
1.90746e-07
1.90542e-07
1.90382e-07
1.90256e-07
1.90157e-07
1.90079e-07
1.90017e-07
1.89969e-07
1.8993e-07
1.899e-07
1.89875e-07
1.89854e-07
1.89838e-07
1.89823e-07
1.89811e-07
1.89801e-07
1.89792e-07
1.89784e-07
1.89776e-07
1.89769e-07
1.89763e-07
1.89756e-07
1.8975e-07
1.89745e-07
1.89739e-07
1.89734e-07
1.89728e-07
1.89723e-07
1.89718e-07
1.89713e-07
1.89708e-07
1.89703e-07
1.89699e-07
1.89694e-07
1.89689e-07
1.89685e-07
1.8968e-07
1.89676e-07
1.89671e-07
1.89667e-07
1.89663e-07
1.89659e-07
1.89655e-07
1.8965e-07
1.89646e-07
1.89643e-07
1.89639e-07
1.89636e-07
1.89636e-07
1.89646e-07
1.89645e-07
1.89627e-07
1.89619e-07
1.89614e-07
1.89611e-07
1.89607e-07
1.89604e-07
1.89601e-07
1.89597e-07
1.89594e-07
1.89591e-07
1.89588e-07
1.89585e-07
1.89581e-07
1.89578e-07
1.89575e-07
1.89572e-07
1.8957e-07
1.89567e-07
1.89564e-07
1.89561e-07
1.89558e-07
1.89556e-07
1.89553e-07
1.8955e-07
1.89548e-07
1.89545e-07
1.89542e-07
1.8954e-07
1.89537e-07
1.89535e-07
1.89533e-07
1.8953e-07
1.89528e-07
1.89526e-07
1.89523e-07
1.89521e-07
1.89519e-07
1.89517e-07
1.89515e-07
1.89513e-07
1.8951e-07
1.89508e-07
1.89506e-07
1.89505e-07
1.89503e-07
1.89501e-07
1.89499e-07
1.89497e-07
1.89495e-07
1.89493e-07
1.89492e-07
1.8949e-07
1.89488e-07
1.89487e-07
1.89485e-07
1.89483e-07
1.89482e-07
1.8948e-07
1.89478e-07
1.89477e-07
1.89475e-07
1.89474e-07
1.89472e-07
1.89471e-07
1.89469e-07
1.89467e-07
1.89466e-07
1.89464e-07
1.89463e-07
1.89461e-07
1.89459e-07
1.89457e-07
1.89456e-07
1.89454e-07
1.89452e-07
1.8945e-07
1.89449e-07
1.89447e-07
1.89445e-07
1.89443e-07
1.89441e-07
1.89439e-07
1.89437e-07
1.89434e-07
1.89432e-07
1.8943e-07
1.89427e-07
1.89425e-07
1.89422e-07
1.8942e-07
1.89417e-07
1.89414e-07
1.89411e-07
1.89409e-07
1.89406e-07
1.89403e-07
1.89399e-07
1.89396e-07
1.89393e-07
1.89389e-07
1.89386e-07
1.89382e-07
1.89379e-07
1.89375e-07
1.89371e-07
1.89367e-07
1.89363e-07
1.89359e-07
1.89355e-07
1.89351e-07
1.89347e-07
1.89342e-07
1.89338e-07
1.89334e-07
1.89329e-07
1.89324e-07
1.8932e-07
1.89315e-07
1.8931e-07
1.89305e-07
1.893e-07
1.89295e-07
1.89291e-07
)
;

boundaryField
{
    boundary
    {
        type            empty;
    }
    inlet
    {
        type            fixedValue;
        value           uniform 0;
    }
    outlet
    {
        type            zeroGradient;
    }
}


// ************************************************************************* //
