/*--------------------------------*- C++ -*----------------------------------*\
  =========                 |
  \\      /  F ield         | OpenFOAM: The Open Source CFD Toolbox
   \\    /   O peration     | Website:  https://openfoam.org
    \\  /    A nd           | Version:  7
     \\/     M anipulation  |
\*---------------------------------------------------------------------------*/
FoamFile
{
    version     2.0;
    format      ascii;
    class       volScalarField;
    location    "2e-05";
    object      HO2;
}
// * * * * * * * * * * * * * * * * * * * * * * * * * * * * * * * * * * * * * //

dimensions      [0 0 0 0 0 0 0];

internalField   nonuniform List<scalar> 
500
(
4.06212e-38
7.28639e-38
8.96211e-38
9.70906e-38
1.00032e-37
1.0108e-37
1.01425e-37
1.01532e-37
1.01566e-37
1.01579e-37
1.01586e-37
1.01592e-37
1.01599e-37
1.01606e-37
1.01613e-37
1.01621e-37
1.01629e-37
1.01638e-37
1.01647e-37
1.01657e-37
1.01667e-37
1.01678e-37
1.0169e-37
1.01702e-37
1.01715e-37
1.01728e-37
1.01742e-37
1.01756e-37
1.01771e-37
1.01786e-37
1.01802e-37
1.01819e-37
1.01836e-37
1.01854e-37
1.01872e-37
1.01891e-37
1.01911e-37
1.01931e-37
1.01951e-37
1.01973e-37
1.01995e-37
1.02017e-37
1.0204e-37
1.02064e-37
1.02089e-37
1.02114e-37
1.02139e-37
1.02166e-37
1.02193e-37
1.0222e-37
1.02248e-37
1.02277e-37
1.02307e-37
1.02337e-37
1.02368e-37
1.02399e-37
1.02432e-37
1.02464e-37
1.02498e-37
1.02532e-37
1.02567e-37
1.02602e-37
1.02639e-37
1.02675e-37
1.02713e-37
1.02751e-37
1.0279e-37
1.02829e-37
1.0287e-37
1.02911e-37
1.02952e-37
1.02994e-37
1.03037e-37
1.03081e-37
1.03125e-37
1.0317e-37
1.03215e-37
1.03261e-37
1.03308e-37
1.03356e-37
1.03404e-37
1.03453e-37
1.03502e-37
1.03552e-37
1.03602e-37
1.03654e-37
1.03705e-37
1.03758e-37
1.03811e-37
1.03864e-37
1.03918e-37
1.03973e-37
1.04028e-37
1.04084e-37
1.0414e-37
1.04197e-37
1.04254e-37
1.04312e-37
1.0437e-37
1.04429e-37
1.04488e-37
1.04547e-37
1.04607e-37
1.04668e-37
1.04728e-37
1.04789e-37
1.04851e-37
1.04913e-37
1.04975e-37
1.05037e-37
1.05099e-37
1.05162e-37
1.05225e-37
1.05289e-37
1.05352e-37
1.05416e-37
1.0548e-37
1.05544e-37
1.05608e-37
1.05672e-37
1.05735e-37
1.05794e-37
1.05824e-37
1.05644e-37
1.03999e-37
1.02018e-37
1.0451e-37
1.05485e-37
1.05951e-37
1.06197e-37
1.06336e-37
1.06427e-37
1.065e-37
1.06565e-37
1.06629e-37
1.06692e-37
1.06754e-37
1.06816e-37
1.06877e-37
1.06939e-37
1.06999e-37
1.0706e-37
1.0712e-37
1.07179e-37
1.07238e-37
1.07297e-37
1.07355e-37
1.07412e-37
1.07469e-37
1.07526e-37
1.07581e-37
1.07636e-37
1.07691e-37
1.07745e-37
1.07798e-37
1.0785e-37
1.07902e-37
1.07953e-37
1.08003e-37
1.08053e-37
1.08102e-37
1.0815e-37
1.08197e-37
1.08243e-37
1.08288e-37
1.08333e-37
1.08376e-37
1.08419e-37
1.08461e-37
1.08502e-37
1.08542e-37
1.08581e-37
1.08619e-37
1.08656e-37
1.08691e-37
1.08726e-37
1.0876e-37
1.08793e-37
1.08825e-37
1.08855e-37
1.08885e-37
1.08913e-37
1.0894e-37
1.08966e-37
1.08991e-37
1.09015e-37
1.09038e-37
1.09059e-37
1.09079e-37
1.09098e-37
1.09115e-37
1.09132e-37
1.09147e-37
1.09161e-37
1.09173e-37
1.09184e-37
1.09194e-37
1.09202e-37
1.09209e-37
1.09215e-37
1.09219e-37
1.09222e-37
1.09223e-37
1.09223e-37
1.09222e-37
1.09219e-37
1.09214e-37
1.09208e-37
1.09201e-37
1.09192e-37
1.09182e-37
1.0917e-37
1.09157e-37
1.09142e-37
1.09125e-37
1.09107e-37
1.09088e-37
1.09067e-37
1.09044e-37
1.0902e-37
1.08994e-37
1.08967e-37
1.08938e-37
1.08907e-37
1.08875e-37
1.08841e-37
1.08806e-37
1.08769e-37
1.08731e-37
1.08691e-37
1.0865e-37
1.0861e-37
1.08589e-37
1.08688e-37
1.09547e-37
1.15162e-37
1.50454e-37
3.70942e-37
1.74686e-36
1.03282e-35
6.38114e-35
3.96861e-34
2.46913e-33
1.53584e-32
9.55744e-32
5.95591e-31
3.71551e-30
2.30963e-29
1.41301e-28
8.33675e-28
4.65156e-27
2.74487e-26
1.48077e-25
7.87504e-25
4.18476e-24
2.22539e-23
1.18477e-22
6.31582e-22
3.37071e-21
1.79997e-20
9.613e-20
5.13539e-19
2.74492e-18
1.46832e-17
7.86157e-17
4.21561e-16
2.26874e-15
1.23075e-14
6.78131e-14
3.83785e-13
2.26048e-12
1.40182e-11
9.22392e-11
6.35008e-10
4.45225e-09
3.05042e-08
2.04971e-07
1.35488e-06
8.44815e-06
4.64927e-05
0.000196358
0.000476677
0.000515293
0.000439481
0.000318384
0.000197877
0.000124583
7.43803e-05
4.29397e-05
2.4722e-05
1.45848e-05
8.98417e-06
5.85229e-06
4.06654e-06
3.02889e-06
2.41766e-06
2.05565e-06
1.84232e-06
1.71903e-06
1.65078e-06
1.61628e-06
1.60239e-06
1.60089e-06
1.60655e-06
1.61604e-06
1.62723e-06
1.63876e-06
1.64983e-06
1.65996e-06
1.66894e-06
1.67671e-06
1.68329e-06
1.68862e-06
1.69295e-06
1.69654e-06
1.69949e-06
1.7019e-06
1.70384e-06
1.70542e-06
1.70668e-06
1.70769e-06
1.7085e-06
1.70915e-06
1.70966e-06
1.71008e-06
1.71041e-06
1.71068e-06
1.71089e-06
1.71107e-06
1.71122e-06
1.71134e-06
1.71144e-06
1.71153e-06
1.71161e-06
1.71168e-06
1.71174e-06
1.71179e-06
1.71184e-06
1.71189e-06
1.71193e-06
1.71197e-06
1.71201e-06
1.71205e-06
1.71209e-06
1.71212e-06
1.71216e-06
1.71219e-06
1.71223e-06
1.71226e-06
1.71229e-06
1.71233e-06
1.71236e-06
1.71239e-06
1.71242e-06
1.71245e-06
1.71247e-06
1.7125e-06
1.71253e-06
1.71256e-06
1.71258e-06
1.71261e-06
1.71263e-06
1.71266e-06
1.71268e-06
1.71271e-06
1.71273e-06
1.71275e-06
1.71278e-06
1.7128e-06
1.71282e-06
1.71285e-06
1.71287e-06
1.71289e-06
1.71289e-06
1.71283e-06
1.71256e-06
1.71249e-06
1.71281e-06
1.71295e-06
1.713e-06
1.71303e-06
1.71304e-06
1.71304e-06
1.71305e-06
1.71306e-06
1.71306e-06
1.71307e-06
1.71308e-06
1.71308e-06
1.71309e-06
1.7131e-06
1.71311e-06
1.71312e-06
1.71312e-06
1.71313e-06
1.71314e-06
1.71314e-06
1.71315e-06
1.71315e-06
1.71315e-06
1.71316e-06
1.71316e-06
1.71316e-06
1.71317e-06
1.71317e-06
1.71317e-06
1.71317e-06
1.71317e-06
1.71317e-06
1.71317e-06
1.71317e-06
1.71317e-06
1.71318e-06
1.71318e-06
1.71318e-06
1.71317e-06
1.71317e-06
1.71316e-06
1.71316e-06
1.71315e-06
1.71315e-06
1.71314e-06
1.71313e-06
1.71312e-06
1.71311e-06
1.7131e-06
1.71309e-06
1.71308e-06
1.71307e-06
1.71306e-06
1.71305e-06
1.71304e-06
1.71302e-06
1.71301e-06
1.713e-06
1.71297e-06
1.71295e-06
1.71294e-06
1.71292e-06
1.71291e-06
1.71289e-06
1.71287e-06
1.71286e-06
1.71284e-06
1.71283e-06
1.71281e-06
1.71279e-06
1.71277e-06
1.71276e-06
1.71274e-06
1.71272e-06
1.7127e-06
1.71269e-06
1.71267e-06
1.71265e-06
1.71264e-06
1.71263e-06
1.71261e-06
1.71259e-06
1.71258e-06
1.71257e-06
1.71255e-06
1.71254e-06
1.71253e-06
1.71252e-06
1.71251e-06
1.7125e-06
1.71249e-06
1.71248e-06
1.71248e-06
1.71247e-06
1.71247e-06
1.71247e-06
1.71246e-06
1.71246e-06
1.71246e-06
1.71246e-06
1.71246e-06
1.71247e-06
1.71247e-06
1.71248e-06
1.71249e-06
1.7125e-06
1.7125e-06
1.71252e-06
1.71253e-06
1.71254e-06
1.71256e-06
1.71258e-06
1.71259e-06
1.71261e-06
1.71263e-06
1.71266e-06
1.71269e-06
1.71271e-06
1.71274e-06
1.71277e-06
1.71281e-06
1.71284e-06
1.71287e-06
)
;

boundaryField
{
    boundary
    {
        type            empty;
    }
    inlet
    {
        type            fixedValue;
        value           uniform 0;
    }
    outlet
    {
        type            zeroGradient;
    }
}


// ************************************************************************* //
