/*--------------------------------*- C++ -*----------------------------------*\
  =========                 |
  \\      /  F ield         | OpenFOAM: The Open Source CFD Toolbox
   \\    /   O peration     | Website:  https://openfoam.org
    \\  /    A nd           | Version:  7
     \\/     M anipulation  |
\*---------------------------------------------------------------------------*/
FoamFile
{
    version     2.0;
    format      ascii;
    class       volScalarField;
    location    "2e-05";
    object      O;
}
// * * * * * * * * * * * * * * * * * * * * * * * * * * * * * * * * * * * * * //

dimensions      [0 0 0 0 0 0 0];

internalField   nonuniform List<scalar> 
500
(
1.13216e-47
2.14721e-47
2.7091e-47
2.97868e-47
3.09381e-47
3.1385e-47
3.15456e-47
3.16002e-47
3.16185e-47
3.16253e-47
3.16288e-47
3.16313e-47
3.16338e-47
3.16364e-47
3.16392e-47
3.16422e-47
3.16454e-47
3.16488e-47
3.16524e-47
3.16562e-47
3.16602e-47
3.16644e-47
3.16688e-47
3.16735e-47
3.16783e-47
3.16834e-47
3.16887e-47
3.16942e-47
3.16999e-47
3.17058e-47
3.1712e-47
3.17184e-47
3.1725e-47
3.17318e-47
3.17389e-47
3.17462e-47
3.17537e-47
3.17614e-47
3.17694e-47
3.17777e-47
3.17861e-47
3.17948e-47
3.18038e-47
3.1813e-47
3.18224e-47
3.18321e-47
3.1842e-47
3.18522e-47
3.18626e-47
3.18733e-47
3.18843e-47
3.18954e-47
3.19069e-47
3.19186e-47
3.19306e-47
3.19428e-47
3.19553e-47
3.1968e-47
3.19811e-47
3.19943e-47
3.20079e-47
3.20217e-47
3.20358e-47
3.20501e-47
3.20648e-47
3.20797e-47
3.20948e-47
3.21103e-47
3.2126e-47
3.21419e-47
3.21582e-47
3.21747e-47
3.21915e-47
3.22085e-47
3.22258e-47
3.22434e-47
3.22613e-47
3.22794e-47
3.22978e-47
3.23164e-47
3.23353e-47
3.23545e-47
3.23739e-47
3.23936e-47
3.24135e-47
3.24337e-47
3.24541e-47
3.24748e-47
3.24957e-47
3.25168e-47
3.25382e-47
3.25598e-47
3.25816e-47
3.26037e-47
3.2626e-47
3.26485e-47
3.26711e-47
3.2694e-47
3.27171e-47
3.27404e-47
3.27639e-47
3.27875e-47
3.28114e-47
3.28354e-47
3.28595e-47
3.28839e-47
3.29083e-47
3.29329e-47
3.29577e-47
3.29825e-47
3.30075e-47
3.30326e-47
3.30578e-47
3.30831e-47
3.31085e-47
3.3134e-47
3.31595e-47
3.31851e-47
3.32108e-47
3.32363e-47
3.3261e-47
3.32818e-47
3.32867e-47
3.3236e-47
3.29291e-47
3.26877e-47
3.3011e-47
3.31732e-47
3.33228e-47
3.34289e-47
3.34945e-47
3.35366e-47
3.35681e-47
3.35955e-47
3.36214e-47
3.36468e-47
3.36719e-47
3.36969e-47
3.37218e-47
3.37465e-47
3.3771e-47
3.37954e-47
3.38197e-47
3.38437e-47
3.38676e-47
3.38912e-47
3.39147e-47
3.39379e-47
3.39609e-47
3.39837e-47
3.40063e-47
3.40285e-47
3.40506e-47
3.40723e-47
3.40938e-47
3.4115e-47
3.41359e-47
3.41565e-47
3.41768e-47
3.41968e-47
3.42165e-47
3.42358e-47
3.42548e-47
3.42734e-47
3.42917e-47
3.43096e-47
3.43272e-47
3.43444e-47
3.43612e-47
3.43775e-47
3.43935e-47
3.44091e-47
3.44243e-47
3.44391e-47
3.44534e-47
3.44673e-47
3.44808e-47
3.44938e-47
3.45063e-47
3.45184e-47
3.45301e-47
3.45412e-47
3.45519e-47
3.45621e-47
3.45718e-47
3.4581e-47
3.45897e-47
3.45978e-47
3.46055e-47
3.46126e-47
3.46192e-47
3.46253e-47
3.46308e-47
3.46358e-47
3.46402e-47
3.46441e-47
3.46474e-47
3.46502e-47
3.46523e-47
3.46539e-47
3.46549e-47
3.46553e-47
3.46551e-47
3.46543e-47
3.46529e-47
3.4651e-47
3.46484e-47
3.46451e-47
3.46413e-47
3.46368e-47
3.46318e-47
3.46261e-47
3.46197e-47
3.46127e-47
3.46051e-47
3.45969e-47
3.4588e-47
3.45785e-47
3.45683e-47
3.45575e-47
3.45461e-47
3.4534e-47
3.45213e-47
3.45079e-47
3.44938e-47
3.44791e-47
3.44638e-47
3.44478e-47
3.44312e-47
3.4414e-47
3.43968e-47
3.43829e-47
3.43941e-47
3.45691e-47
3.57938e-47
4.37254e-47
9.44698e-47
4.18286e-46
2.48219e-45
1.56229e-44
9.92012e-44
6.30294e-43
4.00234e-42
2.539e-41
1.60741e-40
1.01278e-39
6.31748e-39
3.86919e-38
2.30102e-37
1.31009e-36
6.99328e-36
4.30782e-35
2.64107e-34
1.87277e-33
1.643e-32
1.75577e-31
2.11878e-30
2.69542e-29
3.47732e-28
4.46785e-27
5.6709e-26
7.08217e-25
8.68165e-24
1.04273e-22
1.22504e-21
1.40539e-20
1.57148e-19
1.7092e-18
1.80399e-17
1.84268e-16
1.8157e-15
1.71924e-14
1.5569e-13
1.34038e-12
1.08875e-11
8.26072e-11
5.7765e-10
3.65426e-09
2.03905e-08
9.80918e-08
4.38833e-07
2.66329e-06
2.07963e-05
0.000112513
0.000424114
0.00128852
0.00226919
0.00301144
0.00332836
0.0033228
0.00313727
0.00286909
0.00257591
0.00228885
0.002023
0.00178442
0.00157441
0.00139182
0.00123438
0.00109939
0.000984122
0.000886007
0.000802732
0.000732255
0.000672802
0.00062283
0.000580993
0.000546118
0.00051718
0.00049328
0.000473634
0.000457562
0.000444862
0.00043469
0.000426349
0.000419538
0.000413998
0.000409512
0.000405892
0.000402982
0.000400651
0.000398791
0.000397312
0.00039614
0.000395215
0.000394486
0.000393915
0.000393468
0.00039312
0.00039285
0.00039264
0.000392479
0.000392354
0.000392259
0.000392186
0.000392131
0.000392088
0.000392056
0.000392032
0.000392014
0.000392
0.00039199
0.000391982
0.000391977
0.000391972
0.000391969
0.000391967
0.000391965
0.000391964
0.000391963
0.000391963
0.000391962
0.000391962
0.000391962
0.000391961
0.000391961
0.000391961
0.000391961
0.000391961
0.000391961
0.000391961
0.000391961
0.000391961
0.000391961
0.000391961
0.000391961
0.000391961
0.000391961
0.000391961
0.000391962
0.000391962
0.000391962
0.000391962
0.000391963
0.000391964
0.000391971
0.00039197
0.000391964
0.000391963
0.000391964
0.000391965
0.000391966
0.000391966
0.000391966
0.000391966
0.000391966
0.000391966
0.000391967
0.000391967
0.000391967
0.000391968
0.000391968
0.000391969
0.000391969
0.00039197
0.00039197
0.000391971
0.000391971
0.000391972
0.000391972
0.000391973
0.000391974
0.000391974
0.000391975
0.000391975
0.000391976
0.000391977
0.000391977
0.000391978
0.000391979
0.000391979
0.00039198
0.000391981
0.000391982
0.000391982
0.000391983
0.000391984
0.000391985
0.000391986
0.000391987
0.000391987
0.000391988
0.000391989
0.00039199
0.000391991
0.000391992
0.000391993
0.000391994
0.000391995
0.000391996
0.000391997
0.000391998
0.000391999
0.000392
0.000392002
0.000392003
0.000392004
0.000392005
0.000392006
0.000392007
0.000392008
0.000392009
0.00039201
0.000392011
0.000392012
0.000392013
0.000392014
0.000392015
0.000392017
0.000392018
0.000392019
0.00039202
0.000392021
0.000392021
0.000392022
0.000392023
0.000392024
0.000392024
0.000392025
0.000392026
0.000392026
0.000392027
0.000392027
0.000392028
0.000392028
0.000392028
0.000392028
0.000392028
0.000392028
0.000392028
0.000392028
0.000392028
0.000392028
0.000392028
0.000392027
0.000392027
0.000392026
0.000392026
0.000392025
0.000392024
0.000392023
0.000392022
0.000392021
0.00039202
0.000392018
0.000392017
0.000392015
0.000392014
0.000392012
0.00039201
0.000392008
0.000392006
0.000392004
0.000392001
0.000391999
0.000391996
0.000391994
0.000391991
0.000391989
0.000391988
)
;

boundaryField
{
    boundary
    {
        type            empty;
    }
    inlet
    {
        type            fixedValue;
        value           uniform 0;
    }
    outlet
    {
        type            zeroGradient;
    }
}


// ************************************************************************* //
