/*--------------------------------*- C++ -*----------------------------------*\
  =========                 |
  \\      /  F ield         | OpenFOAM: The Open Source CFD Toolbox
   \\    /   O peration     | Website:  https://openfoam.org
    \\  /    A nd           | Version:  7
     \\/     M anipulation  |
\*---------------------------------------------------------------------------*/
FoamFile
{
    version     2.0;
    format      ascii;
    class       volScalarField;
    location    "2e-05";
    object      O2;
}
// * * * * * * * * * * * * * * * * * * * * * * * * * * * * * * * * * * * * * //

dimensions      [0 0 0 0 0 0 0];

internalField   nonuniform List<scalar> 
500
(
0.226269
0.226269
0.226269
0.226269
0.226269
0.226269
0.226269
0.226269
0.226269
0.226269
0.226269
0.226269
0.226269
0.226269
0.226269
0.226269
0.226269
0.226269
0.226269
0.226269
0.226269
0.226269
0.226269
0.226269
0.226269
0.226269
0.226269
0.226269
0.226269
0.226269
0.226269
0.226269
0.226269
0.226269
0.226269
0.226269
0.226269
0.226269
0.226269
0.226269
0.226269
0.226269
0.226269
0.226269
0.226269
0.226269
0.226269
0.226269
0.226269
0.226269
0.226269
0.226269
0.226269
0.226269
0.226269
0.226269
0.226269
0.226269
0.226269
0.226269
0.226269
0.226269
0.226269
0.226269
0.226269
0.226269
0.226269
0.226269
0.226269
0.226269
0.226269
0.226269
0.226269
0.226269
0.226269
0.226269
0.226269
0.226269
0.226269
0.226269
0.226269
0.226269
0.226269
0.226269
0.226269
0.226269
0.226269
0.226269
0.226269
0.226269
0.226269
0.226269
0.226269
0.226269
0.226269
0.226269
0.226269
0.226269
0.226269
0.226269
0.226269
0.226269
0.226269
0.226269
0.226269
0.226269
0.226269
0.226269
0.226269
0.226269
0.226269
0.226269
0.226269
0.226269
0.226269
0.226269
0.226269
0.226269
0.226269
0.226269
0.226269
0.226269
0.226269
0.226269
0.226269
0.226269
0.226269
0.226269
0.226269
0.226269
0.226269
0.226269
0.226269
0.226269
0.226269
0.226269
0.226269
0.226269
0.226269
0.226269
0.226269
0.226269
0.226269
0.226269
0.226269
0.226269
0.226269
0.226269
0.226269
0.226269
0.226269
0.226269
0.226269
0.226269
0.226269
0.226269
0.226269
0.226269
0.226269
0.226269
0.226269
0.226269
0.226269
0.226269
0.226269
0.226269
0.226269
0.226269
0.226269
0.226269
0.226269
0.226269
0.226269
0.226269
0.226269
0.226269
0.226269
0.226269
0.226269
0.226269
0.226269
0.226269
0.226269
0.226269
0.226269
0.226269
0.226269
0.226269
0.226269
0.226269
0.226269
0.226269
0.226269
0.226269
0.226269
0.226269
0.226269
0.226269
0.226269
0.226269
0.226269
0.226269
0.226269
0.226269
0.226269
0.226269
0.226269
0.226269
0.226269
0.226269
0.226269
0.226269
0.226269
0.226269
0.226269
0.226269
0.226269
0.226269
0.226269
0.226269
0.226269
0.226269
0.226269
0.226269
0.226269
0.226269
0.226269
0.226269
0.226269
0.226269
0.226269
0.226269
0.226269
0.226269
0.226269
0.226269
0.226269
0.226269
0.226269
0.226269
0.226269
0.226269
0.226269
0.226269
0.226269
0.226269
0.226269
0.226269
0.226269
0.226269
0.226269
0.226269
0.226269
0.226269
0.226269
0.226269
0.226269
0.226269
0.226269
0.226269
0.226269
0.226269
0.226269
0.226269
0.226269
0.226269
0.226269
0.226269
0.226269
0.226269
0.226269
0.226269
0.226269
0.226269
0.226269
0.226269
0.226269
0.226269
0.226265
0.22621
0.225799
0.223625
0.215821
0.19945
0.178283
0.147152
0.115432
0.0837292
0.0581291
0.0402369
0.0286012
0.0212038
0.0164739
0.0133865
0.0113172
0.00989464
0.00889782
0.00819309
0.00769669
0.00735335
0.00712436
0.00698089
0.00690058
0.00686568
0.00686212
0.00687891
0.00690769
0.00694237
0.0069787
0.00701391
0.00704633
0.00707511
0.00709921
0.00711932
0.00713627
0.00715035
0.0071619
0.00717129
0.00717885
0.00718487
0.00718964
0.0071934
0.00719633
0.0071986
0.00720036
0.0072017
0.00720273
0.00720351
0.0072041
0.00720453
0.00720486
0.0072051
0.00720528
0.0072054
0.00720549
0.00720556
0.0072056
0.00720562
0.00720564
0.00720565
0.00720565
0.00720564
0.00720564
0.00720563
0.00720562
0.00720561
0.00720559
0.00720558
0.00720557
0.00720556
0.00720554
0.00720553
0.00720552
0.0072055
0.00720549
0.00720548
0.00720547
0.00720545
0.00720544
0.00720543
0.00720542
0.00720541
0.0072054
0.00720539
0.00720538
0.00720537
0.00720536
0.00720535
0.00720534
0.00720534
0.00720534
0.00720535
0.00720537
0.00720539
0.00720544
0.00720553
0.00720557
0.0072055
0.00720546
0.00720542
0.00720538
0.00720534
0.0072053
0.00720527
0.00720524
0.00720521
0.00720519
0.00720518
0.00720516
0.00720515
0.00720514
0.00720513
0.00720512
0.00720511
0.0072051
0.00720509
0.00720508
0.00720507
0.00720506
0.00720506
0.00720505
0.00720504
0.00720503
0.00720503
0.00720502
0.00720501
0.007205
0.00720499
0.00720499
0.00720498
0.00720497
0.00720496
0.00720496
0.00720495
0.00720494
0.00720494
0.00720493
0.00720492
0.00720491
0.00720491
0.0072049
0.00720489
0.00720489
0.00720488
0.00720487
0.00720487
0.00720486
0.00720485
0.00720485
0.00720484
0.00720483
0.00720483
0.00720482
0.00720481
0.00720481
0.0072048
0.00720479
0.00720479
0.00720478
0.00720478
0.00720477
0.00720477
0.00720476
0.00720476
0.00720475
0.00720474
0.00720474
0.00720473
0.00720473
0.00720472
0.00720472
0.00720471
0.00720471
0.0072047
0.0072047
0.0072047
0.00720469
0.00720469
0.00720468
0.00720468
0.00720467
0.00720467
0.00720467
0.00720466
0.00720466
0.00720466
0.00720465
0.00720465
0.00720465
0.00720465
0.00720464
0.00720464
0.00720464
0.00720464
0.00720463
0.00720463
0.00720463
0.00720463
0.00720463
0.00720463
0.00720462
0.00720462
0.00720462
0.00720462
0.00720462
0.00720462
0.00720462
0.00720462
0.00720462
0.00720462
0.00720462
0.00720462
0.00720463
0.00720463
0.00720463
0.00720463
0.00720463
0.00720463
0.00720463
0.00720462
)
;

boundaryField
{
    boundary
    {
        type            empty;
    }
    inlet
    {
        type            fixedValue;
        value           uniform 0.226269;
    }
    outlet
    {
        type            zeroGradient;
    }
}


// ************************************************************************* //
