/*--------------------------------*- C++ -*----------------------------------*\
  =========                 |
  \\      /  F ield         | OpenFOAM: The Open Source CFD Toolbox
   \\    /   O peration     | Website:  https://openfoam.org
    \\  /    A nd           | Version:  7
     \\/     M anipulation  |
\*---------------------------------------------------------------------------*/
FoamFile
{
    version     2.0;
    format      ascii;
    class       volScalarField;
    location    "2e-05";
    object      OH;
}
// * * * * * * * * * * * * * * * * * * * * * * * * * * * * * * * * * * * * * //

dimensions      [0 0 0 0 0 0 0];

internalField   nonuniform List<scalar> 
500
(
8.28853e-48
1.48265e-47
1.81433e-47
1.96373e-47
2.02458e-47
2.04737e-47
2.05535e-47
2.05803e-47
2.05896e-47
2.05933e-47
2.05956e-47
2.05975e-47
2.05995e-47
2.06015e-47
2.06038e-47
2.06062e-47
2.06087e-47
2.06114e-47
2.06143e-47
2.06174e-47
2.06206e-47
2.0624e-47
2.06275e-47
2.06312e-47
2.06351e-47
2.06392e-47
2.06434e-47
2.06478e-47
2.06524e-47
2.06571e-47
2.06621e-47
2.06672e-47
2.06725e-47
2.06779e-47
2.06836e-47
2.06894e-47
2.06954e-47
2.07016e-47
2.0708e-47
2.07145e-47
2.07213e-47
2.07282e-47
2.07354e-47
2.07427e-47
2.07502e-47
2.07579e-47
2.07658e-47
2.07739e-47
2.07822e-47
2.07907e-47
2.07994e-47
2.08083e-47
2.08173e-47
2.08266e-47
2.08361e-47
2.08458e-47
2.08557e-47
2.08658e-47
2.08761e-47
2.08866e-47
2.08973e-47
2.09082e-47
2.09193e-47
2.09307e-47
2.09422e-47
2.09539e-47
2.09659e-47
2.0978e-47
2.09904e-47
2.10029e-47
2.10157e-47
2.10286e-47
2.10418e-47
2.10551e-47
2.10687e-47
2.10824e-47
2.10964e-47
2.11105e-47
2.11249e-47
2.11394e-47
2.11541e-47
2.1169e-47
2.11841e-47
2.11994e-47
2.12148e-47
2.12305e-47
2.12463e-47
2.12622e-47
2.12784e-47
2.12947e-47
2.13112e-47
2.13278e-47
2.13445e-47
2.13615e-47
2.13785e-47
2.13957e-47
2.14131e-47
2.14305e-47
2.14481e-47
2.14658e-47
2.14837e-47
2.15016e-47
2.15196e-47
2.15378e-47
2.1556e-47
2.15743e-47
2.15927e-47
2.16111e-47
2.16297e-47
2.16483e-47
2.16669e-47
2.16856e-47
2.17043e-47
2.1723e-47
2.17418e-47
2.17606e-47
2.17794e-47
2.17982e-47
2.18169e-47
2.18356e-47
2.18539e-47
2.18705e-47
2.18793e-47
2.18559e-47
2.16694e-47
2.15266e-47
2.17656e-47
2.18673e-47
2.19416e-47
2.19937e-47
2.20284e-47
2.20533e-47
2.20737e-47
2.20923e-47
2.21102e-47
2.21277e-47
2.2145e-47
2.21622e-47
2.21792e-47
2.2196e-47
2.22127e-47
2.22291e-47
2.22454e-47
2.22614e-47
2.22773e-47
2.22929e-47
2.23083e-47
2.23235e-47
2.23384e-47
2.23531e-47
2.23676e-47
2.23818e-47
2.23957e-47
2.24094e-47
2.24227e-47
2.24358e-47
2.24487e-47
2.24612e-47
2.24734e-47
2.24854e-47
2.2497e-47
2.25084e-47
2.25194e-47
2.25301e-47
2.25404e-47
2.25505e-47
2.25602e-47
2.25696e-47
2.25786e-47
2.25873e-47
2.25957e-47
2.26037e-47
2.26114e-47
2.26187e-47
2.26256e-47
2.26322e-47
2.26384e-47
2.26443e-47
2.26497e-47
2.26549e-47
2.26596e-47
2.2664e-47
2.26679e-47
2.26715e-47
2.26748e-47
2.26776e-47
2.268e-47
2.26821e-47
2.26838e-47
2.2685e-47
2.26859e-47
2.26864e-47
2.26865e-47
2.26862e-47
2.26855e-47
2.26843e-47
2.26828e-47
2.26809e-47
2.26786e-47
2.26759e-47
2.26728e-47
2.26692e-47
2.26653e-47
2.26609e-47
2.26562e-47
2.2651e-47
2.26455e-47
2.26395e-47
2.26331e-47
2.26263e-47
2.26192e-47
2.26116e-47
2.26036e-47
2.25952e-47
2.25864e-47
2.25772e-47
2.25676e-47
2.25576e-47
2.25473e-47
2.25365e-47
2.25253e-47
2.25138e-47
2.25019e-47
2.24895e-47
2.24768e-47
2.24637e-47
2.24503e-47
2.24364e-47
2.24222e-47
2.24077e-47
2.23932e-47
2.23812e-47
2.23863e-47
2.25013e-47
2.33107e-47
2.84922e-47
6.11874e-47
2.66925e-46
1.56017e-45
9.6818e-45
6.06366e-44
3.80021e-43
2.38011e-42
1.48913e-41
9.29878e-41
5.7818e-40
3.56345e-39
2.16221e-38
1.28224e-37
7.40638e-37
4.19619e-36
3.4667e-35
3.04244e-34
3.29025e-33
4.07764e-32
5.36787e-31
7.19145e-30
9.61689e-29
1.27295e-27
1.66125e-26
2.13277e-25
2.68928e-24
3.32575e-23
4.02806e-22
4.77114e-21
5.51817e-20
6.22146e-19
6.82551e-18
7.27242e-17
7.50943e-16
7.49755e-15
7.21981e-14
6.68708e-13
5.97254e-12
5.12123e-11
4.19573e-10
3.26749e-09
2.40838e-08
1.67268e-07
1.09422e-06
6.93982e-06
4.68449e-05
0.000281832
0.000681784
0.000858387
0.00116384
0.00189764
0.00318282
0.00478632
0.00635301
0.00764904
0.00860468
0.0092392
0.00960248
0.00974938
0.00973083
0.00959109
0.00936724
0.00908938
0.00878129
0.00846125
0.00814293
0.00783622
0.00754797
0.0072826
0.00704257
0.00682885
0.00664122
0.00647859
0.00633929
0.00622124
0.0061222
0.0060423
0.00597726
0.00592319
0.00587857
0.00584195
0.00581209
0.00578786
0.00576831
0.00575261
0.00574005
0.00573005
0.00572213
0.00571588
0.00571097
0.00570712
0.00570412
0.00570179
0.00569999
0.00569861
0.00569755
0.00569675
0.00569614
0.00569569
0.00569535
0.0056951
0.00569492
0.00569479
0.00569471
0.00569465
0.00569462
0.0056946
0.0056946
0.0056946
0.00569462
0.00569464
0.00569466
0.00569468
0.00569471
0.00569473
0.00569476
0.00569479
0.00569482
0.00569485
0.00569488
0.0056949
0.00569493
0.00569496
0.00569499
0.00569501
0.00569504
0.00569506
0.00569509
0.00569511
0.00569514
0.00569516
0.00569519
0.00569521
0.00569524
0.00569526
0.00569528
0.00569529
0.00569528
0.00569523
0.00569507
0.00569505
0.00569524
0.00569535
0.00569542
0.00569546
0.00569548
0.0056955
0.00569552
0.00569553
0.00569555
0.00569556
0.00569558
0.00569559
0.00569561
0.00569562
0.00569564
0.00569565
0.00569567
0.00569568
0.0056957
0.00569571
0.00569573
0.00569574
0.00569575
0.00569577
0.00569578
0.00569579
0.0056958
0.00569582
0.00569583
0.00569584
0.00569585
0.00569586
0.00569587
0.00569588
0.00569589
0.0056959
0.00569591
0.00569592
0.00569593
0.00569594
0.00569595
0.00569595
0.00569596
0.00569597
0.00569598
0.00569598
0.00569599
0.005696
0.005696
0.00569601
0.00569601
0.00569602
0.00569602
0.00569603
0.00569603
0.00569604
0.00569604
0.00569605
0.00569605
0.00569605
0.00569605
0.00569606
0.00569606
0.00569606
0.00569606
0.00569607
0.00569607
0.00569607
0.00569607
0.00569607
0.00569607
0.00569607
0.00569607
0.00569607
0.00569607
0.00569607
0.00569607
0.00569607
0.00569607
0.00569607
0.00569607
0.00569607
0.00569607
0.00569607
0.00569607
0.00569607
0.00569607
0.00569607
0.00569607
0.00569607
0.00569607
0.00569608
0.00569608
0.00569608
0.00569608
0.00569608
0.00569608
0.00569608
0.00569608
0.00569608
0.00569609
0.00569609
0.00569609
0.00569609
0.00569609
0.0056961
0.0056961
0.00569611
0.00569611
0.00569611
0.00569611
0.00569612
0.00569612
0.00569612
0.00569613
0.00569613
0.00569614
0.00569614
0.00569615
0.00569616
0.00569617
0.00569618
0.00569619
)
;

boundaryField
{
    boundary
    {
        type            empty;
    }
    inlet
    {
        type            fixedValue;
        value           uniform 0;
    }
    outlet
    {
        type            zeroGradient;
    }
}


// ************************************************************************* //
