/*--------------------------------*- C++ -*----------------------------------*\
  =========                 |
  \\      /  F ield         | OpenFOAM: The Open Source CFD Toolbox
   \\    /   O peration     | Website:  https://openfoam.org
    \\  /    A nd           | Version:  7
     \\/     M anipulation  |
\*---------------------------------------------------------------------------*/
FoamFile
{
    version     2.0;
    format      ascii;
    class       volScalarField;
    location    "2e-05";
    object      p;
}
// * * * * * * * * * * * * * * * * * * * * * * * * * * * * * * * * * * * * * //

dimensions      [1 -1 -2 0 0 0 0];

internalField   nonuniform List<scalar> 
500
(
101724
101724
101724
101724
101725
101725
101726
101726
101727
101728
101729
101729
101730
101731
101733
101734
101735
101736
101738
101739
101741
101742
101744
101746
101747
101749
101751
101753
101755
101757
101759
101761
101763
101765
101767
101769
101772
101774
101776
101778
101781
101783
101785
101788
101790
101792
101794
101797
101799
101801
101804
101806
101808
101810
101812
101815
101817
101819
101821
101823
101825
101827
101828
101830
101832
101833
101835
101837
101838
101839
101841
101842
101843
101844
101845
101846
101847
101848
101848
101849
101849
101849
101850
101850
101850
101850
101850
101850
101849
101849
101848
101848
101847
101846
101845
101844
101843
101842
101840
101839
101838
101836
101834
101833
101831
101829
101827
101825
101823
101821
101818
101816
101814
101811
101809
101807
101804
101801
101799
101796
101794
101791
101789
101786
101783
101781
101778
101775
101773
101770
101768
101765
101763
101761
101758
101756
101754
101752
101749
101747
101745
101744
101742
101740
101739
101737
101736
101734
101733
101732
101731
101730
101729
101729
101728
101728
101728
101727
101727
101727
101728
101728
101728
101729
101729
101730
101731
101732
101733
101734
101735
101737
101738
101740
101741
101743
101745
101746
101748
101750
101752
101754
101756
101759
101761
101763
101765
101768
101770
101772
101775
101777
101780
101782
101785
101787
101789
101792
101794
101797
101799
101801
101804
101806
101808
101810
101813
101815
101817
101819
101821
101823
101825
101827
101829
101831
101833
101835
101837
101839
101841
101842
101844
101846
101848
101849
101851
101853
101854
101856
101858
101859
101861
101862
101864
101865
101867
101869
101870
101872
101873
101875
101876
101878
101879
101880
101882
101883
101885
101886
101888
101889
101891
101892
101893
101895
101896
101897
101899
101900
101901
101903
101904
101905
101906
101908
101909
101910
101911
101912
101913
101914
101915
101916
101917
101918
101919
101920
101921
101921
101922
101922
101922
101920
101919
101920
101918
101918
101917
101916
101916
101915
101915
101915
101914
101914
101913
101913
101913
101912
101912
101911
101911
101911
101910
101910
101910
101909
101909
101909
101908
101908
101907
101907
101907
101906
101906
101905
101905
101905
101904
101904
101903
101903
101902
101902
101901
101901
101900
101900
101899
101899
101898
101898
101897
101897
101896
101896
101895
101895
101894
101894
101893
101892
101892
101891
101891
101890
101890
101889
101888
101888
101887
101887
101886
101885
101885
101884
101883
101883
101882
101882
101881
101880
101880
101879
101878
101878
101877
101877
101876
101875
101875
101874
101874
101873
101872
101871
101870
101870
101869
101868
101867
101866
101865
101864
101863
101862
101862
101861
101860
101859
101858
101857
101856
101855
101855
101854
101853
101852
101851
101850
101849
101848
101848
101847
101846
101845
101844
101843
101842
101841
101840
101839
101838
101837
101836
101835
101834
101833
101832
101831
101830
101829
101828
101827
101826
101825
101824
101823
101822
101821
101820
101818
101817
101816
101815
101814
101812
101811
101810
101809
101807
101806
101805
101804
101802
101801
101799
101798
101797
101795
101794
101792
101791
101789
101788
101786
101785
101783
101782
101780
101779
101777
101776
101774
101773
101771
101769
101768
101766
101764
101763
101761
101760
101758
101756
101755
101753
101752
101750
101749
101747
101745
101744
101742
101741
101739
101738
101737
101735
101734
101732
101731
101730
101729
101727
101726
101725
101724
)
;

boundaryField
{
    boundary
    {
        type            empty;
    }
    inlet
    {
        type            zeroGradient;
    }
    outlet
    {
        type            waveTransmissive;
        gamma           1.4;
        value           uniform 101723;
    }
}


// ************************************************************************* //
