/*--------------------------------*- C++ -*----------------------------------*\
  =========                 |
  \\      /  F ield         | OpenFOAM: The Open Source CFD Toolbox
   \\    /   O peration     | Website:  https://openfoam.org
    \\  /    A nd           | Version:  7
     \\/     M anipulation  |
\*---------------------------------------------------------------------------*/
FoamFile
{
    version     2.0;
    format      ascii;
    class       surfaceScalarField;
    location    "2e-05";
    object      phi;
}
// * * * * * * * * * * * * * * * * * * * * * * * * * * * * * * * * * * * * * //

dimensions      [1 0 -1 0 0 0 0];

internalField   nonuniform List<scalar> 
499
(
6.76406e-06
6.69744e-06
6.63222e-06
6.5674e-06
6.50272e-06
6.43811e-06
6.37358e-06
6.30914e-06
6.2448e-06
6.18057e-06
6.11646e-06
6.0525e-06
5.98868e-06
5.92504e-06
5.86157e-06
5.7983e-06
5.73524e-06
5.6724e-06
5.6098e-06
5.54745e-06
5.48537e-06
5.42358e-06
5.36208e-06
5.3009e-06
5.24005e-06
5.17956e-06
5.11942e-06
5.05967e-06
5.00031e-06
4.94137e-06
4.88286e-06
4.8248e-06
4.76721e-06
4.71011e-06
4.65351e-06
4.59743e-06
4.5419e-06
4.48692e-06
4.43253e-06
4.37873e-06
4.32555e-06
4.273e-06
4.22111e-06
4.16989e-06
4.11937e-06
4.06957e-06
4.02049e-06
3.97217e-06
3.92462e-06
3.87786e-06
3.83192e-06
3.7868e-06
3.74253e-06
3.69913e-06
3.65662e-06
3.61501e-06
3.57432e-06
3.53457e-06
3.49578e-06
3.45796e-06
3.42114e-06
3.38533e-06
3.35053e-06
3.31678e-06
3.28408e-06
3.25244e-06
3.22189e-06
3.19243e-06
3.16407e-06
3.13683e-06
3.11072e-06
3.08575e-06
3.06192e-06
3.03924e-06
3.01772e-06
2.99737e-06
2.97819e-06
2.96018e-06
2.94335e-06
2.9277e-06
2.91323e-06
2.89994e-06
2.88783e-06
2.87689e-06
2.86711e-06
2.8585e-06
2.85105e-06
2.84475e-06
2.83958e-06
2.83554e-06
2.83262e-06
2.83079e-06
2.83005e-06
2.83038e-06
2.83176e-06
2.83417e-06
2.83759e-06
2.842e-06
2.84737e-06
2.85368e-06
2.8609e-06
2.869e-06
2.87796e-06
2.88774e-06
2.89832e-06
2.90965e-06
2.92171e-06
2.93445e-06
2.94785e-06
2.96186e-06
2.97645e-06
2.99157e-06
3.00719e-06
3.02326e-06
3.03974e-06
3.05659e-06
3.07376e-06
3.09121e-06
3.10889e-06
3.12677e-06
3.14478e-06
3.1629e-06
3.18106e-06
3.19922e-06
3.21737e-06
3.23543e-06
3.25334e-06
3.27106e-06
3.28856e-06
3.30579e-06
3.3227e-06
3.33925e-06
3.35541e-06
3.37112e-06
3.38635e-06
3.40105e-06
3.4152e-06
3.42875e-06
3.44166e-06
3.4539e-06
3.46545e-06
3.47626e-06
3.48631e-06
3.49557e-06
3.50401e-06
3.51162e-06
3.51836e-06
3.52423e-06
3.5292e-06
3.53326e-06
3.53639e-06
3.53859e-06
3.53984e-06
3.54015e-06
3.5395e-06
3.53789e-06
3.53533e-06
3.53182e-06
3.52736e-06
3.52197e-06
3.51565e-06
3.50842e-06
3.50029e-06
3.49127e-06
3.4814e-06
3.47068e-06
3.45914e-06
3.44681e-06
3.4337e-06
3.41987e-06
3.40532e-06
3.39008e-06
3.3742e-06
3.35771e-06
3.34064e-06
3.32303e-06
3.30492e-06
3.28634e-06
3.26732e-06
3.24792e-06
3.22816e-06
3.20808e-06
3.18773e-06
3.16714e-06
3.14635e-06
3.12539e-06
3.10431e-06
3.08313e-06
3.06191e-06
3.04065e-06
3.01941e-06
2.9982e-06
2.97707e-06
2.95603e-06
2.93512e-06
2.91436e-06
2.89377e-06
2.87338e-06
2.8532e-06
2.83325e-06
2.81356e-06
2.79412e-06
2.77496e-06
2.75609e-06
2.73751e-06
2.71922e-06
2.70124e-06
2.68357e-06
2.66621e-06
2.64915e-06
2.6324e-06
2.61594e-06
2.59978e-06
2.58392e-06
2.56833e-06
2.55301e-06
2.53796e-06
2.52316e-06
2.5086e-06
2.49427e-06
2.48015e-06
2.46624e-06
2.45252e-06
2.43898e-06
2.4256e-06
2.41238e-06
2.3993e-06
2.38634e-06
2.37351e-06
2.36077e-06
2.34814e-06
2.33559e-06
2.32312e-06
2.31071e-06
2.29837e-06
2.28609e-06
2.27386e-06
2.26168e-06
2.24954e-06
2.23744e-06
2.22539e-06
2.21337e-06
2.2014e-06
2.18948e-06
2.17759e-06
2.16576e-06
2.15399e-06
2.14227e-06
2.13061e-06
2.11902e-06
2.1075e-06
2.09604e-06
2.0847e-06
2.07346e-06
2.06233e-06
2.05131e-06
2.04041e-06
2.02965e-06
2.01902e-06
2.00854e-06
1.99821e-06
1.98805e-06
1.97807e-06
1.96827e-06
1.95866e-06
1.94925e-06
1.94005e-06
1.93108e-06
1.92233e-06
1.91383e-06
1.90558e-06
1.89759e-06
1.88988e-06
1.88246e-06
1.87534e-06
1.86856e-06
1.86238e-06
1.85827e-06
1.86495e-06
1.93271e-06
2.30502e-06
3.37806e-06
4.45467e-06
4.9562e-06
4.8339e-06
5.02761e-06
4.94447e-06
4.74924e-06
4.50752e-06
4.25545e-06
4.01301e-06
3.79087e-06
3.59437e-06
3.42555e-06
3.28437e-06
3.16938e-06
3.07828e-06
3.00827e-06
2.95634e-06
2.91942e-06
2.89461e-06
2.87926e-06
2.87101e-06
2.8679e-06
2.8683e-06
2.87095e-06
2.87488e-06
2.87938e-06
2.88397e-06
2.88831e-06
2.89221e-06
2.89556e-06
2.89818e-06
2.90029e-06
2.90191e-06
2.90307e-06
2.90382e-06
2.9042e-06
2.90426e-06
2.90403e-06
2.90356e-06
2.90289e-06
2.90205e-06
2.90106e-06
2.89995e-06
2.89874e-06
2.89745e-06
2.89609e-06
2.89466e-06
2.89319e-06
2.89167e-06
2.89012e-06
2.88854e-06
2.88693e-06
2.8853e-06
2.88365e-06
2.88197e-06
2.88028e-06
2.87857e-06
2.87684e-06
2.8751e-06
2.87334e-06
2.87157e-06
2.86978e-06
2.86798e-06
2.86617e-06
2.86434e-06
2.8625e-06
2.86064e-06
2.85877e-06
2.85689e-06
2.85499e-06
2.85308e-06
2.85116e-06
2.84923e-06
2.84728e-06
2.84531e-06
2.84334e-06
2.84135e-06
2.83935e-06
2.83733e-06
2.8353e-06
2.83326e-06
2.83121e-06
2.82914e-06
2.82706e-06
2.82497e-06
2.82286e-06
2.82074e-06
2.81861e-06
2.81647e-06
2.81431e-06
2.81214e-06
2.80996e-06
2.80777e-06
2.80556e-06
2.80335e-06
2.80112e-06
2.79888e-06
2.79663e-06
2.79437e-06
2.79209e-06
2.7898e-06
2.78751e-06
2.7852e-06
2.78287e-06
2.78054e-06
2.77819e-06
2.77583e-06
2.77346e-06
2.77108e-06
2.76868e-06
2.76626e-06
2.76384e-06
2.76139e-06
2.75894e-06
2.75646e-06
2.75397e-06
2.75146e-06
2.74894e-06
2.7464e-06
2.74383e-06
2.74125e-06
2.73865e-06
2.73603e-06
2.73338e-06
2.73071e-06
2.72802e-06
2.7253e-06
2.72255e-06
2.71978e-06
2.71698e-06
2.71415e-06
2.71129e-06
2.7084e-06
2.70548e-06
2.70252e-06
2.69953e-06
2.6965e-06
2.69343e-06
2.69033e-06
2.68718e-06
2.684e-06
2.68077e-06
2.67749e-06
2.67418e-06
2.67081e-06
2.6674e-06
2.66393e-06
2.66042e-06
2.65685e-06
2.65323e-06
2.64956e-06
2.64583e-06
2.64205e-06
2.6382e-06
2.6343e-06
2.63033e-06
2.62631e-06
2.62222e-06
2.61807e-06
2.61385e-06
2.60957e-06
2.60523e-06
2.60082e-06
2.59634e-06
2.59179e-06
2.58718e-06
2.5825e-06
2.57776e-06
2.57294e-06
2.56806e-06
2.56311e-06
2.5581e-06
2.55302e-06
2.54787e-06
2.54266e-06
2.53739e-06
2.53206e-06
2.52666e-06
2.52121e-06
2.5157e-06
2.51014e-06
2.50452e-06
2.49886e-06
2.49314e-06
2.48739e-06
2.48159e-06
2.47575e-06
2.46987e-06
2.46396e-06
2.45803e-06
2.45207e-06
2.44609e-06
2.44009e-06
2.43408e-06
2.42806e-06
2.42204e-06
2.41603e-06
2.41002e-06
2.40401e-06
2.39802e-06
2.39206e-06
2.38612e-06
2.38022e-06
2.37436e-06
2.36854e-06
2.36278e-06
2.35708e-06
2.35144e-06
2.34587e-06
2.34038e-06
2.33498e-06
2.32966e-06
2.32444e-06
2.31933e-06
2.31432e-06
2.30943e-06
2.30466e-06
)
;

boundaryField
{
    boundary
    {
        type            empty;
        value           nonuniform 0();
    }
    inlet
    {
        type            calculated;
        value           uniform -6.83575e-06;
    }
    outlet
    {
        type            calculated;
        value           uniform 2.30002e-06;
    }
}


// ************************************************************************* //
