/*--------------------------------*- C++ -*----------------------------------*\
  =========                 |
  \\      /  F ield         | OpenFOAM: The Open Source CFD Toolbox
   \\    /   O peration     | Website:  https://openfoam.org
    \\  /    A nd           | Version:  7
     \\/     M anipulation  |
\*---------------------------------------------------------------------------*/
FoamFile
{
    version     2.0;
    format      ascii;
    class       volScalarField;
    location    "2e-05";
    object      Qdot;
}
// * * * * * * * * * * * * * * * * * * * * * * * * * * * * * * * * * * * * * //

dimensions      [1 -1 -3 0 0 0 0];

internalField   nonuniform List<scalar> 
500
(
-2.41506e-27
-1.93446e-27
-1.80904e-27
-1.7765e-27
-1.76824e-27
-1.76635e-27
-1.76615e-27
-1.76644e-27
-1.76689e-27
-1.76743e-27
-1.76803e-27
-1.76869e-27
-1.76941e-27
-1.77019e-27
-1.77102e-27
-1.77191e-27
-1.77285e-27
-1.77385e-27
-1.77491e-27
-1.77602e-27
-1.77718e-27
-1.7784e-27
-1.77967e-27
-1.78099e-27
-1.78237e-27
-1.7838e-27
-1.78528e-27
-1.7868e-27
-1.78838e-27
-1.79001e-27
-1.79169e-27
-1.79341e-27
-1.79518e-27
-1.797e-27
-1.79886e-27
-1.80077e-27
-1.80271e-27
-1.8047e-27
-1.80674e-27
-1.80881e-27
-1.81092e-27
-1.81306e-27
-1.81524e-27
-1.81746e-27
-1.81971e-27
-1.822e-27
-1.82431e-27
-1.82665e-27
-1.82902e-27
-1.83142e-27
-1.83384e-27
-1.83628e-27
-1.83874e-27
-1.84122e-27
-1.84372e-27
-1.84623e-27
-1.84876e-27
-1.8513e-27
-1.85384e-27
-1.85639e-27
-1.85895e-27
-1.86151e-27
-1.86406e-27
-1.86662e-27
-1.86917e-27
-1.87171e-27
-1.87424e-27
-1.87676e-27
-1.87927e-27
-1.88175e-27
-1.88422e-27
-1.88666e-27
-1.88907e-27
-1.89146e-27
-1.89381e-27
-1.89613e-27
-1.89841e-27
-1.90065e-27
-1.90285e-27
-1.905e-27
-1.9071e-27
-1.90915e-27
-1.91114e-27
-1.91308e-27
-1.91495e-27
-1.91676e-27
-1.9185e-27
-1.92017e-27
-1.92177e-27
-1.9233e-27
-1.92474e-27
-1.9261e-27
-1.92738e-27
-1.92858e-27
-1.92968e-27
-1.93069e-27
-1.93161e-27
-1.93244e-27
-1.93316e-27
-1.93379e-27
-1.93431e-27
-1.93473e-27
-1.93505e-27
-1.93525e-27
-1.93535e-27
-1.93534e-27
-1.93522e-27
-1.93499e-27
-1.93464e-27
-1.93418e-27
-1.93361e-27
-1.93293e-27
-1.93213e-27
-1.93122e-27
-1.9302e-27
-1.92906e-27
-1.92781e-27
-1.92646e-27
-1.92499e-27
-1.92342e-27
-1.92174e-27
-1.91993e-27
-1.9179e-27
-1.91507e-27
-1.90878e-27
-1.90426e-27
-1.90785e-27
-1.90688e-27
-1.90476e-27
-1.90233e-27
-1.89977e-27
-1.89712e-27
-1.89441e-27
-1.89164e-27
-1.88881e-27
-1.88593e-27
-1.883e-27
-1.88003e-27
-1.87703e-27
-1.874e-27
-1.87095e-27
-1.86787e-27
-1.86479e-27
-1.8617e-27
-1.85861e-27
-1.85553e-27
-1.85245e-27
-1.8494e-27
-1.84638e-27
-1.84338e-27
-1.84043e-27
-1.83752e-27
-1.83465e-27
-1.83185e-27
-1.82911e-27
-1.82643e-27
-1.82383e-27
-1.8213e-27
-1.81886e-27
-1.81651e-27
-1.81426e-27
-1.8121e-27
-1.81005e-27
-1.8081e-27
-1.80627e-27
-1.80455e-27
-1.80295e-27
-1.80146e-27
-1.80011e-27
-1.79888e-27
-1.79777e-27
-1.7968e-27
-1.79595e-27
-1.79524e-27
-1.79465e-27
-1.7942e-27
-1.79388e-27
-1.79369e-27
-1.79362e-27
-1.79368e-27
-1.79387e-27
-1.79418e-27
-1.7946e-27
-1.79514e-27
-1.79579e-27
-1.79655e-27
-1.79741e-27
-1.79837e-27
-1.79942e-27
-1.80056e-27
-1.80177e-27
-1.80307e-27
-1.80443e-27
-1.80585e-27
-1.80732e-27
-1.80884e-27
-1.81041e-27
-1.812e-27
-1.81362e-27
-1.81526e-27
-1.81691e-27
-1.81856e-27
-1.82021e-27
-1.82184e-27
-1.82345e-27
-1.82503e-27
-1.82658e-27
-1.82809e-27
-1.82955e-27
-1.83095e-27
-1.8323e-27
-1.83358e-27
-1.83478e-27
-1.83591e-27
-1.83696e-27
-1.83792e-27
-1.83879e-27
-1.83957e-27
-1.84026e-27
-1.84085e-27
-1.84134e-27
-1.84173e-27
-1.84202e-27
-1.84221e-27
-1.8423e-27
-1.8423e-27
-1.84219e-27
-1.84199e-27
-1.84169e-27
-1.84128e-27
-1.84067e-27
-1.83931e-27
-1.83422e-27
-1.80907e-27
-1.67475e-27
-9.47774e-28
2.98651e-27
2.42307e-26
1.38743e-25
7.55643e-25
4.08213e-24
2.20672e-23
1.1975e-22
6.53787e-22
3.59857e-21
2.00081e-20
1.12573e-19
6.41847e-19
3.71207e-18
2.17823e-17
1.29601e-16
6.90426e-16
4.06589e-15
2.40899e-14
1.43647e-13
8.61015e-13
5.18102e-12
3.12583e-11
1.88868e-10
1.14168e-09
6.89826e-09
4.1632e-08
2.50819e-07
1.50783e-06
9.04242e-06
5.40867e-05
0.000322681
0.00192032
0.0114025
0.0675785
0.399966
2.36548
15.4366
112.902
957.73
7127.93
51715.1
375508
2.74741e+06
2.08544e+07
1.7082e+08
1.2786e+09
5.55897e+09
1.17256e+10
1.29343e+10
1.13385e+10
9.61883e+09
7.64193e+09
5.40466e+09
3.4735e+09
2.124e+09
1.27412e+09
7.57574e+08
4.44986e+08
2.54568e+08
1.37591e+08
6.53474e+07
2.07846e+07
-6.37176e+06
-2.24081e+07
-3.12303e+07
-3.53297e+07
-3.63369e+07
-3.5339e+07
-3.3103e+07
-3.01711e+07
-2.69086e+07
-2.35904e+07
-2.03968e+07
-1.74299e+07
-1.47531e+07
-1.23869e+07
-1.03949e+07
-8.73095e+06
-7.29737e+06
-6.07683e+06
-5.03998e+06
-4.17393e+06
-3.44884e+06
-2.84724e+06
-2.34691e+06
-1.93537e+06
-1.59896e+06
-1.3239e+06
-1.10029e+06
-918215
-772525
-655415
-561316
-486869
-427463
-380495
-344504
-316014
-294159
-277415
-264649
-254823
-247749
-242516
-238835
-236394
-234869
-234022
-233689
-233742
-234083
-234628
-235357
-236216
-237168
-238183
-239244
-240333
-241439
-242552
-243663
-244764
-245844
-246883
-247834
-248941
-250088
-251215
-252334
-253454
-254581
-255726
-256906
-258159
-259572
-261355
-264080
-268906
-278619
-298567
-302215
-284858
-276727
-273487
-272531
-272687
-273384
-274346
-275436
-276589
-277774
-278977
-280188
-281401
-282614
-283823
-285026
-286811
-287788
-288829
-289985
-291118
-292229
-293316
-294379
-295420
-296437
-297431
-298396
-299310
-300235
-301123
-301973
-302786
-303561
-304289
-304989
-305591
-306140
-306631
-307062
-307430
-307724
-307947
-308101
-308189
-308215
-308177
-308056
-307828
-307518
-307118
-306593
-306253
-305738
-305110
-304423
-303596
-302673
-301436
-300177
-298844
-297449
-296000
-294492
-292988
-291106
-289226
-287275
-285646
-282825
-280581
-278246
-275862
-273427
-270652
-268056
-265617
-262441
-260152
-257300
-254346
-251160
-248007
-245134
-242157
-238516
-235940
-232708
-229518
-226251
-223247
-220217
-217183
-214368
-211266
-208116
-204732
-202119
-199031
-196324
-193207
-190486
-187748
-185136
-182696
-180216
-178072
-176609
-174449
-171726
-169874
-168136
-166592
-165111
-163763
-162514
-162035
-160972
-160391
-160030
-159907
-160440
-161048
)
;

boundaryField
{
    boundary
    {
        type            empty;
    }
    inlet
    {
        type            calculated;
        value           uniform 0;
    }
    outlet
    {
        type            calculated;
        value           uniform 0;
    }
}


// ************************************************************************* //
