/*--------------------------------*- C++ -*----------------------------------*\
  =========                 |
  \\      /  F ield         | OpenFOAM: The Open Source CFD Toolbox
   \\    /   O peration     | Website:  https://openfoam.org
    \\  /    A nd           | Version:  7
     \\/     M anipulation  |
\*---------------------------------------------------------------------------*/
FoamFile
{
    version     2.0;
    format      ascii;
    class       volScalarField;
    location    "2e-05";
    object      rho;
}
// * * * * * * * * * * * * * * * * * * * * * * * * * * * * * * * * * * * * * //

dimensions      [1 -3 0 0 0 0 0];

internalField   nonuniform List<scalar> 
500
(
0.852462
0.852301
0.852261
0.852253
0.852253
0.852255
0.852257
0.852261
0.852264
0.852268
0.852273
0.852278
0.852283
0.852289
0.852295
0.852301
0.852308
0.852315
0.852322
0.85233
0.852338
0.852347
0.852355
0.852364
0.852373
0.852383
0.852392
0.852402
0.852412
0.852423
0.852433
0.852444
0.852454
0.852465
0.852476
0.852487
0.852499
0.85251
0.852521
0.852532
0.852544
0.852555
0.852566
0.852577
0.852588
0.852599
0.85261
0.852621
0.852631
0.852642
0.852652
0.852662
0.852672
0.852681
0.85269
0.852699
0.852708
0.852716
0.852724
0.852732
0.852739
0.852746
0.852752
0.852758
0.852764
0.852769
0.852774
0.852778
0.852781
0.852784
0.852787
0.852789
0.852791
0.852792
0.852792
0.852792
0.852791
0.85279
0.852788
0.852785
0.852782
0.852778
0.852774
0.852769
0.852764
0.852757
0.852751
0.852743
0.852735
0.852727
0.852718
0.852708
0.852698
0.852687
0.852676
0.852664
0.852652
0.852639
0.852626
0.852612
0.852598
0.852583
0.852568
0.852552
0.852537
0.85252
0.852504
0.852487
0.85247
0.852453
0.852435
0.852418
0.8524
0.852382
0.852364
0.852346
0.852328
0.852309
0.852291
0.852273
0.852255
0.852237
0.85222
0.852202
0.852185
0.852168
0.852151
0.852135
0.852119
0.852103
0.852088
0.852073
0.852059
0.852045
0.852031
0.852019
0.852006
0.851995
0.851984
0.851973
0.851964
0.851955
0.851946
0.851939
0.851932
0.851926
0.851921
0.851916
0.851912
0.851909
0.851907
0.851906
0.851905
0.851906
0.851907
0.851909
0.851911
0.851915
0.851919
0.851924
0.85193
0.851937
0.851944
0.851952
0.851961
0.85197
0.85198
0.851991
0.852003
0.852015
0.852027
0.852041
0.852054
0.852069
0.852083
0.852099
0.852114
0.85213
0.852147
0.852164
0.852181
0.852198
0.852216
0.852234
0.852252
0.85227
0.852289
0.852308
0.852327
0.852346
0.852365
0.852384
0.852403
0.852422
0.852442
0.852461
0.85248
0.852499
0.852519
0.852538
0.852557
0.852576
0.852595
0.852614
0.852633
0.852651
0.85267
0.852689
0.852707
0.852726
0.852744
0.852762
0.85278
0.852799
0.852817
0.852835
0.852853
0.852871
0.852889
0.852906
0.852924
0.852942
0.85296
0.852978
0.852995
0.853013
0.853031
0.853049
0.853066
0.853084
0.853102
0.85312
0.853137
0.853155
0.853173
0.853191
0.853209
0.853226
0.853244
0.853262
0.85328
0.853298
0.853316
0.853334
0.853352
0.853369
0.853387
0.853405
0.853424
0.853442
0.853461
0.853479
0.853496
0.853515
0.853533
0.853552
0.85357
0.853589
0.853608
0.853627
0.853646
0.853665
0.853685
0.853704
0.853724
0.853744
0.853764
0.853784
0.853804
0.853825
0.853845
0.853865
0.853885
0.853905
0.853925
0.853943
0.853948
0.853862
0.85322
0.849291
0.826492
0.731354
0.556449
0.412448
0.328039
0.266691
0.231429
0.205107
0.185454
0.170642
0.159335
0.150608
0.143834
0.138577
0.134521
0.131422
0.129087
0.12736
0.126111
0.125234
0.124641
0.124262
0.124039
0.123926
0.123889
0.123901
0.123943
0.124001
0.124065
0.12413
0.124191
0.124246
0.124294
0.124334
0.124368
0.124397
0.124421
0.124441
0.124457
0.12447
0.12448
0.124488
0.124494
0.124499
0.124502
0.124504
0.124506
0.124507
0.124508
0.124508
0.124508
0.124507
0.124507
0.124506
0.124505
0.124504
0.124503
0.124502
0.124501
0.1245
0.124499
0.124498
0.124496
0.124495
0.124494
0.124493
0.124492
0.124491
0.12449
0.124488
0.124487
0.124486
0.124485
0.124484
0.124483
0.124482
0.12448
0.124479
0.124478
0.124477
0.124476
0.124475
0.124474
0.124473
0.124472
0.124471
0.124469
0.124468
0.124467
0.124466
0.124465
0.124464
0.124463
0.124462
0.124461
0.12446
0.124459
0.124458
0.124456
0.124455
0.124454
0.124452
0.124451
0.12445
0.124449
0.124447
0.124446
0.124445
0.124443
0.124442
0.124441
0.12444
0.124438
0.124437
0.124436
0.124435
0.124433
0.124432
0.124431
0.12443
0.124428
0.124427
0.124426
0.124425
0.124423
0.124422
0.124421
0.124419
0.124418
0.124417
0.124416
0.124414
0.124413
0.124412
0.12441
0.124409
0.124408
0.124407
0.124405
0.124404
0.124403
0.124401
0.1244
0.124399
0.124397
0.124396
0.124395
0.124393
0.124392
0.12439
0.124389
0.124388
0.124386
0.124385
0.124383
0.124382
0.124381
0.124379
0.124378
0.124376
0.124375
0.124373
0.124372
0.12437
0.124369
0.124367
0.124366
0.124364
0.124362
0.124361
0.124359
0.124358
0.124356
0.124354
0.124353
0.124351
0.124349
0.124348
0.124346
0.124344
0.124343
0.124341
0.124339
0.124338
0.124336
0.124334
0.124332
0.124331
0.124329
0.124327
0.124325
0.124323
0.124322
0.12432
0.124318
0.124316
0.124314
0.124313
0.124311
0.124309
0.124307
0.124306
0.124304
0.124302
0.1243
0.124299
0.124297
0.124295
0.124294
0.124292
0.12429
0.124289
0.124287
0.124286
0.124284
0.124282
0.124281
0.124279
0.124278
0.124277
)
;

boundaryField
{
    boundary
    {
        type            empty;
    }
    inlet
    {
        type            calculated;
        value           uniform 0.852897;
    }
    outlet
    {
        type            calculated;
        value           uniform 0.124276;
    }
}


// ************************************************************************* //
