/*--------------------------------*- C++ -*----------------------------------*\
  =========                 |
  \\      /  F ield         | OpenFOAM: The Open Source CFD Toolbox
   \\    /   O peration     | Website:  https://openfoam.org
    \\  /    A nd           | Version:  7
     \\/     M anipulation  |
\*---------------------------------------------------------------------------*/
FoamFile
{
    version     2.0;
    format      ascii;
    class       volScalarField;
    location    "2e-05";
    object      T;
}
// * * * * * * * * * * * * * * * * * * * * * * * * * * * * * * * * * * * * * //

dimensions      [0 0 0 1 0 0 0];

internalField   nonuniform List<scalar> 
500
(
300.153
300.21
300.225
300.229
300.23
300.23
300.231
300.232
300.232
300.233
300.234
300.235
300.236
300.237
300.238
300.239
300.241
300.242
300.243
300.245
300.247
300.248
300.25
300.252
300.254
300.256
300.258
300.26
300.262
300.264
300.266
300.269
300.271
300.274
300.276
300.279
300.281
300.284
300.287
300.289
300.292
300.295
300.298
300.301
300.304
300.307
300.31
300.313
300.316
300.319
300.322
300.325
300.328
300.331
300.334
300.337
300.341
300.344
300.347
300.35
300.353
300.356
300.36
300.363
300.366
300.369
300.372
300.375
300.378
300.381
300.384
300.387
300.389
300.392
300.395
300.398
300.4
300.403
300.405
300.408
300.41
300.413
300.415
300.417
300.419
300.421
300.423
300.425
300.427
300.428
300.43
300.432
300.433
300.434
300.436
300.437
300.438
300.439
300.44
300.44
300.441
300.442
300.442
300.442
300.443
300.443
300.443
300.443
300.442
300.442
300.442
300.441
300.441
300.44
300.439
300.438
300.437
300.436
300.435
300.434
300.432
300.431
300.43
300.428
300.426
300.425
300.423
300.421
300.419
300.417
300.415
300.413
300.411
300.409
300.407
300.404
300.402
300.4
300.397
300.395
300.393
300.391
300.388
300.386
300.384
300.381
300.379
300.377
300.375
300.372
300.37
300.368
300.366
300.364
300.362
300.36
300.358
300.357
300.355
300.353
300.352
300.35
300.349
300.347
300.346
300.345
300.344
300.343
300.342
300.341
300.34
300.339
300.339
300.338
300.338
300.337
300.337
300.337
300.337
300.336
300.336
300.336
300.336
300.336
300.337
300.337
300.337
300.337
300.338
300.338
300.338
300.339
300.339
300.339
300.34
300.34
300.34
300.341
300.341
300.341
300.341
300.342
300.342
300.342
300.342
300.342
300.342
300.342
300.342
300.342
300.342
300.341
300.341
300.34
300.34
300.339
300.339
300.338
300.337
300.336
300.335
300.334
300.333
300.332
300.331
300.33
300.328
300.327
300.326
300.324
300.323
300.321
300.319
300.318
300.316
300.314
300.313
300.311
300.309
300.307
300.306
300.304
300.302
300.3
300.298
300.296
300.294
300.292
300.29
300.288
300.285
300.283
300.281
300.279
300.276
300.274
300.271
300.269
300.266
300.263
300.26
300.257
300.254
300.251
300.247
300.244
300.24
300.237
300.233
300.229
300.225
300.221
300.217
300.213
300.209
300.206
300.211
300.264
300.574
302.271
311.621
355.042
472.902
647.198
824.139
1023.9
1187.75
1345.61
1492.57
1626.83
1748.02
1856.18
1951.48
2034.13
2104.61
2163.67
2212.32
2251.73
2283.17
2307.89
2327.09
2341.83
2353.07
2361.57
2367.98
2372.81
2376.45
2379.21
2381.32
2382.93
2384.18
2385.16
2385.91
2386.49
2386.97
2387.36
2387.68
2387.94
2388.16
2388.34
2388.49
2388.61
2388.71
2388.8
2388.87
2388.93
2388.98
2389.02
2389.06
2389.09
2389.12
2389.14
2389.16
2389.18
2389.2
2389.21
2389.22
2389.24
2389.25
2389.26
2389.27
2389.28
2389.29
2389.3
2389.31
2389.32
2389.33
2389.34
2389.34
2389.35
2389.36
2389.37
2389.38
2389.38
2389.39
2389.4
2389.41
2389.41
2389.42
2389.43
2389.43
2389.44
2389.45
2389.45
2389.46
2389.46
2389.47
2389.48
2389.48
2389.49
2389.49
2389.5
2389.51
2389.51
2389.52
2389.52
2389.53
2389.53
2389.54
2389.54
2389.54
2389.55
2389.55
2389.55
2389.56
2389.56
2389.57
2389.57
2389.57
2389.58
2389.58
2389.59
2389.59
2389.59
2389.6
2389.6
2389.6
2389.61
2389.61
2389.61
2389.62
2389.62
2389.63
2389.63
2389.63
2389.63
2389.64
2389.64
2389.64
2389.65
2389.65
2389.65
2389.65
2389.66
2389.66
2389.66
2389.66
2389.67
2389.67
2389.67
2389.67
2389.67
2389.68
2389.68
2389.68
2389.68
2389.68
2389.68
2389.68
2389.68
2389.68
2389.68
2389.69
2389.69
2389.69
2389.69
2389.68
2389.68
2389.68
2389.68
2389.68
2389.68
2389.68
2389.68
2389.68
2389.68
2389.67
2389.67
2389.67
2389.67
2389.67
2389.66
2389.66
2389.66
2389.66
2389.65
2389.65
2389.65
2389.64
2389.64
2389.64
2389.64
2389.63
2389.63
2389.63
2389.62
2389.62
2389.61
2389.61
2389.61
2389.6
2389.6
2389.6
2389.59
2389.59
2389.59
2389.58
2389.58
2389.58
2389.57
2389.57
2389.57
2389.57
2389.56
2389.56
2389.56
2389.56
2389.55
2389.55
2389.55
2389.55
2389.55
2389.55
2389.54
2389.54
2389.54
2389.54
2389.55
2389.55
2389.55
)
;

boundaryField
{
    boundary
    {
        type            empty;
    }
    inlet
    {
        type            fixedValue;
        value           uniform 300;
    }
    outlet
    {
        type            zeroGradient;
    }
}


// ************************************************************************* //
