/*--------------------------------*- C++ -*----------------------------------*\
  =========                 |
  \\      /  F ield         | OpenFOAM: The Open Source CFD Toolbox
   \\    /   O peration     | Website:  https://openfoam.org
    \\  /    A nd           | Version:  7
     \\/     M anipulation  |
\*---------------------------------------------------------------------------*/
FoamFile
{
    version     2.0;
    format      ascii;
    class       volVectorField;
    location    "2e-05";
    object      U;
}
// * * * * * * * * * * * * * * * * * * * * * * * * * * * * * * * * * * * * * //

dimensions      [0 1 -1 0 0 0 0];

internalField   nonuniform List<vector> 
500
(
(2.33984 0 0)
(2.31449 0 0)
(2.29178 0 0)
(2.26957 0 0)
(2.24732 0 0)
(2.22509 0 0)
(2.20288 0 0)
(2.18069 0 0)
(2.15854 0 0)
(2.13642 0 0)
(2.11435 0 0)
(2.09231 0 0)
(2.07033 0 0)
(2.0484 0 0)
(2.02653 0 0)
(2.00473 0 0)
(1.98299 0 0)
(1.96133 0 0)
(1.93974 0 0)
(1.91824 0 0)
(1.89683 0 0)
(1.87552 0 0)
(1.8543 0 0)
(1.83319 0 0)
(1.81219 0 0)
(1.79131 0 0)
(1.77055 0 0)
(1.74992 0 0)
(1.72942 0 0)
(1.70906 0 0)
(1.68885 0 0)
(1.66879 0 0)
(1.64889 0 0)
(1.62915 0 0)
(1.60959 0 0)
(1.5902 0 0)
(1.57099 0 0)
(1.55198 0 0)
(1.53315 0 0)
(1.51454 0 0)
(1.49613 0 0)
(1.47794 0 0)
(1.45996 0 0)
(1.44222 0 0)
(1.42472 0 0)
(1.40746 0 0)
(1.39044 0 0)
(1.37369 0 0)
(1.35719 0 0)
(1.34097 0 0)
(1.32502 0 0)
(1.30935 0 0)
(1.29397 0 0)
(1.27889 0 0)
(1.26411 0 0)
(1.24964 0 0)
(1.23549 0 0)
(1.22165 0 0)
(1.20814 0 0)
(1.19497 0 0)
(1.18213 0 0)
(1.16964 0 0)
(1.1575 0 0)
(1.14571 0 0)
(1.13428 0 0)
(1.12322 0 0)
(1.11253 0 0)
(1.10221 0 0)
(1.09227 0 0)
(1.08271 0 0)
(1.07354 0 0)
(1.06476 0 0)
(1.05637 0 0)
(1.04838 0 0)
(1.04078 0 0)
(1.03359 0 0)
(1.02679 0 0)
(1.02041 0 0)
(1.01442 0 0)
(1.00884 0 0)
(1.00367 0 0)
(0.998906 0 0)
(0.994545 0 0)
(0.990588 0 0)
(0.987035 0 0)
(0.983884 0 0)
(0.981132 0 0)
(0.978776 0 0)
(0.976814 0 0)
(0.975242 0 0)
(0.974056 0 0)
(0.973251 0 0)
(0.972822 0 0)
(0.972764 0 0)
(0.973071 0 0)
(0.973736 0 0)
(0.974753 0 0)
(0.976113 0 0)
(0.97781 0 0)
(0.979833 0 0)
(0.982175 0 0)
(0.984827 0 0)
(0.987777 0 0)
(0.99102 0 0)
(0.994521 0 0)
(0.998357 0 0)
(1.00229 0 0)
(1.00667 0 0)
(1.01118 0 0)
(1.01589 0 0)
(1.02083 0 0)
(1.02596 0 0)
(1.03127 0 0)
(1.03674 0 0)
(1.04236 0 0)
(1.04811 0 0)
(1.05398 0 0)
(1.05996 0 0)
(1.066 0 0)
(1.0722 0 0)
(1.07831 0 0)
(1.0846 0 0)
(1.09088 0 0)
(1.09711 0 0)
(1.1034 0 0)
(1.10974 0 0)
(1.1159 0 0)
(1.12191 0 0)
(1.12803 0 0)
(1.13408 0 0)
(1.13997 0 0)
(1.14574 0 0)
(1.15138 0 0)
(1.15689 0 0)
(1.1622 0 0)
(1.16744 0 0)
(1.17229 0 0)
(1.17718 0 0)
(1.18173 0 0)
(1.18605 0 0)
(1.19016 0 0)
(1.19402 0 0)
(1.19762 0 0)
(1.20095 0 0)
(1.20401 0 0)
(1.20678 0 0)
(1.20925 0 0)
(1.21143 0 0)
(1.2133 0 0)
(1.21483 0 0)
(1.21612 0 0)
(1.21699 0 0)
(1.21757 0 0)
(1.21793 0 0)
(1.21783 0 0)
(1.21742 0 0)
(1.21671 0 0)
(1.21566 0 0)
(1.21428 0 0)
(1.21258 0 0)
(1.21056 0 0)
(1.20822 0 0)
(1.20557 0 0)
(1.20261 0 0)
(1.19935 0 0)
(1.19577 0 0)
(1.19197 0 0)
(1.18781 0 0)
(1.1834 0 0)
(1.17882 0 0)
(1.17393 0 0)
(1.16882 0 0)
(1.1633 0 0)
(1.15778 0 0)
(1.15201 0 0)
(1.14602 0 0)
(1.13985 0 0)
(1.13352 0 0)
(1.12703 0 0)
(1.1204 0 0)
(1.11365 0 0)
(1.10678 0 0)
(1.09977 0 0)
(1.09278 0 0)
(1.08556 0 0)
(1.07835 0 0)
(1.07126 0 0)
(1.06386 0 0)
(1.05649 0 0)
(1.04921 0 0)
(1.04189 0 0)
(1.03456 0 0)
(1.02726 0 0)
(1.01999 0 0)
(1.01275 0 0)
(1.00557 0 0)
(0.998436 0 0)
(0.991374 0 0)
(0.98435 0 0)
(0.977508 0 0)
(0.970514 0 0)
(0.963954 0 0)
(0.95722 0 0)
(0.950641 0 0)
(0.944201 0 0)
(0.937841 0 0)
(0.931589 0 0)
(0.925441 0 0)
(0.919399 0 0)
(0.913463 0 0)
(0.907632 0 0)
(0.901905 0 0)
(0.896285 0 0)
(0.890769 0 0)
(0.885283 0 0)
(0.880092 0 0)
(0.874733 0 0)
(0.86959 0 0)
(0.86456 0 0)
(0.859569 0 0)
(0.854661 0 0)
(0.849826 0 0)
(0.84506 0 0)
(0.840357 0 0)
(0.835713 0 0)
(0.831122 0 0)
(0.826587 0 0)
(0.82211 0 0)
(0.817562 0 0)
(0.813363 0 0)
(0.808795 0 0)
(0.804473 0 0)
(0.800202 0 0)
(0.795896 0 0)
(0.791623 0 0)
(0.787374 0 0)
(0.783144 0 0)
(0.77893 0 0)
(0.774732 0 0)
(0.770552 0 0)
(0.766423 0 0)
(0.762163 0 0)
(0.758149 0 0)
(0.754074 0 0)
(0.749723 0 0)
(0.745717 0 0)
(0.74171 0 0)
(0.737634 0 0)
(0.733592 0 0)
(0.729569 0 0)
(0.725493 0 0)
(0.721559 0 0)
(0.71777 0 0)
(0.713855 0 0)
(0.709979 0 0)
(0.705967 0 0)
(0.702568 0 0)
(0.698538 0 0)
(0.694798 0 0)
(0.691276 0 0)
(0.68768 0 0)
(0.684131 0 0)
(0.680647 0 0)
(0.67718 0 0)
(0.673823 0 0)
(0.67067 0 0)
(0.667258 0 0)
(0.664489 0 0)
(0.661188 0 0)
(0.658174 0 0)
(0.655383 0 0)
(0.652584 0 0)
(0.649796 0 0)
(0.647418 0 0)
(0.644722 0 0)
(0.64264 0 0)
(0.640108 0 0)
(0.638367 0 0)
(0.637104 0 0)
(0.650638 0 0)
(0.741548 0 0)
(1.06229 0 0)
(1.78439 0 0)
(2.9674 0 0)
(4.16339 0 0)
(5.2827 0 0)
(6.29214 0 0)
(6.9362 0 0)
(7.31633 0 0)
(7.52355 0 0)
(7.59744 0 0)
(7.58494 0 0)
(7.51226 0 0)
(7.40983 0 0)
(7.29585 0 0)
(7.1829 0 0)
(7.08004 0 0)
(6.99221 0 0)
(6.92144 0 0)
(6.86763 0 0)
(6.82931 0 0)
(6.80415 0 0)
(6.78971 0 0)
(6.78373 0 0)
(6.78347 0 0)
(6.78676 0 0)
(6.79271 0 0)
(6.79996 0 0)
(6.80738 0 0)
(6.81452 0 0)
(6.82087 0 0)
(6.8264 0 0)
(6.83096 0 0)
(6.83428 0 0)
(6.83692 0 0)
(6.83853 0 0)
(6.83926 0 0)
(6.83949 0 0)
(6.83917 0 0)
(6.83822 0 0)
(6.83682 0 0)
(6.83503 0 0)
(6.8329 0 0)
(6.83048 0 0)
(6.82781 0 0)
(6.82494 0 0)
(6.8219 0 0)
(6.81872 0 0)
(6.81541 0 0)
(6.81199 0 0)
(6.80849 0 0)
(6.8049 0 0)
(6.80125 0 0)
(6.79754 0 0)
(6.79378 0 0)
(6.78997 0 0)
(6.78611 0 0)
(6.78221 0 0)
(6.77827 0 0)
(6.77429 0 0)
(6.77028 0 0)
(6.76623 0 0)
(6.76215 0 0)
(6.75803 0 0)
(6.75389 0 0)
(6.74971 0 0)
(6.74549 0 0)
(6.74125 0 0)
(6.73697 0 0)
(6.73267 0 0)
(6.72833 0 0)
(6.72396 0 0)
(6.71956 0 0)
(6.71512 0 0)
(6.71067 0 0)
(6.70618 0 0)
(6.70166 0 0)
(6.69711 0 0)
(6.69252 0 0)
(6.68791 0 0)
(6.68328 0 0)
(6.67861 0 0)
(6.67391 0 0)
(6.66918 0 0)
(6.66443 0 0)
(6.65964 0 0)
(6.65483 0 0)
(6.64999 0 0)
(6.64512 0 0)
(6.64023 0 0)
(6.63528 0 0)
(6.63033 0 0)
(6.62548 0 0)
(6.62255 0 0)
(6.61753 0 0)
(6.61142 0 0)
(6.60584 0 0)
(6.59663 0 0)
(6.59161 0 0)
(6.58932 0 0)
(6.58431 0 0)
(6.57886 0 0)
(6.5734 0 0)
(6.56805 0 0)
(6.56268 0 0)
(6.55724 0 0)
(6.55177 0 0)
(6.54628 0 0)
(6.54076 0 0)
(6.53522 0 0)
(6.52965 0 0)
(6.52405 0 0)
(6.51841 0 0)
(6.51275 0 0)
(6.50705 0 0)
(6.50132 0 0)
(6.49555 0 0)
(6.48974 0 0)
(6.48391 0 0)
(6.47804 0 0)
(6.47211 0 0)
(6.46613 0 0)
(6.46011 0 0)
(6.45406 0 0)
(6.44795 0 0)
(6.44179 0 0)
(6.43558 0 0)
(6.42935 0 0)
(6.42302 0 0)
(6.41656 0 0)
(6.41011 0 0)
(6.40366 0 0)
(6.39712 0 0)
(6.39044 0 0)
(6.3837 0 0)
(6.37691 0 0)
(6.37005 0 0)
(6.36309 0 0)
(6.35606 0 0)
(6.34894 0 0)
(6.34173 0 0)
(6.33442 0 0)
(6.327 0 0)
(6.3195 0 0)
(6.31193 0 0)
(6.30425 0 0)
(6.29641 0 0)
(6.28846 0 0)
(6.28041 0 0)
(6.27227 0 0)
(6.264 0 0)
(6.25566 0 0)
(6.24717 0 0)
(6.23834 0 0)
(6.22945 0 0)
(6.22065 0 0)
(6.21174 0 0)
(6.20249 0 0)
(6.19308 0 0)
(6.18359 0 0)
(6.17396 0 0)
(6.16418 0 0)
(6.15424 0 0)
(6.14415 0 0)
(6.1339 0 0)
(6.12346 0 0)
(6.11288 0 0)
(6.10225 0 0)
(6.09146 0 0)
(6.08038 0 0)
(6.06908 0 0)
(6.05771 0 0)
(6.04626 0 0)
(6.03461 0 0)
(6.02289 0 0)
(6.01095 0 0)
(5.99852 0 0)
(5.98624 0 0)
(5.97404 0 0)
(5.9616 0 0)
(5.94877 0 0)
(5.93591 0 0)
(5.92296 0 0)
(5.90988 0 0)
(5.89667 0 0)
(5.88334 0 0)
(5.86991 0 0)
(5.85638 0 0)
(5.84275 0 0)
(5.82903 0 0)
(5.81517 0 0)
(5.80127 0 0)
(5.78748 0 0)
(5.77358 0 0)
(5.75945 0 0)
(5.74525 0 0)
(5.73116 0 0)
(5.71727 0 0)
(5.70338 0 0)
(5.68879 0 0)
(5.67449 0 0)
(5.66073 0 0)
(5.64707 0 0)
(5.633 0 0)
(5.61897 0 0)
(5.60523 0 0)
(5.59156 0 0)
(5.57799 0 0)
(5.56455 0 0)
(5.55126 0 0)
(5.53813 0 0)
(5.52517 0 0)
(5.5124 0 0)
(5.49984 0 0)
(5.48749 0 0)
(5.47524 0 0)
(5.46372 0 0)
(5.45164 0 0)
(5.4396 0 0)
(5.43064 0 0)
)
;

boundaryField
{
    boundary
    {
        type            empty;
    }
    inlet
    {
        type            fixedValue;
        value           uniform (2.34893 0 0);
    }
    outlet
    {
        type            zeroGradient;
    }
}


// ************************************************************************* //
