/*--------------------------------*- C++ -*----------------------------------*\
  =========                 |
  \\      /  F ield         | OpenFOAM: The Open Source CFD Toolbox
   \\    /   O peration     | Website:  https://openfoam.org
    \\  /    A nd           | Version:  7
     \\/     M anipulation  |
\*---------------------------------------------------------------------------*/
FoamFile
{
    version     2.0;
    format      ascii;
    class       volScalarField;
    location    "0.00086";
    object      H;
}
// * * * * * * * * * * * * * * * * * * * * * * * * * * * * * * * * * * * * * //

dimensions      [0 0 0 0 0 0 0];

internalField   nonuniform List<scalar> 
500
(
1.48613e-41
2.01349e-41
2.12763e-41
2.15263e-41
2.15835e-41
2.15982e-41
2.16023e-41
2.16025e-41
2.15996e-41
2.15936e-41
2.15844e-41
2.15717e-41
2.15557e-41
2.15367e-41
2.1515e-41
2.14912e-41
2.14661e-41
2.14403e-41
2.14149e-41
2.13905e-41
2.13681e-41
2.13483e-41
2.13318e-41
2.13193e-41
2.13112e-41
2.13078e-41
2.13095e-41
2.13163e-41
2.13286e-41
2.13464e-41
2.13699e-41
2.13993e-41
2.14348e-41
2.14769e-41
2.1526e-41
2.15826e-41
2.16475e-41
2.17215e-41
2.18054e-41
2.19004e-41
2.20074e-41
2.21277e-41
2.22624e-41
2.24126e-41
2.25797e-41
2.27645e-41
2.29682e-41
2.31914e-41
2.3435e-41
2.36992e-41
2.39844e-41
2.42904e-41
2.46169e-41
2.4963e-41
2.53279e-41
2.57099e-41
2.61075e-41
2.65185e-41
2.69405e-41
2.7371e-41
2.7807e-41
2.82455e-41
2.86834e-41
2.91176e-41
2.95449e-41
2.99624e-41
3.03672e-41
3.07568e-41
3.1129e-41
3.14818e-41
3.18138e-41
3.21239e-41
3.24112e-41
3.26756e-41
3.29169e-41
3.31357e-41
3.33325e-41
3.35083e-41
3.36642e-41
3.38015e-41
3.39215e-41
3.40257e-41
3.41155e-41
3.41924e-41
3.42579e-41
3.43132e-41
3.43597e-41
3.43984e-41
3.44306e-41
3.4457e-41
3.44787e-41
3.44964e-41
3.45106e-41
3.45221e-41
3.45314e-41
3.45387e-41
3.45446e-41
3.45492e-41
3.45528e-41
3.45557e-41
3.4558e-41
3.45598e-41
3.45613e-41
3.45625e-41
3.45634e-41
3.45642e-41
3.45649e-41
3.45655e-41
3.45661e-41
3.45666e-41
3.45671e-41
3.45676e-41
3.45681e-41
3.45685e-41
3.4569e-41
3.45695e-41
3.45701e-41
3.45706e-41
3.45712e-41
3.45718e-41
3.45724e-41
3.4573e-41
3.45736e-41
3.45741e-41
3.45743e-41
3.45745e-41
3.45754e-41
3.45764e-41
3.45774e-41
3.45786e-41
3.45799e-41
3.45814e-41
3.45829e-41
3.45846e-41
3.45864e-41
3.45883e-41
3.45901e-41
3.45919e-41
3.45937e-41
3.45954e-41
3.4597e-41
3.45985e-41
3.45999e-41
3.46011e-41
3.46023e-41
3.46033e-41
3.46043e-41
3.46053e-41
3.46062e-41
3.46071e-41
3.46081e-41
3.46092e-41
3.46103e-41
3.46115e-41
3.46129e-41
3.46143e-41
3.46158e-41
3.46174e-41
3.46192e-41
3.4621e-41
3.46228e-41
3.46248e-41
3.46267e-41
3.46288e-41
3.46308e-41
3.46329e-41
3.46351e-41
3.46372e-41
3.46394e-41
3.46416e-41
3.46438e-41
3.46461e-41
3.46483e-41
3.46506e-41
3.46529e-41
3.46552e-41
3.46575e-41
3.46599e-41
3.46623e-41
3.46647e-41
3.46671e-41
3.46695e-41
3.46719e-41
3.46744e-41
3.46768e-41
3.46793e-41
3.46818e-41
3.46842e-41
3.46867e-41
3.46891e-41
3.46915e-41
3.46938e-41
3.46961e-41
3.46984e-41
3.47006e-41
3.47027e-41
3.47048e-41
3.47068e-41
3.47087e-41
3.47105e-41
3.47123e-41
3.47139e-41
3.47154e-41
3.47167e-41
3.4718e-41
3.47191e-41
3.47202e-41
3.47213e-41
3.47232e-41
3.47277e-41
3.4741e-41
3.47835e-41
3.49199e-41
3.53583e-41
3.67621e-41
4.12412e-41
5.54844e-41
1.00634e-40
2.43326e-40
6.93045e-40
2.10671e-39
6.53968e-39
2.0409e-38
6.37108e-38
1.98642e-37
6.18354e-37
1.92178e-36
5.96364e-36
1.84807e-35
5.71982e-35
1.76832e-34
5.46142e-34
1.68528e-33
5.19646e-33
1.60126e-32
4.93151e-32
1.51816e-31
4.67233e-31
1.43781e-30
4.42503e-30
1.36244e-29
4.19854e-29
1.29581e-28
4.00925e-28
1.24526e-27
3.89036e-27
1.22588e-26
3.91065e-26
1.26904e-25
4.21336e-25
1.44017e-24
5.12406e-24
1.88849e-23
7.23372e-23
2.87808e-22
1.18461e-21
5.01579e-21
2.17199e-20
9.5699e-20
4.27348e-19
1.92914e-18
8.79306e-18
4.04788e-17
1.88548e-16
8.91851e-16
4.3078e-15
2.14069e-14
1.10394e-13
6.01697e-13
3.78642e-12
3.17286e-11
3.23997e-10
3.02941e-09
2.84218e-08
2.59703e-07
2.1832e-06
1.51274e-05
7.37449e-05
0.000224049
0.000469153
0.000790472
0.00115245
0.00148953
0.00173808
0.00187751
0.00192624
0.00191071
0.00185973
0.00179118
0.00171603
0.00164048
0.00156775
0.00149932
0.00143571
0.00137693
0.00132272
0.00127274
0.0012266
0.00118391
0.00114432
0.00110751
0.00107321
0.00104116
0.00101115
0.000982967
0.00095646
0.000931473
0.000907875
0.000885551
0.000864397
0.00084432
0.00082524
0.000807614
0.000791177
0.000775388
0.000760209
0.000745603
0.000731539
0.000717985
0.000704913
0.000692297
0.000680112
0.000668336
0.000656948
0.000645929
0.000635259
0.000624922
0.000614903
0.000605185
0.000595755
0.000586601
0.000577709
0.000569069
0.000560669
0.000552499
0.00054455
0.000536812
0.000529278
0.000521938
0.000514785
0.000507812
0.000501012
0.000494378
0.000487905
0.000481587
0.000475417
0.00046939
0.000463503
0.000457749
0.000452124
0.000446623
0.000441244
0.000435981
0.000430831
0.00042579
0.000420855
0.000416022
0.000411289
0.000406652
0.000402108
0.000397655
0.00039329
0.00038901
0.000384813
0.000380696
0.000376658
0.000372697
0.000368809
0.000364994
0.000361249
0.000357574
0.000353965
0.000350423
0.000346945
0.000343531
0.00034018
0.00033688
0.000333625
0.000330426
0.00032728
0.000324187
0.000321145
0.000318153
0.000315209
0.000312313
0.000309463
0.000306659
0.000303899
0.000301182
0.000298507
0.000295874
0.000293281
0.000290728
0.000288213
0.000285736
0.000283296
0.000280892
0.000278524
0.00027619
0.00027389
0.000271624
0.00026939
0.000267188
0.000265018
0.000262878
0.000260768
0.000258687
0.000256635
0.000254612
0.000252616
0.000250648
0.000248706
0.00024679
0.0002449
0.000243035
0.000241195
0.000239379
0.000237586
0.000235818
0.000234072
0.000232348
0.000230647
0.000228967
0.000227309
0.000225671
0.000224054
0.000222458
0.000220881
0.000219324
0.000217786
0.000216267
0.000214766
0.000213284
0.00021182
0.000210373
0.000208944
0.000207532
0.000206137
0.000204758
0.000203396
0.00020205
0.00020072
0.000199405
0.000198106
0.000196822
0.000195554
0.0001943
0.00019306
0.000191835
0.000190624
0.000189428
0.000188245
0.000187075
0.00018592
0.000184777
0.000183648
0.000182532
0.000181429
0.000180338
0.00017926
0.000178195
0.000177142
0.000176101
0.000175072
0.000174055
0.00017305
0.000172057
0.000171075
0.000170105
0.000169147
0.0001682
0.000167264
0.000166339
0.000165426
0.000164523
0.000163632
0.000162752
0.000161882
0.000161024
0.000160176
0.00015934
0.000158514
0.0001577
0.000156897
0.000156105
0.000155324
0.000154556
0.000153799
0.000153056
0.000152327
0.000151613
0.000150917
0.00015024
0.000149588
0.000148967
0.000148385
0.000147855
0.000147399
0.000147046
0.000146841
)
;

boundaryField
{
    boundary
    {
        type            empty;
    }
    inlet
    {
        type            fixedValue;
        value           uniform 0;
    }
    outlet
    {
        type            zeroGradient;
    }
}


// ************************************************************************* //
