/*--------------------------------*- C++ -*----------------------------------*\
  =========                 |
  \\      /  F ield         | OpenFOAM: The Open Source CFD Toolbox
   \\    /   O peration     | Website:  https://openfoam.org
    \\  /    A nd           | Version:  7
     \\/     M anipulation  |
\*---------------------------------------------------------------------------*/
FoamFile
{
    version     2.0;
    format      ascii;
    class       volScalarField;
    location    "0.00086";
    object      OH;
}
// * * * * * * * * * * * * * * * * * * * * * * * * * * * * * * * * * * * * * //

dimensions      [0 0 0 0 0 0 0];

internalField   nonuniform List<scalar> 
500
(
9.38478e-48
1.82909e-47
2.43816e-47
2.85071e-47
3.12963e-47
3.31833e-47
3.44621e-47
3.53301e-47
3.59199e-47
3.63201e-47
3.65905e-47
3.67711e-47
3.68893e-47
3.69637e-47
3.70076e-47
3.70303e-47
3.70389e-47
3.70386e-47
3.70337e-47
3.70277e-47
3.70234e-47
3.70231e-47
3.70288e-47
3.7042e-47
3.7064e-47
3.70956e-47
3.71376e-47
3.71904e-47
3.72544e-47
3.73301e-47
3.74177e-47
3.75179e-47
3.76311e-47
3.77583e-47
3.79004e-47
3.80588e-47
3.8235e-47
3.84308e-47
3.86484e-47
3.889e-47
3.91581e-47
3.94552e-47
3.97842e-47
4.01476e-47
4.05482e-47
4.09884e-47
4.14706e-47
4.19969e-47
4.25687e-47
4.31874e-47
4.38534e-47
4.4567e-47
4.53272e-47
4.61328e-47
4.69815e-47
4.78702e-47
4.87953e-47
4.9752e-47
5.07351e-47
5.17385e-47
5.27558e-47
5.37801e-47
5.4804e-47
5.58203e-47
5.68217e-47
5.78012e-47
5.8752e-47
5.96682e-47
6.05443e-47
6.13758e-47
6.21589e-47
6.28908e-47
6.35697e-47
6.41947e-47
6.47657e-47
6.52836e-47
6.57497e-47
6.61662e-47
6.65356e-47
6.68609e-47
6.71454e-47
6.73923e-47
6.76052e-47
6.77876e-47
6.79426e-47
6.80736e-47
6.81835e-47
6.82752e-47
6.83512e-47
6.84137e-47
6.84649e-47
6.85065e-47
6.85402e-47
6.85673e-47
6.8589e-47
6.86063e-47
6.862e-47
6.86309e-47
6.86394e-47
6.86462e-47
6.86516e-47
6.86558e-47
6.86592e-47
6.86619e-47
6.86642e-47
6.86661e-47
6.86677e-47
6.86691e-47
6.86704e-47
6.86716e-47
6.86728e-47
6.86739e-47
6.86751e-47
6.86762e-47
6.86774e-47
6.86786e-47
6.86798e-47
6.86811e-47
6.86824e-47
6.86838e-47
6.86851e-47
6.86865e-47
6.86875e-47
6.86877e-47
6.86851e-47
6.86806e-47
6.86826e-47
6.86849e-47
6.86873e-47
6.86901e-47
6.86931e-47
6.86965e-47
6.87002e-47
6.87042e-47
6.87084e-47
6.87127e-47
6.8717e-47
6.87214e-47
6.87256e-47
6.87296e-47
6.87335e-47
6.87371e-47
6.87404e-47
6.87435e-47
6.87464e-47
6.87491e-47
6.87516e-47
6.87542e-47
6.87567e-47
6.87593e-47
6.87621e-47
6.8765e-47
6.87681e-47
6.87715e-47
6.87752e-47
6.87791e-47
6.87832e-47
6.87876e-47
6.87921e-47
6.87969e-47
6.88018e-47
6.88068e-47
6.88118e-47
6.8817e-47
6.88222e-47
6.88275e-47
6.88327e-47
6.8838e-47
6.88433e-47
6.88486e-47
6.8854e-47
6.88593e-47
6.88647e-47
6.88701e-47
6.88756e-47
6.88811e-47
6.88867e-47
6.88922e-47
6.88979e-47
6.89036e-47
6.89093e-47
6.89151e-47
6.89209e-47
6.89268e-47
6.89327e-47
6.89386e-47
6.89445e-47
6.89503e-47
6.89562e-47
6.89621e-47
6.89679e-47
6.89741e-47
6.89815e-47
6.89933e-47
6.90211e-47
6.91049e-47
6.9384e-47
7.03398e-47
7.36262e-47
8.48965e-47
1.23378e-46
2.54129e-46
6.96192e-46
2.18344e-45
7.16277e-45
2.37541e-44
7.87781e-44
2.60426e-43
8.57402e-43
2.81078e-42
9.17533e-42
2.98272e-41
9.6572e-41
3.11457e-40
1.00073e-39
3.20382e-39
1.02217e-38
3.25052e-38
1.03045e-37
3.25697e-37
1.02658e-36
3.22729e-36
1.01209e-35
3.16676e-35
9.8877e-35
3.0813e-34
9.58517e-34
2.97689e-33
9.23184e-33
2.85918e-32
8.84468e-32
2.7332e-31
8.43848e-31
2.60326e-30
8.02582e-30
2.47308e-29
7.61777e-29
2.34606e-28
7.22556e-28
2.22617e-27
6.86421e-27
2.11951e-26
6.55966e-26
2.03746e-25
6.36299e-25
2.00316e-24
6.37934e-24
2.06451e-23
6.82719e-23
2.32115e-22
8.16088e-22
2.99624e-21
1.14128e-20
4.50986e-20
1.84408e-19
7.76138e-19
3.34222e-18
1.46432e-17
6.4968e-17
2.90831e-16
1.31003e-15
5.92603e-15
2.68839e-14
1.22193e-13
5.56085e-13
2.53269e-12
1.15412e-11
5.26117e-11
2.40624e-10
1.11516e-09
5.2172e-09
2.45662e-08
1.17592e-07
5.94583e-07
3.4377e-06
2.32122e-05
0.000143547
0.000482211
0.000767526
0.000919794
0.00122233
0.00191437
0.00303177
0.00438915
0.00574776
0.00711286
0.00812116
0.0089168
0.009538
0.0100221
0.0104015
0.0107013
0.0109403
0.0111325
0.011288
0.0114143
0.011517
0.0116004
0.0116678
0.0117218
0.0117644
0.0117974
0.0118222
0.0118398
0.0118512
0.0118572
0.0118586
0.0118558
0.0118494
0.0118399
0.0118275
0.0118126
0.0117962
0.0117784
0.0117591
0.0117384
0.0117164
0.0116932
0.011669
0.0116438
0.0116178
0.011591
0.0115634
0.0115353
0.0115066
0.0114774
0.0114477
0.0114177
0.0113872
0.0113565
0.0113255
0.0112942
0.0112628
0.0112311
0.0111994
0.0111674
0.0111354
0.0111033
0.0110712
0.011039
0.0110068
0.0109745
0.0109423
0.0109101
0.010878
0.0108459
0.0108139
0.0107819
0.01075
0.0107183
0.0106866
0.010655
0.0106235
0.0105922
0.010561
0.0105299
0.0104989
0.0104681
0.0104375
0.0104069
0.0103765
0.0103463
0.0103162
0.0102863
0.0102565
0.0102269
0.0101974
0.0101681
0.0101389
0.0101099
0.0100811
0.0100523
0.0100238
0.00999542
0.00996722
0.00993923
0.00991132
0.00988333
0.00985549
0.00982778
0.0098002
0.00977275
0.00974543
0.00971824
0.00969118
0.00966424
0.00963743
0.00961074
0.00958419
0.00955776
0.00953146
0.00950529
0.00947925
0.00945334
0.00942757
0.00940192
0.00937641
0.00935103
0.00932578
0.00930067
0.00927569
0.00925085
0.00922614
0.00920157
0.00917714
0.00915285
0.00912869
0.00910467
0.00908078
0.00905703
0.00903342
0.00900994
0.0089866
0.00896339
0.00894031
0.00891737
0.00889456
0.00887188
0.00884934
0.00882692
0.00880463
0.00878247
0.00876044
0.00873853
0.00871675
0.0086951
0.00867357
0.00865216
0.00863088
0.00860972
0.00858869
0.00856777
0.00854698
0.00852631
0.00850576
0.00848533
0.00846502
0.00844483
0.00842476
0.00840481
0.00838498
0.00836527
0.00834568
0.00832621
0.00830686
0.00828763
0.00826851
0.00824952
0.00823064
0.00821188
0.00819323
0.00817471
0.00815629
0.008138
0.00811982
0.00810175
0.00808379
0.00806595
0.00804822
0.00803059
0.00801308
0.00799567
0.00797837
0.00796117
0.00794408
0.00792709
0.00791019
0.0078934
0.0078767
0.0078601
0.00784359
0.00782717
0.00781083
0.00779459
0.00777843
0.00776235
0.00774635
0.00773043
0.00771458
0.00769881
0.0076831
0.00766747
0.0076519
0.00763639
0.00762094
0.00760556
0.00759023
0.00757497
0.00755978
0.00754466
0.00752963
0.00751472
0.00749998
0.00748546
0.00747127
0.00745761
0.00744475
0.00743318
0.00742368
0.0074176
)
;

boundaryField
{
    boundary
    {
        type            empty;
    }
    inlet
    {
        type            fixedValue;
        value           uniform 0;
    }
    outlet
    {
        type            zeroGradient;
    }
}


// ************************************************************************* //
