/*--------------------------------*- C++ -*----------------------------------*\
  =========                 |
  \\      /  F ield         | OpenFOAM: The Open Source CFD Toolbox
   \\    /   O peration     | Website:  https://openfoam.org
    \\  /    A nd           | Version:  7
     \\/     M anipulation  |
\*---------------------------------------------------------------------------*/
FoamFile
{
    version     2.0;
    format      ascii;
    class       surfaceScalarField;
    location    "0.00086";
    object      phi;
}
// * * * * * * * * * * * * * * * * * * * * * * * * * * * * * * * * * * * * * //

dimensions      [1 0 -1 0 0 0 0];

internalField   nonuniform List<scalar> 
499
(
6.93045e-06
6.93037e-06
6.93029e-06
6.93022e-06
6.93014e-06
6.93007e-06
6.93e-06
6.92994e-06
6.92989e-06
6.92985e-06
6.92982e-06
6.9298e-06
6.92979e-06
6.92979e-06
6.92981e-06
6.92983e-06
6.92986e-06
6.92989e-06
6.92992e-06
6.92996e-06
6.92998e-06
6.93e-06
6.93001e-06
6.93001e-06
6.92999e-06
6.92995e-06
6.9299e-06
6.92983e-06
6.92975e-06
6.92964e-06
6.92951e-06
6.92937e-06
6.9292e-06
6.92902e-06
6.92881e-06
6.92857e-06
6.92831e-06
6.92802e-06
6.92771e-06
6.92735e-06
6.92696e-06
6.92653e-06
6.92605e-06
6.92553e-06
6.92496e-06
6.92434e-06
6.92366e-06
6.92292e-06
6.92213e-06
6.92127e-06
6.92037e-06
6.9194e-06
6.91839e-06
6.91732e-06
6.91622e-06
6.91507e-06
6.91389e-06
6.91269e-06
6.91147e-06
6.91024e-06
6.90901e-06
6.90778e-06
6.90657e-06
6.90539e-06
6.90423e-06
6.90311e-06
6.90203e-06
6.901e-06
6.90002e-06
6.8991e-06
6.89824e-06
6.89743e-06
6.89668e-06
6.89599e-06
6.89536e-06
6.89478e-06
6.89426e-06
6.89379e-06
6.89337e-06
6.89299e-06
6.89265e-06
6.89235e-06
6.89208e-06
6.89185e-06
6.89164e-06
6.89145e-06
6.89129e-06
6.89114e-06
6.89101e-06
6.89089e-06
6.89078e-06
6.89069e-06
6.8906e-06
6.89051e-06
6.89044e-06
6.89036e-06
6.89029e-06
6.89023e-06
6.89016e-06
6.8901e-06
6.89004e-06
6.88998e-06
6.88992e-06
6.88987e-06
6.88981e-06
6.88975e-06
6.8897e-06
6.88964e-06
6.88958e-06
6.88953e-06
6.88947e-06
6.88942e-06
6.88936e-06
6.88931e-06
6.88925e-06
6.88919e-06
6.88914e-06
6.88908e-06
6.88903e-06
6.88897e-06
6.88892e-06
6.88886e-06
6.88881e-06
6.88875e-06
6.88869e-06
6.88864e-06
6.88858e-06
6.88853e-06
6.88847e-06
6.88841e-06
6.88836e-06
6.8883e-06
6.88824e-06
6.88818e-06
6.88813e-06
6.88807e-06
6.88801e-06
6.88795e-06
6.8879e-06
6.88784e-06
6.88778e-06
6.88773e-06
6.88767e-06
6.88761e-06
6.88756e-06
6.8875e-06
6.88745e-06
6.88739e-06
6.88734e-06
6.88728e-06
6.88723e-06
6.88717e-06
6.88712e-06
6.88706e-06
6.88701e-06
6.88695e-06
6.88689e-06
6.88684e-06
6.88678e-06
6.88673e-06
6.88667e-06
6.88661e-06
6.88656e-06
6.8865e-06
6.88644e-06
6.88639e-06
6.88633e-06
6.88627e-06
6.88622e-06
6.88616e-06
6.8861e-06
6.88605e-06
6.88599e-06
6.88593e-06
6.88588e-06
6.88582e-06
6.88576e-06
6.88571e-06
6.88565e-06
6.88559e-06
6.88554e-06
6.88548e-06
6.88542e-06
6.88537e-06
6.88531e-06
6.88525e-06
6.8852e-06
6.88514e-06
6.88508e-06
6.88503e-06
6.88497e-06
6.88492e-06
6.88486e-06
6.8848e-06
6.88475e-06
6.88469e-06
6.88464e-06
6.88458e-06
6.88453e-06
6.88447e-06
6.88442e-06
6.88436e-06
6.88431e-06
6.88426e-06
6.8842e-06
6.88415e-06
6.8841e-06
6.88405e-06
6.88399e-06
6.88394e-06
6.88389e-06
6.88384e-06
6.88379e-06
6.88374e-06
6.88369e-06
6.88364e-06
6.88359e-06
6.88354e-06
6.8835e-06
6.88345e-06
6.8834e-06
6.88336e-06
6.88331e-06
6.88327e-06
6.88323e-06
6.88318e-06
6.88314e-06
6.8831e-06
6.88306e-06
6.88302e-06
6.88298e-06
6.88294e-06
6.8829e-06
6.88287e-06
6.88283e-06
6.8828e-06
6.88276e-06
6.88273e-06
6.8827e-06
6.88267e-06
6.88264e-06
6.88261e-06
6.88258e-06
6.88256e-06
6.88253e-06
6.88251e-06
6.88249e-06
6.88246e-06
6.88244e-06
6.88242e-06
6.88241e-06
6.88239e-06
6.88237e-06
6.88236e-06
6.88235e-06
6.88233e-06
6.88232e-06
6.88231e-06
6.8823e-06
6.88229e-06
6.88228e-06
6.88228e-06
6.88227e-06
6.88227e-06
6.88227e-06
6.88226e-06
6.88227e-06
6.88228e-06
6.88231e-06
6.88242e-06
6.88277e-06
6.88383e-06
6.88698e-06
6.896e-06
6.91964e-06
6.9686e-06
7.03431e-06
7.09039e-06
7.12786e-06
7.15231e-06
7.16923e-06
7.18134e-06
7.19e-06
7.19621e-06
7.20067e-06
7.20396e-06
7.20647e-06
7.20846e-06
7.21008e-06
7.21144e-06
7.21259e-06
7.21359e-06
7.21446e-06
7.21523e-06
7.21591e-06
7.21653e-06
7.21708e-06
7.21759e-06
7.21805e-06
7.21848e-06
7.21887e-06
7.21923e-06
7.21957e-06
7.21988e-06
7.22017e-06
7.22044e-06
7.2207e-06
7.22094e-06
7.22117e-06
7.22138e-06
7.22159e-06
7.22178e-06
7.22195e-06
7.22211e-06
7.22227e-06
7.22242e-06
7.22257e-06
7.22271e-06
7.22285e-06
7.22298e-06
7.2231e-06
7.22323e-06
7.22335e-06
7.22346e-06
7.22357e-06
7.22368e-06
7.22379e-06
7.2239e-06
7.224e-06
7.2241e-06
7.2242e-06
7.22429e-06
7.22439e-06
7.22448e-06
7.22457e-06
7.22466e-06
7.22475e-06
7.22483e-06
7.22492e-06
7.225e-06
7.22508e-06
7.22516e-06
7.22524e-06
7.22532e-06
7.22539e-06
7.22546e-06
7.22554e-06
7.22561e-06
7.22567e-06
7.22574e-06
7.22581e-06
7.22587e-06
7.22593e-06
7.22599e-06
7.22604e-06
7.2261e-06
7.22615e-06
7.2262e-06
7.22625e-06
7.2263e-06
7.22634e-06
7.22639e-06
7.22643e-06
7.22647e-06
7.22651e-06
7.22655e-06
7.22659e-06
7.22662e-06
7.22666e-06
7.22669e-06
7.22673e-06
7.22676e-06
7.2268e-06
7.22683e-06
7.22686e-06
7.2269e-06
7.22693e-06
7.22697e-06
7.22701e-06
7.22704e-06
7.22708e-06
7.22712e-06
7.22715e-06
7.22719e-06
7.22723e-06
7.22727e-06
7.22731e-06
7.22735e-06
7.22739e-06
7.22743e-06
7.22747e-06
7.22751e-06
7.22755e-06
7.22759e-06
7.22763e-06
7.22766e-06
7.2277e-06
7.22774e-06
7.22778e-06
7.22781e-06
7.22785e-06
7.22788e-06
7.22792e-06
7.22795e-06
7.22798e-06
7.22801e-06
7.22804e-06
7.22807e-06
7.2281e-06
7.22813e-06
7.22816e-06
7.22818e-06
7.22821e-06
7.22823e-06
7.22825e-06
7.22827e-06
7.22829e-06
7.22831e-06
7.22833e-06
7.22835e-06
7.22837e-06
7.22838e-06
7.2284e-06
7.22841e-06
7.22843e-06
7.22844e-06
7.22845e-06
7.22847e-06
7.22848e-06
7.22849e-06
7.2285e-06
7.22851e-06
7.22851e-06
7.22852e-06
7.22853e-06
7.22853e-06
7.22854e-06
7.22854e-06
7.22854e-06
7.22854e-06
7.22854e-06
7.22854e-06
7.22854e-06
7.22854e-06
7.22853e-06
7.22853e-06
7.22852e-06
7.22851e-06
7.2285e-06
7.22849e-06
7.22847e-06
7.22846e-06
7.22844e-06
7.22843e-06
7.22841e-06
7.22838e-06
7.22836e-06
7.22834e-06
7.22831e-06
7.22828e-06
7.22825e-06
7.22822e-06
7.22818e-06
7.22815e-06
7.22811e-06
7.22807e-06
7.22803e-06
7.22799e-06
7.22794e-06
7.22789e-06
7.22784e-06
7.22779e-06
7.22774e-06
7.22768e-06
7.22762e-06
7.22756e-06
7.2275e-06
7.22743e-06
7.22736e-06
7.22729e-06
7.22722e-06
7.22715e-06
7.22707e-06
7.22699e-06
7.2269e-06
7.22682e-06
7.22673e-06
7.22664e-06
7.22655e-06
7.22646e-06
7.22636e-06
7.22626e-06
7.22617e-06
7.22607e-06
7.22597e-06
7.22587e-06
7.22577e-06
7.22568e-06
7.22559e-06
)
;

boundaryField
{
    boundary
    {
        type            empty;
        value           nonuniform 0();
    }
    inlet
    {
        type            calculated;
        value           uniform -6.93052e-06;
    }
    outlet
    {
        type            calculated;
        value           uniform 7.22549e-06;
    }
}


// ************************************************************************* //
