/*--------------------------------*- C++ -*----------------------------------*\
  =========                 |
  \\      /  F ield         | OpenFOAM: The Open Source CFD Toolbox
   \\    /   O peration     | Website:  https://openfoam.org
    \\  /    A nd           | Version:  7
     \\/     M anipulation  |
\*---------------------------------------------------------------------------*/
FoamFile
{
    version     2.0;
    format      ascii;
    class       volScalarField;
    location    "0.00086";
    object      rho;
}
// * * * * * * * * * * * * * * * * * * * * * * * * * * * * * * * * * * * * * //

dimensions      [1 -3 0 0 0 0 0];

internalField   nonuniform List<scalar> 
500
(
0.86472
0.864718
0.864715
0.864713
0.864711
0.86471
0.864709
0.864709
0.86471
0.864713
0.864717
0.864722
0.864729
0.864737
0.864747
0.864757
0.864768
0.864779
0.86479
0.8648
0.86481
0.864819
0.864826
0.864831
0.864835
0.864836
0.864836
0.864833
0.864827
0.86482
0.86481
0.864797
0.864782
0.864763
0.864742
0.864718
0.864691
0.864659
0.864624
0.864584
0.864539
0.864489
0.864433
0.864371
0.864302
0.864227
0.864145
0.864056
0.86396
0.863856
0.863746
0.863629
0.863506
0.863377
0.863243
0.863105
0.862964
0.86282
0.862674
0.862528
0.862382
0.862237
0.862095
0.861957
0.861822
0.861693
0.861569
0.861451
0.86134
0.861236
0.861139
0.86105
0.860968
0.860893
0.860825
0.860764
0.860709
0.860661
0.860618
0.860581
0.860548
0.86052
0.860496
0.860475
0.860457
0.860443
0.86043
0.86042
0.860411
0.860404
0.860398
0.860394
0.86039
0.860387
0.860384
0.860382
0.860381
0.86038
0.860379
0.860378
0.860377
0.860377
0.860377
0.860376
0.860376
0.860376
0.860376
0.860375
0.860375
0.860375
0.860375
0.860375
0.860375
0.860375
0.860374
0.860374
0.860374
0.860374
0.860374
0.860374
0.860374
0.860373
0.860373
0.860373
0.860373
0.860373
0.860373
0.860373
0.860372
0.860372
0.860372
0.860371
0.860371
0.86037
0.86037
0.860369
0.860369
0.860368
0.860368
0.860367
0.860367
0.860367
0.860366
0.860366
0.860366
0.860365
0.860365
0.860365
0.860365
0.860364
0.860364
0.860364
0.860364
0.860363
0.860363
0.860363
0.860362
0.860362
0.860361
0.860361
0.86036
0.86036
0.860359
0.860359
0.860358
0.860358
0.860357
0.860356
0.860356
0.860355
0.860355
0.860354
0.860354
0.860353
0.860352
0.860352
0.860351
0.86035
0.86035
0.860349
0.860349
0.860348
0.860347
0.860347
0.860346
0.860345
0.860345
0.860344
0.860343
0.860343
0.860342
0.860341
0.860341
0.86034
0.86034
0.860339
0.860339
0.860338
0.860338
0.860337
0.860337
0.860336
0.860336
0.860335
0.860335
0.860335
0.860335
0.860334
0.860334
0.860334
0.860334
0.860334
0.860334
0.860334
0.860334
0.860335
0.860335
0.860335
0.860336
0.860336
0.860337
0.860337
0.860338
0.860339
0.86034
0.860341
0.860342
0.860343
0.860344
0.860345
0.860347
0.860348
0.86035
0.860352
0.860354
0.860356
0.860358
0.86036
0.860363
0.860365
0.860368
0.860371
0.860374
0.860377
0.86038
0.860383
0.860387
0.86039
0.860394
0.860398
0.860403
0.860408
0.860412
0.860417
0.860421
0.860426
0.860431
0.860436
0.860442
0.860447
0.860452
0.860458
0.860464
0.860471
0.860478
0.860485
0.86049
0.860488
0.860457
0.860329
0.8599
0.858552
0.854484
0.842619
0.810142
0.734572
0.609518
0.477743
0.379981
0.316275
0.27366
0.243638
0.222236
0.207312
0.196225
0.187553
0.181273
0.176596
0.172803
0.169668
0.167021
0.164746
0.162764
0.161016
0.15946
0.158061
0.156797
0.155645
0.154592
0.153623
0.152727
0.151897
0.151125
0.150404
0.149729
0.149096
0.1485
0.147938
0.147407
0.146905
0.146429
0.145978
0.145562
0.145173
0.144798
0.144437
0.14409
0.143756
0.143434
0.143123
0.142823
0.142533
0.142252
0.141981
0.141718
0.141463
0.141216
0.140976
0.140743
0.140517
0.140297
0.140083
0.139875
0.139672
0.139475
0.139283
0.139096
0.138913
0.138735
0.138561
0.138391
0.138225
0.138063
0.137904
0.13775
0.137598
0.13745
0.137305
0.137162
0.137023
0.136887
0.136753
0.136622
0.136494
0.136368
0.136244
0.136123
0.136004
0.135887
0.135772
0.13566
0.135549
0.13544
0.135333
0.135228
0.135125
0.135023
0.134924
0.134825
0.134729
0.134634
0.13454
0.134448
0.134358
0.134269
0.134182
0.134096
0.134011
0.133927
0.133844
0.133763
0.133683
0.133604
0.133526
0.133449
0.133373
0.133299
0.133225
0.133152
0.133081
0.13301
0.13294
0.132872
0.132804
0.132737
0.132671
0.132606
0.132541
0.132478
0.132415
0.132353
0.132291
0.132231
0.132171
0.132112
0.132054
0.131996
0.131939
0.131883
0.131827
0.131772
0.131717
0.131663
0.13161
0.131558
0.131505
0.131454
0.131403
0.131353
0.131303
0.131253
0.131205
0.131156
0.131109
0.131061
0.131015
0.130968
0.130923
0.130877
0.130832
0.130788
0.130744
0.1307
0.130657
0.130615
0.130572
0.130531
0.130489
0.130448
0.130407
0.130367
0.130327
0.130288
0.130248
0.13021
0.130171
0.130133
0.130095
0.130058
0.130021
0.129984
0.129947
0.129911
0.129875
0.12984
0.129804
0.129769
0.129735
0.1297
0.129666
0.129632
0.129599
0.129565
0.129532
0.129499
0.129467
0.129434
0.129402
0.12937
0.129339
0.129307
0.129276
0.129245
0.129215
0.129184
0.129154
0.129124
0.129094
0.129064
0.129035
0.129005
0.128976
0.128947
0.128918
0.12889
0.128861
0.128833
0.128805
0.128777
0.128749
0.128721
0.128694
0.128666
0.128639
0.128611
0.128584
0.128558
0.128532
0.12851
0.128495
)
;

boundaryField
{
    boundary
    {
        type            empty;
    }
    inlet
    {
        type            calculated;
        value           uniform 0.864722;
    }
    outlet
    {
        type            calculated;
        value           uniform 0.128495;
    }
}


// ************************************************************************* //
