/*--------------------------------*- C++ -*----------------------------------*\
  =========                 |
  \\      /  F ield         | OpenFOAM: The Open Source CFD Toolbox
   \\    /   O peration     | Website:  https://openfoam.org
    \\  /    A nd           | Version:  7
     \\/     M anipulation  |
\*---------------------------------------------------------------------------*/
FoamFile
{
    version     2.0;
    format      ascii;
    class       volScalarField;
    location    "0.00086";
    object      T;
}
// * * * * * * * * * * * * * * * * * * * * * * * * * * * * * * * * * * * * * //

dimensions      [0 0 0 1 0 0 0];

internalField   nonuniform List<scalar> 
500
(
300.001
300.002
300.002
300.003
300.004
300.004
300.005
300.004
300.004
300.003
300.002
300
299.998
299.995
299.991
299.988
299.984
299.98
299.976
299.973
299.969
299.966
299.964
299.962
299.961
299.96
299.961
299.962
299.963
299.966
299.97
299.974
299.979
299.986
299.993
300.001
300.011
300.022
300.034
300.048
300.064
300.081
300.1
300.122
300.146
300.172
300.2
300.231
300.265
300.301
300.339
300.38
300.422
300.467
300.514
300.562
300.611
300.661
300.712
300.763
300.814
300.865
300.914
300.963
301.009
301.055
301.098
301.139
301.178
301.214
301.248
301.279
301.308
301.334
301.358
301.379
301.399
301.416
301.431
301.444
301.455
301.465
301.473
301.481
301.487
301.492
301.496
301.5
301.503
301.506
301.508
301.509
301.511
301.512
301.512
301.513
301.514
301.514
301.514
301.515
301.515
301.515
301.515
301.515
301.515
301.516
301.516
301.516
301.516
301.516
301.516
301.516
301.516
301.516
301.516
301.516
301.516
301.516
301.516
301.516
301.516
301.516
301.516
301.516
301.516
301.516
301.517
301.517
301.517
301.517
301.517
301.517
301.517
301.517
301.518
301.518
301.518
301.518
301.518
301.518
301.519
301.519
301.519
301.519
301.519
301.519
301.519
301.519
301.519
301.52
301.52
301.52
301.52
301.52
301.52
301.52
301.52
301.52
301.521
301.521
301.521
301.521
301.521
301.522
301.522
301.522
301.522
301.522
301.523
301.523
301.523
301.523
301.523
301.524
301.524
301.524
301.524
301.524
301.525
301.525
301.525
301.525
301.526
301.526
301.526
301.526
301.526
301.527
301.527
301.527
301.527
301.528
301.528
301.528
301.528
301.528
301.529
301.529
301.529
301.529
301.529
301.529
301.53
301.53
301.53
301.53
301.53
301.53
301.53
301.53
301.53
301.53
301.53
301.53
301.53
301.53
301.53
301.53
301.53
301.53
301.529
301.529
301.529
301.529
301.528
301.528
301.528
301.527
301.527
301.526
301.526
301.525
301.525
301.524
301.523
301.523
301.522
301.521
301.52
301.519
301.518
301.517
301.516
301.515
301.514
301.513
301.512
301.511
301.509
301.508
301.506
301.505
301.503
301.501
301.5
301.498
301.496
301.495
301.493
301.491
301.489
301.487
301.485
301.483
301.481
301.48
301.481
301.488
301.511
301.582
301.787
302.373
304.045
308.804
322.158
357.25
434.226
560.101
712.735
866.645
1012.71
1147.91
1267.06
1364.98
1447.6
1518.03
1574.23
1619.22
1657.8
1691.28
1720.75
1747
1770.62
1792.04
1811.61
1829.6
1846.21
1861.63
1875.99
1889.41
1902
1913.83
1925
1935.54
1945.54
1955.02
1964.04
1972.62
1980.81
1988.63
1996.1
2003.24
2009.88
2016.13
2022.2
2028.06
2033.74
2039.25
2044.59
2049.77
2054.8
2059.68
2064.43
2069.06
2073.56
2077.94
2082.21
2086.37
2090.42
2094.38
2098.25
2102.02
2105.7
2109.3
2112.82
2116.27
2119.64
2122.93
2126.16
2129.32
2132.42
2135.45
2138.42
2141.34
2144.2
2147.01
2149.76
2152.46
2155.12
2157.72
2160.28
2162.8
2165.27
2167.7
2170.09
2172.45
2174.76
2177.03
2179.27
2181.48
2183.64
2185.78
2187.88
2189.95
2192
2194.01
2195.99
2197.94
2199.86
2201.76
2203.62
2205.46
2207.28
2209.07
2210.82
2212.55
2214.27
2215.96
2217.63
2219.28
2220.91
2222.52
2224.1
2225.67
2227.21
2228.74
2230.25
2231.73
2233.2
2234.65
2236.09
2237.5
2238.9
2240.28
2241.65
2243
2244.33
2245.65
2246.96
2248.24
2249.52
2250.78
2252.03
2253.26
2254.48
2255.69
2256.88
2258.06
2259.23
2260.39
2261.53
2262.66
2263.78
2264.89
2265.99
2267.08
2268.16
2269.22
2270.28
2271.32
2272.36
2273.38
2274.4
2275.4
2276.4
2277.38
2278.36
2279.33
2280.28
2281.23
2282.17
2283.11
2284.03
2284.95
2285.85
2286.75
2287.64
2288.53
2289.4
2290.27
2291.13
2291.98
2292.83
2293.66
2294.5
2295.32
2296.14
2296.95
2297.75
2298.55
2299.34
2300.12
2300.9
2301.67
2302.44
2303.2
2303.95
2304.7
2305.44
2306.18
2306.91
2307.63
2308.35
2309.06
2309.77
2310.47
2311.17
2311.86
2312.54
2313.22
2313.9
2314.57
2315.23
2315.89
2316.55
2317.2
2317.84
2318.48
2319.11
2319.74
2320.36
2320.98
2321.59
2322.2
2322.8
2323.4
2323.99
2324.58
2325.16
2325.73
2326.3
2326.87
2327.42
2327.97
2328.52
2329.05
2329.56
2330.04
2330.45
2330.73
)
;

boundaryField
{
    boundary
    {
        type            empty;
    }
    inlet
    {
        type            fixedValue;
        value           uniform 300;
    }
    outlet
    {
        type            zeroGradient;
    }
}


// ************************************************************************* //
