/*--------------------------------*- C++ -*----------------------------------*\
  =========                 |
  \\      /  F ield         | OpenFOAM: The Open Source CFD Toolbox
   \\    /   O peration     | Website:  https://openfoam.org
    \\  /    A nd           | Version:  7
     \\/     M anipulation  |
\*---------------------------------------------------------------------------*/
FoamFile
{
    version     2.0;
    format      ascii;
    class       volVectorField;
    location    "0.00086";
    object      U;
}
// * * * * * * * * * * * * * * * * * * * * * * * * * * * * * * * * * * * * * //

dimensions      [0 1 -1 0 0 0 0];

internalField   nonuniform List<vector> 
500
(
(2.34893 0 0)
(2.34891 0 0)
(2.34889 0 0)
(2.34887 0 0)
(2.34885 0 0)
(2.34882 0 0)
(2.3488 0 0)
(2.34878 0 0)
(2.34876 0 0)
(2.34874 0 0)
(2.34871 0 0)
(2.34869 0 0)
(2.34866 0 0)
(2.34864 0 0)
(2.34862 0 0)
(2.3486 0 0)
(2.34858 0 0)
(2.34856 0 0)
(2.34854 0 0)
(2.34852 0 0)
(2.34851 0 0)
(2.34849 0 0)
(2.34848 0 0)
(2.34846 0 0)
(2.34845 0 0)
(2.34844 0 0)
(2.34842 0 0)
(2.34841 0 0)
(2.3484 0 0)
(2.34839 0 0)
(2.34838 0 0)
(2.34836 0 0)
(2.34835 0 0)
(2.34834 0 0)
(2.34833 0 0)
(2.34832 0 0)
(2.34832 0 0)
(2.34831 0 0)
(2.3483 0 0)
(2.3483 0 0)
(2.34829 0 0)
(2.34829 0 0)
(2.34829 0 0)
(2.34829 0 0)
(2.34829 0 0)
(2.34829 0 0)
(2.34829 0 0)
(2.34829 0 0)
(2.3483 0 0)
(2.3483 0 0)
(2.3483 0 0)
(2.3483 0 0)
(2.3483 0 0)
(2.3483 0 0)
(2.34829 0 0)
(2.34828 0 0)
(2.34827 0 0)
(2.34826 0 0)
(2.34825 0 0)
(2.34823 0 0)
(2.3482 0 0)
(2.34818 0 0)
(2.34815 0 0)
(2.34812 0 0)
(2.34809 0 0)
(2.34805 0 0)
(2.34802 0 0)
(2.34798 0 0)
(2.34794 0 0)
(2.3479 0 0)
(2.34786 0 0)
(2.34782 0 0)
(2.34778 0 0)
(2.34774 0 0)
(2.3477 0 0)
(2.34766 0 0)
(2.34762 0 0)
(2.34758 0 0)
(2.34755 0 0)
(2.34751 0 0)
(2.34748 0 0)
(2.34745 0 0)
(2.34742 0 0)
(2.34739 0 0)
(2.34736 0 0)
(2.34734 0 0)
(2.34731 0 0)
(2.34729 0 0)
(2.34726 0 0)
(2.34724 0 0)
(2.34722 0 0)
(2.3472 0 0)
(2.34717 0 0)
(2.34715 0 0)
(2.34713 0 0)
(2.34711 0 0)
(2.34709 0 0)
(2.34707 0 0)
(2.34705 0 0)
(2.34703 0 0)
(2.34702 0 0)
(2.347 0 0)
(2.34698 0 0)
(2.34696 0 0)
(2.34694 0 0)
(2.34692 0 0)
(2.3469 0 0)
(2.34688 0 0)
(2.34686 0 0)
(2.34685 0 0)
(2.34683 0 0)
(2.34681 0 0)
(2.34679 0 0)
(2.34677 0 0)
(2.34675 0 0)
(2.34673 0 0)
(2.34672 0 0)
(2.3467 0 0)
(2.34668 0 0)
(2.34666 0 0)
(2.34664 0 0)
(2.34662 0 0)
(2.3466 0 0)
(2.34659 0 0)
(2.34657 0 0)
(2.34655 0 0)
(2.34653 0 0)
(2.34651 0 0)
(2.34649 0 0)
(2.34647 0 0)
(2.34646 0 0)
(2.34644 0 0)
(2.34642 0 0)
(2.3464 0 0)
(2.34638 0 0)
(2.34636 0 0)
(2.34635 0 0)
(2.34633 0 0)
(2.34631 0 0)
(2.34629 0 0)
(2.34627 0 0)
(2.34625 0 0)
(2.34624 0 0)
(2.34622 0 0)
(2.3462 0 0)
(2.34618 0 0)
(2.34616 0 0)
(2.34615 0 0)
(2.34613 0 0)
(2.34611 0 0)
(2.34609 0 0)
(2.34607 0 0)
(2.34606 0 0)
(2.34604 0 0)
(2.34602 0 0)
(2.346 0 0)
(2.34598 0 0)
(2.34597 0 0)
(2.34595 0 0)
(2.34593 0 0)
(2.34591 0 0)
(2.34589 0 0)
(2.34588 0 0)
(2.34586 0 0)
(2.34584 0 0)
(2.34582 0 0)
(2.34581 0 0)
(2.34579 0 0)
(2.34577 0 0)
(2.34575 0 0)
(2.34573 0 0)
(2.34572 0 0)
(2.3457 0 0)
(2.34568 0 0)
(2.34566 0 0)
(2.34565 0 0)
(2.34563 0 0)
(2.34561 0 0)
(2.34559 0 0)
(2.34558 0 0)
(2.34556 0 0)
(2.34554 0 0)
(2.34552 0 0)
(2.34551 0 0)
(2.34549 0 0)
(2.34547 0 0)
(2.34545 0 0)
(2.34544 0 0)
(2.34542 0 0)
(2.3454 0 0)
(2.34538 0 0)
(2.34537 0 0)
(2.34535 0 0)
(2.34533 0 0)
(2.34531 0 0)
(2.3453 0 0)
(2.34528 0 0)
(2.34526 0 0)
(2.34524 0 0)
(2.34523 0 0)
(2.34521 0 0)
(2.34519 0 0)
(2.34518 0 0)
(2.34516 0 0)
(2.34514 0 0)
(2.34512 0 0)
(2.34511 0 0)
(2.34509 0 0)
(2.34507 0 0)
(2.34505 0 0)
(2.34504 0 0)
(2.34502 0 0)
(2.345 0 0)
(2.34498 0 0)
(2.34497 0 0)
(2.34495 0 0)
(2.34493 0 0)
(2.34492 0 0)
(2.3449 0 0)
(2.34488 0 0)
(2.34486 0 0)
(2.34485 0 0)
(2.34483 0 0)
(2.34481 0 0)
(2.34479 0 0)
(2.34478 0 0)
(2.34476 0 0)
(2.34474 0 0)
(2.34472 0 0)
(2.34471 0 0)
(2.34469 0 0)
(2.34467 0 0)
(2.34465 0 0)
(2.34464 0 0)
(2.34462 0 0)
(2.3446 0 0)
(2.34458 0 0)
(2.34457 0 0)
(2.34455 0 0)
(2.34453 0 0)
(2.34451 0 0)
(2.3445 0 0)
(2.34448 0 0)
(2.34446 0 0)
(2.34444 0 0)
(2.34443 0 0)
(2.34441 0 0)
(2.34439 0 0)
(2.34437 0 0)
(2.34436 0 0)
(2.34434 0 0)
(2.34432 0 0)
(2.3443 0 0)
(2.34428 0 0)
(2.34427 0 0)
(2.34425 0 0)
(2.34423 0 0)
(2.34421 0 0)
(2.34419 0 0)
(2.34418 0 0)
(2.34416 0 0)
(2.34414 0 0)
(2.34412 0 0)
(2.3441 0 0)
(2.34408 0 0)
(2.34406 0 0)
(2.34405 0 0)
(2.34407 0 0)
(2.34418 0 0)
(2.34463 0 0)
(2.34617 0 0)
(2.35097 0 0)
(2.36481 0 0)
(2.40127 0 0)
(2.48978 0 0)
(2.69438 0 0)
(3.13222 0 0)
(3.97289 0 0)
(5.12849 0 0)
(6.3671 0 0)
(7.5223 0 0)
(8.54278 0 0)
(9.41705 0 0)
(10.1426 0 0)
(10.7412 0 0)
(11.2387 0 0)
(11.6422 0 0)
(11.9633 0 0)
(12.2275 0 0)
(12.4547 0 0)
(12.6542 0 0)
(12.8311 0 0)
(12.9892 0 0)
(13.1318 0 0)
(13.2614 0 0)
(13.38 0 0)
(13.489 0 0)
(13.5899 0 0)
(13.6834 0 0)
(13.7706 0 0)
(13.8521 0 0)
(13.9286 0 0)
(14.0004 0 0)
(14.0682 0 0)
(14.1322 0 0)
(14.1928 0 0)
(14.2503 0 0)
(14.3049 0 0)
(14.3569 0 0)
(14.4065 0 0)
(14.4537 0 0)
(14.4987 0 0)
(14.5406 0 0)
(14.5799 0 0)
(14.618 0 0)
(14.6548 0 0)
(14.6904 0 0)
(14.7248 0 0)
(14.7582 0 0)
(14.7905 0 0)
(14.8218 0 0)
(14.8523 0 0)
(14.8818 0 0)
(14.9105 0 0)
(14.9384 0 0)
(14.9656 0 0)
(14.992 0 0)
(15.0177 0 0)
(15.0428 0 0)
(15.0672 0 0)
(15.091 0 0)
(15.1143 0 0)
(15.137 0 0)
(15.1591 0 0)
(15.1807 0 0)
(15.2019 0 0)
(15.2225 0 0)
(15.2427 0 0)
(15.2625 0 0)
(15.2818 0 0)
(15.3008 0 0)
(15.3193 0 0)
(15.3375 0 0)
(15.3553 0 0)
(15.3727 0 0)
(15.3898 0 0)
(15.4065 0 0)
(15.423 0 0)
(15.4391 0 0)
(15.4549 0 0)
(15.4705 0 0)
(15.4857 0 0)
(15.5007 0 0)
(15.5154 0 0)
(15.5299 0 0)
(15.5441 0 0)
(15.558 0 0)
(15.5718 0 0)
(15.5853 0 0)
(15.5985 0 0)
(15.6116 0 0)
(15.6244 0 0)
(15.6371 0 0)
(15.6495 0 0)
(15.6618 0 0)
(15.6738 0 0)
(15.6857 0 0)
(15.6974 0 0)
(15.7089 0 0)
(15.7202 0 0)
(15.7314 0 0)
(15.7424 0 0)
(15.7533 0 0)
(15.7639 0 0)
(15.7744 0 0)
(15.7848 0 0)
(15.795 0 0)
(15.8051 0 0)
(15.815 0 0)
(15.8249 0 0)
(15.8346 0 0)
(15.8442 0 0)
(15.8536 0 0)
(15.863 0 0)
(15.8722 0 0)
(15.8813 0 0)
(15.8903 0 0)
(15.8991 0 0)
(15.9079 0 0)
(15.9165 0 0)
(15.9251 0 0)
(15.9335 0 0)
(15.9418 0 0)
(15.9501 0 0)
(15.9582 0 0)
(15.9662 0 0)
(15.9742 0 0)
(15.982 0 0)
(15.9898 0 0)
(15.9974 0 0)
(16.005 0 0)
(16.0125 0 0)
(16.0199 0 0)
(16.0272 0 0)
(16.0345 0 0)
(16.0416 0 0)
(16.0487 0 0)
(16.0557 0 0)
(16.0627 0 0)
(16.0695 0 0)
(16.0763 0 0)
(16.083 0 0)
(16.0896 0 0)
(16.0962 0 0)
(16.1027 0 0)
(16.1091 0 0)
(16.1155 0 0)
(16.1218 0 0)
(16.128 0 0)
(16.1341 0 0)
(16.1402 0 0)
(16.1463 0 0)
(16.1523 0 0)
(16.1582 0 0)
(16.164 0 0)
(16.1698 0 0)
(16.1756 0 0)
(16.1813 0 0)
(16.1869 0 0)
(16.1925 0 0)
(16.198 0 0)
(16.2035 0 0)
(16.2089 0 0)
(16.2142 0 0)
(16.2195 0 0)
(16.2248 0 0)
(16.23 0 0)
(16.2352 0 0)
(16.2403 0 0)
(16.2454 0 0)
(16.2504 0 0)
(16.2554 0 0)
(16.2603 0 0)
(16.2652 0 0)
(16.27 0 0)
(16.2748 0 0)
(16.2796 0 0)
(16.2843 0 0)
(16.289 0 0)
(16.2936 0 0)
(16.2982 0 0)
(16.3027 0 0)
(16.3072 0 0)
(16.3117 0 0)
(16.3161 0 0)
(16.3205 0 0)
(16.3249 0 0)
(16.3292 0 0)
(16.3335 0 0)
(16.3377 0 0)
(16.3419 0 0)
(16.3461 0 0)
(16.3502 0 0)
(16.3543 0 0)
(16.3584 0 0)
(16.3624 0 0)
(16.3664 0 0)
(16.3703 0 0)
(16.3743 0 0)
(16.3782 0 0)
(16.382 0 0)
(16.3859 0 0)
(16.3897 0 0)
(16.3934 0 0)
(16.3972 0 0)
(16.4009 0 0)
(16.4046 0 0)
(16.4082 0 0)
(16.4119 0 0)
(16.4154 0 0)
(16.419 0 0)
(16.4226 0 0)
(16.4261 0 0)
(16.4296 0 0)
(16.433 0 0)
(16.4364 0 0)
(16.4399 0 0)
(16.4432 0 0)
(16.4466 0 0)
(16.45 0 0)
(16.4533 0 0)
(16.4566 0 0)
(16.4599 0 0)
(16.4632 0 0)
(16.4665 0 0)
(16.4697 0 0)
(16.4729 0 0)
(16.4759 0 0)
(16.4785 0 0)
(16.4803 0 0)
)
;

boundaryField
{
    boundary
    {
        type            empty;
    }
    inlet
    {
        type            fixedValue;
        value           uniform (2.34893 0 0);
    }
    outlet
    {
        type            zeroGradient;
    }
}


// ************************************************************************* //
