/*--------------------------------*- C++ -*----------------------------------*\
  =========                 |
  \\      /  F ield         | OpenFOAM: The Open Source CFD Toolbox
   \\    /   O peration     | Website:  https://openfoam.org
    \\  /    A nd           | Version:  7
     \\/     M anipulation  |
\*---------------------------------------------------------------------------*/
FoamFile
{
    version     2.0;
    format      ascii;
    class       volScalarField;
    location    "4e-05";
    object      cellCpuTimes;
}
// * * * * * * * * * * * * * * * * * * * * * * * * * * * * * * * * * * * * * //

dimensions      [0 0 0 0 0 0 0];

internalField   nonuniform List<scalar> 
500
(
9.1e-05
5.2e-05
5e-05
4.9e-05
4.9e-05
4.8e-05
4.9e-05
4.9e-05
4.8e-05
4.8e-05
4.8e-05
4.9e-05
4.8e-05
4.9e-05
4.9e-05
4.9e-05
4.9e-05
4.9e-05
4.9e-05
4.9e-05
4.7e-05
4.8e-05
4.9e-05
4.8e-05
5.6e-05
4.9e-05
4.8e-05
4.8e-05
4.9e-05
4.9e-05
4.8e-05
4.8e-05
4.8e-05
4.8e-05
4.9e-05
4.9e-05
4.8e-05
4.9e-05
4.8e-05
4.8e-05
4.9e-05
4.9e-05
4.9e-05
4.9e-05
4.9e-05
4.8e-05
4.9e-05
4.8e-05
4.8e-05
4.8e-05
4.8e-05
4.8e-05
4.9e-05
4.8e-05
4.9e-05
4.9e-05
4.8e-05
4.9e-05
4.8e-05
4.9e-05
4.9e-05
4.8e-05
4.8e-05
4.9e-05
4.9e-05
4.9e-05
4.8e-05
4.9e-05
4.9e-05
4.9e-05
4.9e-05
4.8e-05
4.9e-05
4.9e-05
4.9e-05
4.8e-05
4.8e-05
4.9e-05
4.8e-05
4.9e-05
4.8e-05
4.8e-05
4.8e-05
4.8e-05
4.8e-05
4.9e-05
4.8e-05
4.8e-05
4.7e-05
4.9e-05
4.8e-05
4.9e-05
4.9e-05
4.9e-05
4.9e-05
4.8e-05
4.9e-05
4.8e-05
4.9e-05
4.9e-05
4.8e-05
4.8e-05
4.9e-05
5.9e-05
4.8e-05
4.8e-05
4.8e-05
4.8e-05
4.9e-05
4.9e-05
4.8e-05
4.8e-05
4.8e-05
4.8e-05
4.8e-05
4.8e-05
4.9e-05
4.8e-05
4.9e-05
4.8e-05
4.9e-05
4.9e-05
4.8e-05
4.8e-05
4.8e-05
8.4e-05
5.6e-05
4.8e-05
4.8e-05
4.7e-05
4.7e-05
4.6e-05
4.7e-05
4.7e-05
4.7e-05
4.7e-05
4.7e-05
4.6e-05
4.7e-05
4.7e-05
4.7e-05
4.6e-05
4.7e-05
4.7e-05
4.7e-05
4.6e-05
4.7e-05
4.7e-05
4.6e-05
4.7e-05
7.2e-05
4.8e-05
4.7e-05
4.7e-05
4.6e-05
4.7e-05
4.7e-05
4.6e-05
4.6e-05
4.7e-05
4.6e-05
4.6e-05
4.7e-05
4.7e-05
4.6e-05
4.7e-05
4.6e-05
4.6e-05
4.7e-05
4.7e-05
4.6e-05
4.7e-05
4.7e-05
4.7e-05
4.7e-05
5.9e-05
4.7e-05
4.7e-05
4.6e-05
4.6e-05
4.6e-05
4.7e-05
4.6e-05
4.7e-05
4.7e-05
4.6e-05
4.6e-05
4.6e-05
4.6e-05
4.7e-05
4.6e-05
4.6e-05
4.6e-05
4.7e-05
4.6e-05
4.6e-05
4.7e-05
6.1e-05
5.2e-05
5.7e-05
4.7e-05
4.7e-05
4.6e-05
4.6e-05
4.7e-05
4.6e-05
4.6e-05
4.7e-05
4.7e-05
4.6e-05
4.6e-05
4.6e-05
4.6e-05
4.6e-05
4.7e-05
4.6e-05
4.7e-05
4.5e-05
4.7e-05
4.6e-05
4.6e-05
4.7e-05
4.6e-05
4.7e-05
4.6e-05
4.6e-05
4.6e-05
4.7e-05
4.7e-05
4.7e-05
4.6e-05
5.1e-05
4.7e-05
4.6e-05
4.7e-05
4.7e-05
4.7e-05
4.6e-05
4.7e-05
4.6e-05
4.7e-05
4.6e-05
4.7e-05
4.7e-05
4.7e-05
4.6e-05
4.7e-05
4.6e-05
4.6e-05
4.7e-05
4.6e-05
4.7e-05
4.7e-05
4.7e-05
4.6e-05
4.6e-05
4.7e-05
4.6e-05
4.6e-05
4.6e-05
4.7e-05
4.7e-05
4.7e-05
4.6e-05
4.6e-05
4.6e-05
4.6e-05
4.6e-05
4.6e-05
4.7e-05
4.6e-05
4.6e-05
5e-05
5.6e-05
7.4e-05
8e-05
0.000109
0.000144
0.000155
0.000169
0.000184
0.000193
0.000198
0.000198
0.000253
0.000281
0.000269
0.000275
0.00026
0.00027
0.000267
0.000227
0.000213
0.000238
0.000191
0.000175
0.00018
0.000176
0.000192
0.000194
0.000187
0.000239
0.000193
0.000182
0.000182
0.000186
0.000188
0.000202
0.000187
0.000191
0.000192
0.0002
0.000201
0.000196
0.000175
0.000172
0.000189
0.000186
0.00018
0.000184
0.00019
0.000175
0.000183
0.000177
0.000178
0.000173
0.000174
0.00016
0.000164
0.000164
0.000161
0.000156
0.000148
0.000131
0.000133
0.000129
0.000125
0.00013
0.000129
0.000137
0.000129
0.000114
0.000113
0.000109
0.000109
0.00011
9.9e-05
0.0001
9.8e-05
9.5e-05
9.1e-05
9.3e-05
9.1e-05
9.5e-05
9.6e-05
8.6e-05
8.8e-05
8.8e-05
9.2e-05
9.2e-05
9.1e-05
8.7e-05
8.8e-05
8.7e-05
8.7e-05
9e-05
8.8e-05
8.6e-05
8.8e-05
8.7e-05
8.7e-05
8.7e-05
8.8e-05
9.1e-05
8.4e-05
9.2e-05
9.9e-05
9.1e-05
9.5e-05
9.1e-05
9.4e-05
9.1e-05
9.1e-05
9e-05
8.8e-05
8.9e-05
0.000135
9.4e-05
9.3e-05
9.2e-05
9.1e-05
9.2e-05
9.1e-05
9.1e-05
9.1e-05
9.1e-05
8.8e-05
8.8e-05
8.9e-05
9.6e-05
9.1e-05
9.1e-05
9e-05
9.2e-05
9.1e-05
9e-05
9e-05
9.1e-05
9e-05
9.1e-05
9e-05
9e-05
9.1e-05
9.1e-05
9e-05
9e-05
9.1e-05
8.8e-05
8.8e-05
8.9e-05
8.8e-05
8.8e-05
8.8e-05
8.8e-05
8.8e-05
8.8e-05
8.8e-05
8.8e-05
8.8e-05
8.7e-05
8.8e-05
8.8e-05
8.8e-05
8.9e-05
9.1e-05
8.9e-05
9e-05
9e-05
9e-05
9e-05
9.1e-05
9e-05
9.1e-05
9.4e-05
9.1e-05
9e-05
9e-05
9e-05
9e-05
8.8e-05
8.7e-05
8.8e-05
8.7e-05
8.6e-05
8.5e-05
8.5e-05
8.5e-05
8.4e-05
8.5e-05
8.4e-05
8.4e-05
8.4e-05
8.4e-05
8.5e-05
8.4e-05
8.4e-05
8.4e-05
8.4e-05
8.4e-05
8.4e-05
8.4e-05
8.5e-05
8.4e-05
8.5e-05
8.4e-05
8.4e-05
8.4e-05
8.5e-05
8.3e-05
8.4e-05
8.4e-05
8.6e-05
8.7e-05
8.6e-05
8.6e-05
8.6e-05
8.5e-05
8.6e-05
9.5e-05
8.8e-05
8.5e-05
8.5e-05
8.6e-05
8.5e-05
8.6e-05
8.6e-05
8.6e-05
8.6e-05
8.5e-05
8.6e-05
)
;

boundaryField
{
    boundary
    {
        type            empty;
    }
    inlet
    {
        type            calculated;
        value           uniform 0;
    }
    outlet
    {
        type            calculated;
        value           uniform 0;
    }
}


// ************************************************************************* //
