/*--------------------------------*- C++ -*----------------------------------*\
  =========                 |
  \\      /  F ield         | OpenFOAM: The Open Source CFD Toolbox
   \\    /   O peration     | Website:  https://openfoam.org
    \\  /    A nd           | Version:  7
     \\/     M anipulation  |
\*---------------------------------------------------------------------------*/
FoamFile
{
    version     2.0;
    format      ascii;
    class       volScalarField;
    location    "4e-05";
    object      H;
}
// * * * * * * * * * * * * * * * * * * * * * * * * * * * * * * * * * * * * * //

dimensions      [0 0 0 0 0 0 0];

internalField   nonuniform List<scalar> 
500
(
1.48716e-41
2.24679e-41
2.5459e-41
2.68651e-41
2.75486e-41
2.78658e-41
2.80036e-41
2.80605e-41
2.80836e-41
2.80938e-41
2.80995e-41
2.81037e-41
2.81077e-41
2.81119e-41
2.81162e-41
2.81209e-41
2.81258e-41
2.8131e-41
2.81364e-41
2.81421e-41
2.81481e-41
2.81544e-41
2.81609e-41
2.81677e-41
2.81747e-41
2.81819e-41
2.81894e-41
2.8197e-41
2.8205e-41
2.82131e-41
2.82214e-41
2.82299e-41
2.82386e-41
2.82475e-41
2.82566e-41
2.82658e-41
2.82752e-41
2.82848e-41
2.82945e-41
2.83043e-41
2.83143e-41
2.83244e-41
2.83346e-41
2.83449e-41
2.83553e-41
2.83658e-41
2.83764e-41
2.83871e-41
2.83978e-41
2.84085e-41
2.84194e-41
2.84302e-41
2.84411e-41
2.84521e-41
2.8463e-41
2.84739e-41
2.84849e-41
2.84958e-41
2.85067e-41
2.85176e-41
2.85285e-41
2.85393e-41
2.85501e-41
2.85608e-41
2.85714e-41
2.8582e-41
2.85925e-41
2.86029e-41
2.86133e-41
2.86235e-41
2.86336e-41
2.86436e-41
2.86535e-41
2.86632e-41
2.86729e-41
2.86823e-41
2.86917e-41
2.87008e-41
2.87098e-41
2.87187e-41
2.87274e-41
2.87359e-41
2.87442e-41
2.87523e-41
2.87602e-41
2.8768e-41
2.87755e-41
2.87828e-41
2.87899e-41
2.87968e-41
2.88035e-41
2.88099e-41
2.88161e-41
2.88221e-41
2.88278e-41
2.88333e-41
2.88386e-41
2.88436e-41
2.88483e-41
2.88528e-41
2.8857e-41
2.8861e-41
2.88647e-41
2.88681e-41
2.88713e-41
2.88742e-41
2.88768e-41
2.88791e-41
2.88812e-41
2.8883e-41
2.88845e-41
2.88857e-41
2.88866e-41
2.88873e-41
2.88876e-41
2.88877e-41
2.88875e-41
2.8887e-41
2.88862e-41
2.88851e-41
2.88837e-41
2.88815e-41
2.88771e-41
2.88613e-41
2.87847e-41
2.87527e-41
2.88371e-41
2.88572e-41
2.88598e-41
2.88576e-41
2.88538e-41
2.88494e-41
2.88445e-41
2.88394e-41
2.8834e-41
2.88282e-41
2.88222e-41
2.88158e-41
2.88092e-41
2.88023e-41
2.8795e-41
2.87875e-41
2.87797e-41
2.87716e-41
2.87631e-41
2.87544e-41
2.87454e-41
2.87361e-41
2.87264e-41
2.87165e-41
2.87063e-41
2.86957e-41
2.86848e-41
2.86737e-41
2.86622e-41
2.86504e-41
2.86382e-41
2.86258e-41
2.8613e-41
2.85999e-41
2.85865e-41
2.85727e-41
2.85586e-41
2.85442e-41
2.85294e-41
2.85143e-41
2.84988e-41
2.8483e-41
2.84668e-41
2.84502e-41
2.84333e-41
2.8416e-41
2.83984e-41
2.83803e-41
2.83619e-41
2.83431e-41
2.83238e-41
2.83042e-41
2.82842e-41
2.82638e-41
2.8243e-41
2.82217e-41
2.82001e-41
2.8178e-41
2.81555e-41
2.81326e-41
2.81092e-41
2.80854e-41
2.80612e-41
2.80365e-41
2.80114e-41
2.79858e-41
2.79598e-41
2.79334e-41
2.79065e-41
2.78792e-41
2.78515e-41
2.78233e-41
2.77947e-41
2.77657e-41
2.77363e-41
2.77064e-41
2.76761e-41
2.76454e-41
2.76144e-41
2.75829e-41
2.75511e-41
2.75189e-41
2.74863e-41
2.74534e-41
2.74202e-41
2.73867e-41
2.73529e-41
2.73187e-41
2.72843e-41
2.72497e-41
2.72148e-41
2.71797e-41
2.71444e-41
2.71089e-41
2.70733e-41
2.70375e-41
2.70016e-41
2.69655e-41
2.69294e-41
2.68933e-41
2.68571e-41
2.68208e-41
2.67847e-41
2.67495e-41
2.6719e-41
2.67169e-41
2.68817e-41
2.80287e-41
3.4955e-41
7.5879e-41
3.16728e-40
1.73284e-39
1.00555e-38
5.89524e-38
3.46145e-37
2.03251e-36
1.19324e-35
7.00384e-35
4.11032e-34
2.41192e-33
1.41519e-32
8.30332e-32
4.87181e-31
2.85856e-30
1.6774e-29
1.11524e-28
6.5797e-28
3.85288e-27
2.25542e-26
1.32018e-25
7.72695e-25
4.52216e-24
2.64634e-23
1.54849e-22
9.06013e-22
5.3006e-21
3.10085e-20
1.81384e-19
1.0609e-18
6.20413e-18
3.62737e-17
2.12007e-16
1.23845e-15
7.22887e-15
4.21486e-14
2.46205e-13
1.53246e-12
1.03588e-11
7.94213e-11
5.81061e-10
4.16301e-09
2.98144e-08
2.12511e-07
1.47493e-06
9.31118e-06
4.67162e-05
0.000160118
0.000364643
0.000639882
0.000957847
0.0012669
0.00150717
0.00165037
0.00170429
0.00169213
0.00163705
0.00155677
0.00146335
0.00136451
0.001265
0.00116768
0.00107419
0.000985468
0.000901986
0.000823949
0.000751385
0.000684217
0.000622294
0.000565419
0.000513363
0.000465877
0.000422699
0.00038356
0.000348191
0.000316323
0.000287691
0.000262794
0.000240997
0.000221374
0.000203757
0.000187985
0.000173904
0.000161367
0.000150235
0.000140377
0.000131672
0.000124004
0.000117268
0.000111367
0.000106211
0.000101718
9.78127e-05
9.44276e-05
9.15012e-05
8.89782e-05
8.6809e-05
8.4949e-05
8.33586e-05
8.20026e-05
8.08497e-05
7.98723e-05
7.9046e-05
7.83496e-05
7.77643e-05
7.72739e-05
7.68642e-05
7.65229e-05
7.62395e-05
7.60049e-05
7.58113e-05
7.5652e-05
7.55212e-05
7.54143e-05
7.53271e-05
7.52562e-05
7.51987e-05
7.51523e-05
7.51148e-05
7.50848e-05
7.50607e-05
7.50414e-05
7.5026e-05
7.50138e-05
7.50041e-05
7.49964e-05
7.49904e-05
7.49855e-05
7.49817e-05
7.49787e-05
7.49763e-05
7.49744e-05
7.49729e-05
7.49716e-05
7.49706e-05
7.49697e-05
7.4969e-05
7.49685e-05
7.49682e-05
7.49683e-05
7.49693e-05
7.49689e-05
7.49671e-05
7.49661e-05
7.49656e-05
7.49655e-05
7.49655e-05
7.49655e-05
7.49657e-05
7.49658e-05
7.49659e-05
7.4966e-05
7.49661e-05
7.49662e-05
7.49662e-05
7.49662e-05
7.49662e-05
7.49662e-05
7.49662e-05
7.49662e-05
7.49661e-05
7.49661e-05
7.4966e-05
7.49659e-05
7.49659e-05
7.49658e-05
7.49657e-05
7.49656e-05
7.49655e-05
7.49654e-05
7.49653e-05
7.49652e-05
7.49651e-05
7.4965e-05
7.49649e-05
7.49648e-05
7.49647e-05
7.49646e-05
7.49644e-05
7.49643e-05
7.49642e-05
7.49641e-05
7.4964e-05
7.49638e-05
7.49637e-05
7.49636e-05
7.49635e-05
7.49633e-05
7.49632e-05
7.49631e-05
7.4963e-05
7.49628e-05
7.49627e-05
7.49626e-05
7.49625e-05
7.49623e-05
7.49622e-05
7.49621e-05
7.4962e-05
7.49618e-05
7.49617e-05
7.49616e-05
7.49615e-05
7.49613e-05
7.49612e-05
7.49611e-05
7.4961e-05
7.49609e-05
7.49608e-05
7.49606e-05
7.49605e-05
7.49604e-05
7.49603e-05
7.49602e-05
7.49601e-05
7.496e-05
7.49599e-05
7.49598e-05
7.49597e-05
7.49597e-05
7.49596e-05
7.49595e-05
7.49594e-05
7.49593e-05
7.49592e-05
7.49592e-05
7.49591e-05
7.4959e-05
7.49589e-05
7.49589e-05
7.49588e-05
7.49587e-05
7.49587e-05
7.49586e-05
7.49586e-05
7.49585e-05
7.49585e-05
7.49584e-05
7.49584e-05
7.49583e-05
7.49583e-05
7.49582e-05
7.49582e-05
7.49582e-05
7.49581e-05
7.49581e-05
7.4958e-05
7.4958e-05
7.4958e-05
7.4958e-05
7.49579e-05
7.49579e-05
7.49579e-05
7.49579e-05
7.49579e-05
7.49579e-05
7.49579e-05
7.49579e-05
7.49579e-05
7.49579e-05
7.49579e-05
7.49579e-05
7.49579e-05
7.49579e-05
7.49579e-05
)
;

boundaryField
{
    boundary
    {
        type            empty;
    }
    inlet
    {
        type            fixedValue;
        value           uniform 0;
    }
    outlet
    {
        type            zeroGradient;
    }
}


// ************************************************************************* //
