/*--------------------------------*- C++ -*----------------------------------*\
  =========                 |
  \\      /  F ield         | OpenFOAM: The Open Source CFD Toolbox
   \\    /   O peration     | Website:  https://openfoam.org
    \\  /    A nd           | Version:  7
     \\/     M anipulation  |
\*---------------------------------------------------------------------------*/
FoamFile
{
    version     2.0;
    format      ascii;
    class       volScalarField;
    location    "4e-05";
    object      H2;
}
// * * * * * * * * * * * * * * * * * * * * * * * * * * * * * * * * * * * * * //

dimensions      [0 0 0 0 0 0 0];

internalField   nonuniform List<scalar> 
500
(
0.0285116
0.0285116
0.0285116
0.0285116
0.0285116
0.0285116
0.0285116
0.0285116
0.0285116
0.0285116
0.0285116
0.0285116
0.0285116
0.0285116
0.0285116
0.0285116
0.0285116
0.0285116
0.0285116
0.0285116
0.0285116
0.0285116
0.0285116
0.0285116
0.0285116
0.0285116
0.0285116
0.0285116
0.0285116
0.0285116
0.0285116
0.0285116
0.0285116
0.0285116
0.0285116
0.0285116
0.0285116
0.0285116
0.0285116
0.0285116
0.0285116
0.0285116
0.0285116
0.0285116
0.0285116
0.0285116
0.0285116
0.0285116
0.0285116
0.0285116
0.0285116
0.0285116
0.0285116
0.0285116
0.0285116
0.0285116
0.0285116
0.0285116
0.0285116
0.0285116
0.0285116
0.0285116
0.0285116
0.0285116
0.0285116
0.0285116
0.0285116
0.0285116
0.0285116
0.0285116
0.0285116
0.0285116
0.0285116
0.0285116
0.0285116
0.0285116
0.0285116
0.0285116
0.0285116
0.0285116
0.0285116
0.0285116
0.0285116
0.0285116
0.0285116
0.0285116
0.0285116
0.0285116
0.0285116
0.0285116
0.0285116
0.0285116
0.0285116
0.0285116
0.0285116
0.0285116
0.0285116
0.0285116
0.0285116
0.0285116
0.0285116
0.0285116
0.0285116
0.0285116
0.0285116
0.0285116
0.0285116
0.0285116
0.0285116
0.0285116
0.0285116
0.0285116
0.0285116
0.0285116
0.0285116
0.0285116
0.0285116
0.0285116
0.0285116
0.0285116
0.0285116
0.0285116
0.0285116
0.0285116
0.0285116
0.0285116
0.0285116
0.0285116
0.0285116
0.0285116
0.0285116
0.0285116
0.0285116
0.0285116
0.0285116
0.0285116
0.0285116
0.0285116
0.0285116
0.0285116
0.0285116
0.0285116
0.0285116
0.0285116
0.0285116
0.0285116
0.0285116
0.0285116
0.0285116
0.0285116
0.0285116
0.0285116
0.0285116
0.0285116
0.0285116
0.0285116
0.0285116
0.0285116
0.0285116
0.0285116
0.0285116
0.0285116
0.0285116
0.0285116
0.0285116
0.0285116
0.0285116
0.0285116
0.0285116
0.0285116
0.0285116
0.0285116
0.0285116
0.0285116
0.0285116
0.0285116
0.0285116
0.0285116
0.0285116
0.0285116
0.0285116
0.0285116
0.0285116
0.0285116
0.0285116
0.0285116
0.0285116
0.0285116
0.0285116
0.0285116
0.0285116
0.0285116
0.0285116
0.0285116
0.0285116
0.0285116
0.0285116
0.0285116
0.0285116
0.0285116
0.0285116
0.0285116
0.0285116
0.0285116
0.0285116
0.0285116
0.0285116
0.0285116
0.0285116
0.0285116
0.0285116
0.0285116
0.0285116
0.0285116
0.0285116
0.0285116
0.0285116
0.0285116
0.0285116
0.0285116
0.0285116
0.0285116
0.0285116
0.0285116
0.0285116
0.0285116
0.0285116
0.0285116
0.0285116
0.0285116
0.0285116
0.0285116
0.0285116
0.0285116
0.0285116
0.0285116
0.0285116
0.0285116
0.0285116
0.0285116
0.0285116
0.0285116
0.0285116
0.0285116
0.0285116
0.0285116
0.0285116
0.0285116
0.0285116
0.0285116
0.0285116
0.0285116
0.0285116
0.0285116
0.0285116
0.0285116
0.0285116
0.0285116
0.0285116
0.0285116
0.0285116
0.0285116
0.0285116
0.0285116
0.0285116
0.0285116
0.0285116
0.0285116
0.0285116
0.0285116
0.0285116
0.0285115
0.0285114
0.0285108
0.0285087
0.0285017
0.0284791
0.0284113
0.028222
0.027742
0.0267021
0.0249366
0.0225703
0.0198851
0.0170262
0.0140969
0.0113528
0.00909479
0.00744688
0.00634419
0.00564777
0.00522424
0.00497166
0.00481954
0.00472176
0.00464917
0.00458395
0.00451569
0.00443871
0.00435033
0.00424982
0.00413761
0.00401489
0.00388325
0.00374453
0.00360063
0.00345347
0.00330486
0.00315654
0.00301006
0.00286682
0.00272801
0.00259858
0.002478
0.00236307
0.00225426
0.00215189
0.00205619
0.00196723
0.00188504
0.00180951
0.00174048
0.00167774
0.00162099
0.00156993
0.00152421
0.00148348
0.00144735
0.00141545
0.00138742
0.00136289
0.00134153
0.00132299
0.00130698
0.00129321
0.00128141
0.00127133
0.00126277
0.00125552
0.00124941
0.00124427
0.00123997
0.00123638
0.0012334
0.00123093
0.00122889
0.00122722
0.00122584
0.00122472
0.00122381
0.00122307
0.00122247
0.00122199
0.0012216
0.0012213
0.00122105
0.00122085
0.0012207
0.00122058
0.00122048
0.0012204
0.00122035
0.0012203
0.00122026
0.00122024
0.00122022
0.0012202
0.00122019
0.00122018
0.00122017
0.00122016
0.00122016
0.00122015
0.00122015
0.00122014
0.00122013
0.00122013
0.00122013
0.00122014
0.00122014
0.00122014
0.00122015
0.00122015
0.00122015
0.00122015
0.00122015
0.00122016
0.00122016
0.00122016
0.00122016
0.00122016
0.00122016
0.00122017
0.00122017
0.00122017
0.00122017
0.00122017
0.00122017
0.00122017
0.00122018
0.00122018
0.00122018
0.00122018
0.00122018
0.00122018
0.00122018
0.00122018
0.00122018
0.00122018
0.00122018
0.00122018
0.00122019
0.00122019
0.00122019
0.00122019
0.00122019
0.00122019
0.00122019
0.00122019
0.00122019
0.00122019
0.00122019
0.00122019
0.00122019
0.00122019
0.00122019
0.00122019
0.00122019
0.00122019
0.00122019
0.0012202
0.0012202
0.0012202
0.0012202
0.0012202
0.0012202
0.0012202
0.0012202
0.0012202
0.0012202
0.0012202
0.0012202
0.0012202
0.0012202
0.0012202
0.0012202
0.0012202
0.0012202
0.0012202
0.0012202
0.0012202
0.0012202
0.0012202
0.0012202
0.0012202
0.0012202
0.0012202
0.0012202
0.0012202
0.0012202
0.0012202
0.0012202
0.0012202
0.0012202
0.0012202
0.0012202
0.0012202
0.0012202
0.0012202
0.0012202
0.0012202
0.0012202
0.0012202
0.0012202
0.0012202
0.0012202
0.0012202
0.0012202
0.0012202
0.0012202
0.0012202
0.0012202
0.0012202
0.0012202
0.0012202
0.0012202
0.0012202
0.0012202
0.0012202
0.0012202
0.0012202
0.00122019
0.00122019
0.00122019
0.00122019
0.00122019
0.00122019
0.00122019
0.00122019
0.00122019
)
;

boundaryField
{
    boundary
    {
        type            empty;
    }
    inlet
    {
        type            fixedValue;
        value           uniform 0.0285116;
    }
    outlet
    {
        type            zeroGradient;
    }
}


// ************************************************************************* //
