/*--------------------------------*- C++ -*----------------------------------*\
  =========                 |
  \\      /  F ield         | OpenFOAM: The Open Source CFD Toolbox
   \\    /   O peration     | Website:  https://openfoam.org
    \\  /    A nd           | Version:  7
     \\/     M anipulation  |
\*---------------------------------------------------------------------------*/
FoamFile
{
    version     2.0;
    format      ascii;
    class       volScalarField;
    location    "4e-05";
    object      H2O;
}
// * * * * * * * * * * * * * * * * * * * * * * * * * * * * * * * * * * * * * //

dimensions      [0 0 0 0 0 0 0];

internalField   nonuniform List<scalar> 
500
(
6.96045e-48
1.75852e-47
2.7129e-47
3.42509e-47
3.88777e-47
4.15672e-47
4.29912e-47
4.36869e-47
4.40035e-47
4.41389e-47
4.41938e-47
4.42153e-47
4.42236e-47
4.42271e-47
4.42289e-47
4.42301e-47
4.42313e-47
4.42324e-47
4.42336e-47
4.42348e-47
4.42362e-47
4.42375e-47
4.4239e-47
4.42406e-47
4.42422e-47
4.42439e-47
4.42457e-47
4.42475e-47
4.42495e-47
4.42515e-47
4.42536e-47
4.42558e-47
4.4258e-47
4.42604e-47
4.42629e-47
4.42654e-47
4.4268e-47
4.42707e-47
4.42736e-47
4.42765e-47
4.42795e-47
4.42826e-47
4.42858e-47
4.42891e-47
4.42925e-47
4.4296e-47
4.42996e-47
4.43033e-47
4.43071e-47
4.4311e-47
4.43151e-47
4.43192e-47
4.43234e-47
4.43278e-47
4.43323e-47
4.43369e-47
4.43415e-47
4.43464e-47
4.43513e-47
4.43563e-47
4.43615e-47
4.43668e-47
4.43722e-47
4.43777e-47
4.43834e-47
4.43891e-47
4.4395e-47
4.4401e-47
4.44072e-47
4.44134e-47
4.44198e-47
4.44263e-47
4.4433e-47
4.44398e-47
4.44467e-47
4.44537e-47
4.44609e-47
4.44682e-47
4.44756e-47
4.44832e-47
4.44909e-47
4.44987e-47
4.45067e-47
4.45148e-47
4.4523e-47
4.45314e-47
4.45399e-47
4.45486e-47
4.45574e-47
4.45663e-47
4.45754e-47
4.45846e-47
4.45939e-47
4.46034e-47
4.4613e-47
4.46228e-47
4.46327e-47
4.46428e-47
4.4653e-47
4.46633e-47
4.46738e-47
4.46845e-47
4.46952e-47
4.47062e-47
4.47172e-47
4.47284e-47
4.47398e-47
4.47513e-47
4.47629e-47
4.47747e-47
4.47866e-47
4.47987e-47
4.48109e-47
4.48233e-47
4.48358e-47
4.48484e-47
4.48611e-47
4.4874e-47
4.4887e-47
4.48997e-47
4.49104e-47
4.4911e-47
4.48643e-47
4.46153e-47
4.35747e-47
4.21576e-47
4.32447e-47
4.4023e-47
4.45059e-47
4.47826e-47
4.49342e-47
4.50161e-47
4.50616e-47
4.50897e-47
4.51099e-47
4.51269e-47
4.51427e-47
4.51581e-47
4.51734e-47
4.51888e-47
4.52042e-47
4.52196e-47
4.52351e-47
4.52506e-47
4.52661e-47
4.52817e-47
4.52972e-47
4.53128e-47
4.53284e-47
4.53439e-47
4.53594e-47
4.53749e-47
4.53903e-47
4.54057e-47
4.54209e-47
4.54361e-47
4.54512e-47
4.54662e-47
4.54811e-47
4.54958e-47
4.55104e-47
4.55248e-47
4.5539e-47
4.5553e-47
4.55668e-47
4.55803e-47
4.55937e-47
4.56067e-47
4.56194e-47
4.56319e-47
4.5644e-47
4.56558e-47
4.56672e-47
4.56783e-47
4.56889e-47
4.56992e-47
4.5709e-47
4.57183e-47
4.57272e-47
4.57355e-47
4.57434e-47
4.57507e-47
4.57574e-47
4.57636e-47
4.57692e-47
4.57741e-47
4.57785e-47
4.57821e-47
4.57851e-47
4.57875e-47
4.57891e-47
4.57899e-47
4.57901e-47
4.57895e-47
4.57881e-47
4.57859e-47
4.5783e-47
4.57792e-47
4.57746e-47
4.57691e-47
4.57629e-47
4.57557e-47
4.57477e-47
4.57389e-47
4.57291e-47
4.57185e-47
4.5707e-47
4.56947e-47
4.56814e-47
4.56673e-47
4.56523e-47
4.56364e-47
4.56196e-47
4.5602e-47
4.55835e-47
4.55641e-47
4.55439e-47
4.55229e-47
4.55011e-47
4.54784e-47
4.54549e-47
4.54306e-47
4.54056e-47
4.53798e-47
4.53532e-47
4.53259e-47
4.52979e-47
4.52692e-47
4.524e-47
4.5211e-47
4.5188e-47
4.52052e-47
4.54809e-47
4.73915e-47
5.96305e-47
1.37073e-46
6.26008e-46
3.71181e-45
2.32067e-44
1.46858e-43
9.39677e-43
6.15263e-42
4.22407e-41
3.15542e-40
2.66247e-39
2.5694e-38
2.7696e-37
3.20157e-36
3.83441e-35
4.65945e-34
5.68568e-33
1.2844e-31
1.54389e-30
1.83382e-29
2.1703e-28
2.5604e-27
3.01162e-26
3.53134e-25
4.12556e-24
4.79723e-23
5.54407e-22
6.3561e-21
7.21326e-20
8.08365e-19
8.92295e-18
9.67582e-17
1.02796e-15
1.06705e-14
1.0792e-13
1.06041e-12
1.00926e-11
9.27399e-11
8.19535e-10
6.94145e-09
5.61341e-08
4.31583e-07
3.14008e-06
2.14993e-05
0.000137136
0.000790904
0.00376164
0.0125769
0.0283941
0.0484862
0.0718399
0.098485
0.126229
0.151279
0.171226
0.185883
0.196223
0.203418
0.208451
0.212049
0.214717
0.216795
0.21851
0.220008
0.221379
0.222679
0.223939
0.22517
0.226377
0.227555
0.228699
0.229799
0.230848
0.231839
0.232766
0.233625
0.234413
0.235131
0.23576
0.236315
0.236814
0.237261
0.237658
0.238008
0.238317
0.238587
0.238822
0.239026
0.239203
0.239355
0.239485
0.239596
0.239691
0.239772
0.23984
0.239898
0.239947
0.239987
0.240022
0.240051
0.240075
0.240095
0.240111
0.240125
0.240136
0.240146
0.240154
0.24016
0.240165
0.24017
0.240173
0.240176
0.240178
0.24018
0.240182
0.240183
0.240184
0.240185
0.240186
0.240186
0.240186
0.240187
0.240187
0.240187
0.240187
0.240187
0.240187
0.240187
0.240188
0.240188
0.240188
0.240188
0.240188
0.240188
0.240188
0.240188
0.240188
0.240188
0.240188
0.240188
0.240188
0.240188
0.240188
0.240188
0.240188
0.240188
0.240188
0.240188
0.240188
0.240188
0.240187
0.240187
0.240187
0.240187
0.240187
0.240187
0.240187
0.240187
0.240187
0.240187
0.240187
0.240187
0.240187
0.240187
0.240187
0.240187
0.240187
0.240187
0.240187
0.240187
0.240187
0.240187
0.240187
0.240187
0.240187
0.240187
0.240187
0.240187
0.240187
0.240187
0.240187
0.240187
0.240187
0.240187
0.240187
0.240187
0.240187
0.240187
0.240187
0.240187
0.240187
0.240187
0.240187
0.240187
0.240187
0.240187
0.240187
0.240187
0.240187
0.240186
0.240186
0.240186
0.240186
0.240186
0.240186
0.240186
0.240186
0.240186
0.240186
0.240186
0.240186
0.240186
0.240186
0.240186
0.240186
0.240186
0.240186
0.240186
0.240186
0.240186
0.240186
0.240186
0.240186
0.240186
0.240186
0.240186
0.240186
0.240186
0.240186
0.240186
0.240186
0.240186
0.240186
0.240186
0.240186
0.240186
0.240186
0.240186
0.240186
0.240186
0.240186
0.240186
0.240186
0.240186
0.240186
0.240186
0.240186
0.240186
0.240186
0.240186
0.240186
0.240186
0.240186
0.240186
0.240186
0.240186
0.240186
0.240186
0.240186
0.240186
0.240186
0.240186
0.240186
0.240186
0.240186
0.240186
)
;

boundaryField
{
    boundary
    {
        type            empty;
    }
    inlet
    {
        type            fixedValue;
        value           uniform 0;
    }
    outlet
    {
        type            zeroGradient;
    }
}


// ************************************************************************* //
