/*--------------------------------*- C++ -*----------------------------------*\
  =========                 |
  \\      /  F ield         | OpenFOAM: The Open Source CFD Toolbox
   \\    /   O peration     | Website:  https://openfoam.org
    \\  /    A nd           | Version:  7
     \\/     M anipulation  |
\*---------------------------------------------------------------------------*/
FoamFile
{
    version     2.0;
    format      ascii;
    class       volScalarField;
    location    "4e-05";
    object      H2O2;
}
// * * * * * * * * * * * * * * * * * * * * * * * * * * * * * * * * * * * * * //

dimensions      [0 0 0 0 0 0 0];

internalField   nonuniform List<scalar> 
500
(
1.45059e-52
3.81442e-52
6.04541e-52
7.75306e-52
8.8703e-52
9.51561e-52
9.85188e-52
1.00124e-51
1.00835e-51
1.0113e-51
1.01246e-51
1.0129e-51
1.01307e-51
1.01314e-51
1.01319e-51
1.01322e-51
1.01325e-51
1.01329e-51
1.01332e-51
1.01336e-51
1.0134e-51
1.01344e-51
1.01348e-51
1.01353e-51
1.01358e-51
1.01362e-51
1.01368e-51
1.01373e-51
1.01379e-51
1.01384e-51
1.0139e-51
1.01396e-51
1.01403e-51
1.01409e-51
1.01416e-51
1.01423e-51
1.0143e-51
1.01438e-51
1.01446e-51
1.01453e-51
1.01461e-51
1.0147e-51
1.01478e-51
1.01487e-51
1.01496e-51
1.01505e-51
1.01515e-51
1.01524e-51
1.01534e-51
1.01544e-51
1.01554e-51
1.01565e-51
1.01575e-51
1.01586e-51
1.01598e-51
1.01609e-51
1.01621e-51
1.01632e-51
1.01644e-51
1.01657e-51
1.01669e-51
1.01682e-51
1.01695e-51
1.01708e-51
1.01722e-51
1.01735e-51
1.01749e-51
1.01763e-51
1.01778e-51
1.01792e-51
1.01807e-51
1.01822e-51
1.01838e-51
1.01853e-51
1.01869e-51
1.01885e-51
1.01901e-51
1.01918e-51
1.01935e-51
1.01952e-51
1.01969e-51
1.01986e-51
1.02004e-51
1.02022e-51
1.0204e-51
1.02059e-51
1.02078e-51
1.02097e-51
1.02116e-51
1.02135e-51
1.02155e-51
1.02175e-51
1.02196e-51
1.02216e-51
1.02237e-51
1.02258e-51
1.02279e-51
1.02301e-51
1.02323e-51
1.02345e-51
1.02368e-51
1.0239e-51
1.02413e-51
1.02437e-51
1.0246e-51
1.02484e-51
1.02508e-51
1.02533e-51
1.02557e-51
1.02582e-51
1.02607e-51
1.02633e-51
1.02659e-51
1.02685e-51
1.02711e-51
1.02738e-51
1.02765e-51
1.02792e-51
1.02819e-51
1.02846e-51
1.02871e-51
1.0288e-51
1.028e-51
1.02264e-51
9.96749e-52
9.57371e-52
9.87975e-52
1.00871e-51
1.02049e-51
1.02657e-51
1.02959e-51
1.03112e-51
1.03195e-51
1.03248e-51
1.03287e-51
1.03321e-51
1.03354e-51
1.03386e-51
1.03418e-51
1.03449e-51
1.03481e-51
1.03513e-51
1.03545e-51
1.03578e-51
1.0361e-51
1.03642e-51
1.03674e-51
1.03706e-51
1.03738e-51
1.0377e-51
1.03802e-51
1.03834e-51
1.03865e-51
1.03897e-51
1.03928e-51
1.03959e-51
1.0399e-51
1.0402e-51
1.0405e-51
1.04079e-51
1.04109e-51
1.04137e-51
1.04166e-51
1.04194e-51
1.04221e-51
1.04247e-51
1.04273e-51
1.04299e-51
1.04323e-51
1.04347e-51
1.0437e-51
1.04392e-51
1.04413e-51
1.04433e-51
1.04452e-51
1.04471e-51
1.04488e-51
1.04504e-51
1.04518e-51
1.04532e-51
1.04544e-51
1.04555e-51
1.04564e-51
1.04572e-51
1.04579e-51
1.04584e-51
1.04587e-51
1.04589e-51
1.04589e-51
1.04588e-51
1.04585e-51
1.0458e-51
1.04573e-51
1.04564e-51
1.04553e-51
1.04541e-51
1.04526e-51
1.04509e-51
1.04491e-51
1.0447e-51
1.04448e-51
1.04423e-51
1.04396e-51
1.04367e-51
1.04336e-51
1.04303e-51
1.04267e-51
1.0423e-51
1.0419e-51
1.04148e-51
1.04105e-51
1.04059e-51
1.0401e-51
1.0396e-51
1.03908e-51
1.03854e-51
1.03798e-51
1.03739e-51
1.03679e-51
1.03617e-51
1.03553e-51
1.03488e-51
1.0342e-51
1.03351e-51
1.0328e-51
1.03207e-51
1.03133e-51
1.03057e-51
1.02979e-51
1.02901e-51
1.02823e-51
1.0276e-51
1.02794e-51
1.03445e-51
1.0797e-51
1.36802e-51
3.1813e-51
1.4563e-50
8.59897e-50
5.3438e-49
3.3532e-48
2.11633e-47
1.35608e-46
9.10397e-46
6.92441e-45
6.73536e-44
8.81719e-43
1.41687e-41
2.4885e-40
4.48827e-39
8.11852e-38
3.0726e-36
5.40849e-35
9.38063e-34
1.60877e-32
2.72616e-31
4.56107e-30
7.52792e-29
1.22455e-27
1.96124e-26
3.08937e-25
4.78053e-24
7.25757e-23
1.07946e-21
1.57058e-20
2.23163e-19
3.091e-18
4.165e-17
5.44753e-16
6.89885e-15
8.43617e-14
9.93027e-13
1.12128e-11
1.20979e-10
1.24164e-09
1.20567e-08
1.0989e-07
9.24336e-07
6.83121e-06
3.82228e-05
0.000113526
0.000146702
0.000118145
5.90565e-05
2.36007e-05
9.71012e-06
5.30905e-06
4.28323e-06
4.36307e-06
4.71295e-06
5.01477e-06
5.15771e-06
5.11898e-06
4.91454e-06
4.57897e-06
4.15558e-06
3.68891e-06
3.21803e-06
2.77208e-06
2.369e-06
2.01694e-06
1.71685e-06
1.46528e-06
1.25658e-06
1.08444e-06
9.42717e-07
8.25951e-07
7.29468e-07
6.49401e-07
5.82611e-07
5.26581e-07
4.79311e-07
4.40413e-07
4.07637e-07
3.79218e-07
3.54489e-07
3.32908e-07
3.14034e-07
2.97504e-07
2.83017e-07
2.70322e-07
2.59203e-07
2.49476e-07
2.40982e-07
2.3358e-07
2.27144e-07
2.21563e-07
2.16737e-07
2.12577e-07
2.09001e-07
2.05937e-07
2.0332e-07
2.01092e-07
1.992e-07
1.97599e-07
1.96248e-07
1.95112e-07
1.94159e-07
1.93362e-07
1.92697e-07
1.92144e-07
1.91685e-07
1.91306e-07
1.90992e-07
1.90734e-07
1.90522e-07
1.90348e-07
1.90205e-07
1.90089e-07
1.89994e-07
1.89916e-07
1.89853e-07
1.89801e-07
1.89758e-07
1.89723e-07
1.89695e-07
1.89671e-07
1.89651e-07
1.89635e-07
1.89621e-07
1.89609e-07
1.89599e-07
1.8959e-07
1.89582e-07
1.89575e-07
1.89568e-07
1.89562e-07
1.89557e-07
1.89551e-07
1.89546e-07
1.8954e-07
1.89535e-07
1.89529e-07
1.89522e-07
1.89514e-07
1.89507e-07
1.895e-07
1.89496e-07
1.89495e-07
1.89494e-07
1.89492e-07
1.89491e-07
1.89488e-07
1.89486e-07
1.89483e-07
1.8948e-07
1.89477e-07
1.89474e-07
1.89471e-07
1.89467e-07
1.89464e-07
1.8946e-07
1.89456e-07
1.89453e-07
1.89449e-07
1.89445e-07
1.89442e-07
1.89438e-07
1.89434e-07
1.8943e-07
1.89427e-07
1.89423e-07
1.89419e-07
1.89416e-07
1.89412e-07
1.89408e-07
1.89405e-07
1.89401e-07
1.89397e-07
1.89394e-07
1.8939e-07
1.89386e-07
1.89383e-07
1.89379e-07
1.89375e-07
1.89372e-07
1.89368e-07
1.89364e-07
1.89361e-07
1.89357e-07
1.89353e-07
1.8935e-07
1.89346e-07
1.89343e-07
1.89339e-07
1.89336e-07
1.89332e-07
1.89328e-07
1.89325e-07
1.89321e-07
1.89318e-07
1.89315e-07
1.89311e-07
1.89308e-07
1.89304e-07
1.89301e-07
1.89298e-07
1.89294e-07
1.89291e-07
1.89288e-07
1.89285e-07
1.89281e-07
1.89278e-07
1.89275e-07
1.89272e-07
1.89269e-07
1.89266e-07
1.89263e-07
1.8926e-07
1.89257e-07
1.89254e-07
1.89252e-07
1.89249e-07
1.89246e-07
1.89243e-07
1.89241e-07
1.89238e-07
1.89236e-07
1.89233e-07
1.89231e-07
1.89229e-07
1.89226e-07
1.89224e-07
1.89222e-07
1.8922e-07
1.89218e-07
1.89216e-07
1.89214e-07
1.89212e-07
1.8921e-07
1.89208e-07
1.89207e-07
1.89205e-07
1.89203e-07
1.89202e-07
1.892e-07
1.89199e-07
1.89198e-07
1.89196e-07
1.89195e-07
1.89194e-07
1.89193e-07
1.89192e-07
1.89191e-07
1.8919e-07
1.89189e-07
1.89188e-07
1.89187e-07
1.89186e-07
1.89186e-07
1.89185e-07
1.89184e-07
1.89184e-07
1.89183e-07
1.89182e-07
1.89182e-07
1.89181e-07
1.8918e-07
1.89179e-07
1.89179e-07
)
;

boundaryField
{
    boundary
    {
        type            empty;
    }
    inlet
    {
        type            fixedValue;
        value           uniform 0;
    }
    outlet
    {
        type            zeroGradient;
    }
}


// ************************************************************************* //
