/*--------------------------------*- C++ -*----------------------------------*\
  =========                 |
  \\      /  F ield         | OpenFOAM: The Open Source CFD Toolbox
   \\    /   O peration     | Website:  https://openfoam.org
    \\  /    A nd           | Version:  7
     \\/     M anipulation  |
\*---------------------------------------------------------------------------*/
FoamFile
{
    version     2.0;
    format      ascii;
    class       volScalarField;
    location    "4e-05";
    object      HO2;
}
// * * * * * * * * * * * * * * * * * * * * * * * * * * * * * * * * * * * * * //

dimensions      [0 0 0 0 0 0 0];

internalField   nonuniform List<scalar> 
500
(
5.32295e-38
1.12759e-37
1.58575e-37
1.89432e-37
2.07942e-37
2.17992e-37
2.22995e-37
2.25302e-37
2.26296e-37
2.267e-37
2.26855e-37
2.26914e-37
2.26936e-37
2.26945e-37
2.26951e-37
2.26955e-37
2.26959e-37
2.26963e-37
2.26968e-37
2.26972e-37
2.26977e-37
2.26982e-37
2.26987e-37
2.26993e-37
2.26999e-37
2.27005e-37
2.27011e-37
2.27017e-37
2.27024e-37
2.27031e-37
2.27038e-37
2.27046e-37
2.27053e-37
2.27061e-37
2.27069e-37
2.27078e-37
2.27087e-37
2.27095e-37
2.27105e-37
2.27114e-37
2.27124e-37
2.27133e-37
2.27144e-37
2.27154e-37
2.27165e-37
2.27175e-37
2.27186e-37
2.27198e-37
2.27209e-37
2.27221e-37
2.27233e-37
2.27246e-37
2.27258e-37
2.27271e-37
2.27284e-37
2.27297e-37
2.27311e-37
2.27325e-37
2.27339e-37
2.27353e-37
2.27368e-37
2.27382e-37
2.27397e-37
2.27413e-37
2.27428e-37
2.27444e-37
2.2746e-37
2.27476e-37
2.27493e-37
2.27509e-37
2.27526e-37
2.27543e-37
2.27561e-37
2.27579e-37
2.27596e-37
2.27615e-37
2.27633e-37
2.27652e-37
2.27671e-37
2.2769e-37
2.27709e-37
2.27729e-37
2.27749e-37
2.27769e-37
2.2779e-37
2.2781e-37
2.27831e-37
2.27852e-37
2.27874e-37
2.27896e-37
2.27918e-37
2.2794e-37
2.27963e-37
2.27985e-37
2.28009e-37
2.28032e-37
2.28056e-37
2.2808e-37
2.28104e-37
2.28128e-37
2.28153e-37
2.28178e-37
2.28204e-37
2.2823e-37
2.28256e-37
2.28282e-37
2.28309e-37
2.28335e-37
2.28363e-37
2.2839e-37
2.28418e-37
2.28446e-37
2.28475e-37
2.28503e-37
2.28532e-37
2.28562e-37
2.28592e-37
2.28621e-37
2.28652e-37
2.28682e-37
2.28708e-37
2.28715e-37
2.28606e-37
2.27914e-37
2.24581e-37
2.19592e-37
2.23513e-37
2.26139e-37
2.27632e-37
2.28401e-37
2.28779e-37
2.28965e-37
2.29064e-37
2.29124e-37
2.29168e-37
2.29206e-37
2.29242e-37
2.29277e-37
2.29312e-37
2.29347e-37
2.29382e-37
2.29417e-37
2.29452e-37
2.29487e-37
2.29522e-37
2.29557e-37
2.29591e-37
2.29626e-37
2.2966e-37
2.29694e-37
2.29728e-37
2.29762e-37
2.29795e-37
2.29827e-37
2.2986e-37
2.29892e-37
2.29923e-37
2.29954e-37
2.29984e-37
2.30013e-37
2.30042e-37
2.3007e-37
2.30097e-37
2.30123e-37
2.30148e-37
2.30172e-37
2.30195e-37
2.30217e-37
2.30238e-37
2.30257e-37
2.30275e-37
2.30291e-37
2.30306e-37
2.30319e-37
2.30331e-37
2.30341e-37
2.30349e-37
2.30355e-37
2.3036e-37
2.30362e-37
2.30362e-37
2.3036e-37
2.30356e-37
2.30349e-37
2.3034e-37
2.30328e-37
2.30314e-37
2.30298e-37
2.30278e-37
2.30256e-37
2.30231e-37
2.30203e-37
2.30173e-37
2.30139e-37
2.30103e-37
2.30063e-37
2.3002e-37
2.29974e-37
2.29925e-37
2.29872e-37
2.29817e-37
2.29758e-37
2.29696e-37
2.2963e-37
2.29561e-37
2.29489e-37
2.29414e-37
2.29335e-37
2.29253e-37
2.29168e-37
2.2908e-37
2.28988e-37
2.28893e-37
2.28795e-37
2.28694e-37
2.2859e-37
2.28483e-37
2.28373e-37
2.2826e-37
2.28144e-37
2.28026e-37
2.27905e-37
2.27781e-37
2.27655e-37
2.27526e-37
2.27395e-37
2.27262e-37
2.27126e-37
2.26989e-37
2.2685e-37
2.26714e-37
2.26608e-37
2.26696e-37
2.27984e-37
2.36671e-37
2.9096e-37
6.26517e-37
2.69782e-36
1.54843e-35
9.44204e-35
5.81522e-34
3.58319e-33
2.2021e-32
1.34564e-31
8.14164e-31
4.85191e-30
2.83296e-29
1.61484e-28
8.98749e-28
4.91074e-27
2.66177e-26
1.64618e-25
9.06719e-25
4.94685e-24
2.70328e-23
1.48059e-22
8.12723e-22
4.47077e-21
2.46464e-20
1.36185e-19
7.54539e-19
4.19494e-18
2.34312e-17
1.31757e-16
7.48237e-16
4.31071e-15
2.53391e-14
1.52935e-13
9.5301e-13
6.14934e-12
4.10275e-11
2.81061e-10
1.93702e-09
1.31378e-08
8.52228e-08
5.26851e-07
3.06214e-06
1.61548e-05
7.27952e-05
0.000247388
0.000496518
0.000510956
0.000431021
0.000317543
0.000222119
0.00015343
0.000104995
7.11637e-05
4.82452e-05
3.3157e-05
2.33447e-05
1.69387e-05
1.26891e-05
9.80074e-06
7.77978e-06
6.32242e-06
5.24176e-06
4.42194e-06
3.78986e-06
3.29795e-06
2.91388e-06
2.6145e-06
2.38236e-06
2.20372e-06
2.06744e-06
1.9644e-06
1.88712e-06
1.82957e-06
1.78694e-06
1.7555e-06
1.73243e-06
1.7156e-06
1.70383e-06
1.6955e-06
1.68967e-06
1.68582e-06
1.68356e-06
1.68256e-06
1.68257e-06
1.68338e-06
1.68479e-06
1.68665e-06
1.68881e-06
1.69116e-06
1.6936e-06
1.69605e-06
1.69844e-06
1.70073e-06
1.70289e-06
1.70488e-06
1.70671e-06
1.70836e-06
1.70984e-06
1.71115e-06
1.71231e-06
1.71332e-06
1.71419e-06
1.71495e-06
1.71561e-06
1.71616e-06
1.71664e-06
1.71705e-06
1.71739e-06
1.71768e-06
1.71793e-06
1.71814e-06
1.71832e-06
1.71847e-06
1.7186e-06
1.71871e-06
1.71881e-06
1.7189e-06
1.71897e-06
1.71903e-06
1.71909e-06
1.71914e-06
1.71919e-06
1.71923e-06
1.71927e-06
1.71931e-06
1.71935e-06
1.71938e-06
1.71941e-06
1.71945e-06
1.71948e-06
1.71951e-06
1.71953e-06
1.71956e-06
1.71959e-06
1.71962e-06
1.71964e-06
1.71967e-06
1.71969e-06
1.7197e-06
1.71967e-06
1.71951e-06
1.71945e-06
1.71968e-06
1.71979e-06
1.71984e-06
1.71987e-06
1.71989e-06
1.71991e-06
1.71992e-06
1.71994e-06
1.71995e-06
1.71997e-06
1.71998e-06
1.72e-06
1.72001e-06
1.72003e-06
1.72004e-06
1.72006e-06
1.72008e-06
1.72009e-06
1.72011e-06
1.72013e-06
1.72014e-06
1.72016e-06
1.72018e-06
1.72019e-06
1.72021e-06
1.72023e-06
1.72025e-06
1.72026e-06
1.72028e-06
1.7203e-06
1.72032e-06
1.72033e-06
1.72035e-06
1.72037e-06
1.72039e-06
1.7204e-06
1.72042e-06
1.72044e-06
1.72046e-06
1.72047e-06
1.72049e-06
1.72051e-06
1.72053e-06
1.72055e-06
1.72056e-06
1.72058e-06
1.7206e-06
1.72061e-06
1.72063e-06
1.72064e-06
1.72066e-06
1.72068e-06
1.72069e-06
1.72071e-06
1.72072e-06
1.72074e-06
1.72075e-06
1.72076e-06
1.72077e-06
1.72079e-06
1.7208e-06
1.72082e-06
1.72083e-06
1.72084e-06
1.72085e-06
1.72087e-06
1.72088e-06
1.72089e-06
1.7209e-06
1.72091e-06
1.72092e-06
1.72093e-06
1.72094e-06
1.72095e-06
1.72095e-06
1.72096e-06
1.72097e-06
1.72097e-06
1.72098e-06
1.72099e-06
1.72099e-06
1.721e-06
1.721e-06
1.72101e-06
1.72101e-06
1.72101e-06
1.72102e-06
1.72102e-06
1.72102e-06
1.72102e-06
1.72102e-06
1.72102e-06
1.72102e-06
1.72102e-06
1.72102e-06
1.72102e-06
1.72102e-06
1.72102e-06
1.72101e-06
1.72101e-06
1.72101e-06
1.721e-06
1.721e-06
1.72099e-06
1.72099e-06
1.72098e-06
1.72098e-06
1.72097e-06
1.72096e-06
1.72095e-06
1.72094e-06
1.72093e-06
1.72092e-06
1.72091e-06
1.7209e-06
1.72089e-06
1.72088e-06
1.72086e-06
1.72085e-06
1.72084e-06
1.72083e-06
1.72083e-06
1.72082e-06
)
;

boundaryField
{
    boundary
    {
        type            empty;
    }
    inlet
    {
        type            fixedValue;
        value           uniform 0;
    }
    outlet
    {
        type            zeroGradient;
    }
}


// ************************************************************************* //
