/*--------------------------------*- C++ -*----------------------------------*\
  =========                 |
  \\      /  F ield         | OpenFOAM: The Open Source CFD Toolbox
   \\    /   O peration     | Website:  https://openfoam.org
    \\  /    A nd           | Version:  7
     \\/     M anipulation  |
\*---------------------------------------------------------------------------*/
FoamFile
{
    version     2.0;
    format      ascii;
    class       volScalarField;
    location    "4e-05";
    object      O;
}
// * * * * * * * * * * * * * * * * * * * * * * * * * * * * * * * * * * * * * //

dimensions      [0 0 0 0 0 0 0];

internalField   nonuniform List<scalar> 
500
(
1.51534e-47
3.38506e-47
4.86737e-47
5.90251e-47
6.55146e-47
6.92281e-47
7.1192e-47
7.21611e-47
7.26105e-47
7.28076e-47
7.289e-47
7.29232e-47
7.29364e-47
7.2942e-47
7.29447e-47
7.29465e-47
7.2948e-47
7.29494e-47
7.29509e-47
7.29525e-47
7.29542e-47
7.29559e-47
7.29577e-47
7.29596e-47
7.29616e-47
7.29637e-47
7.29659e-47
7.29681e-47
7.29704e-47
7.29729e-47
7.29754e-47
7.2978e-47
7.29807e-47
7.29835e-47
7.29863e-47
7.29893e-47
7.29923e-47
7.29955e-47
7.29987e-47
7.30021e-47
7.30055e-47
7.3009e-47
7.30127e-47
7.30164e-47
7.30202e-47
7.30241e-47
7.30281e-47
7.30322e-47
7.30364e-47
7.30407e-47
7.30451e-47
7.30496e-47
7.30542e-47
7.30589e-47
7.30637e-47
7.30686e-47
7.30736e-47
7.30787e-47
7.30839e-47
7.30892e-47
7.30946e-47
7.31001e-47
7.31057e-47
7.31114e-47
7.31172e-47
7.31231e-47
7.31291e-47
7.31352e-47
7.31414e-47
7.31477e-47
7.31541e-47
7.31606e-47
7.31672e-47
7.31739e-47
7.31807e-47
7.31876e-47
7.31946e-47
7.32017e-47
7.32089e-47
7.32162e-47
7.32237e-47
7.32312e-47
7.32388e-47
7.32466e-47
7.32544e-47
7.32623e-47
7.32704e-47
7.32786e-47
7.32868e-47
7.32952e-47
7.33037e-47
7.33123e-47
7.3321e-47
7.33299e-47
7.33388e-47
7.33479e-47
7.3357e-47
7.33663e-47
7.33757e-47
7.33853e-47
7.33949e-47
7.34047e-47
7.34146e-47
7.34246e-47
7.34347e-47
7.3445e-47
7.34553e-47
7.34658e-47
7.34765e-47
7.34872e-47
7.34981e-47
7.35091e-47
7.35202e-47
7.35315e-47
7.35428e-47
7.35543e-47
7.3566e-47
7.35777e-47
7.35893e-47
7.36004e-47
7.36082e-47
7.36016e-47
7.35334e-47
7.32143e-47
7.19523e-47
7.05815e-47
7.19607e-47
7.28027e-47
7.32579e-47
7.34971e-47
7.36266e-47
7.36998e-47
7.37432e-47
7.37708e-47
7.37907e-47
7.38068e-47
7.38215e-47
7.38355e-47
7.38494e-47
7.38632e-47
7.3877e-47
7.38907e-47
7.39045e-47
7.39183e-47
7.3932e-47
7.39457e-47
7.39593e-47
7.39729e-47
7.39863e-47
7.39997e-47
7.4013e-47
7.40261e-47
7.40391e-47
7.40519e-47
7.40645e-47
7.40769e-47
7.40891e-47
7.4101e-47
7.41127e-47
7.41241e-47
7.41351e-47
7.41459e-47
7.41562e-47
7.41662e-47
7.41757e-47
7.41848e-47
7.41935e-47
7.42016e-47
7.42092e-47
7.42163e-47
7.42227e-47
7.42286e-47
7.42338e-47
7.42384e-47
7.42422e-47
7.42453e-47
7.42477e-47
7.42492e-47
7.42499e-47
7.42498e-47
7.42487e-47
7.42468e-47
7.42439e-47
7.424e-47
7.42351e-47
7.42291e-47
7.42221e-47
7.4214e-47
7.42048e-47
7.41944e-47
7.41828e-47
7.417e-47
7.4156e-47
7.41408e-47
7.41242e-47
7.41064e-47
7.40873e-47
7.40669e-47
7.40451e-47
7.4022e-47
7.39976e-47
7.39717e-47
7.39445e-47
7.39159e-47
7.3886e-47
7.38546e-47
7.38219e-47
7.37878e-47
7.37523e-47
7.37155e-47
7.36773e-47
7.36378e-47
7.3597e-47
7.35549e-47
7.35115e-47
7.34668e-47
7.34209e-47
7.33738e-47
7.33255e-47
7.32761e-47
7.32255e-47
7.31738e-47
7.31211e-47
7.30673e-47
7.30125e-47
7.29568e-47
7.29001e-47
7.28426e-47
7.27849e-47
7.27302e-47
7.27e-47
7.28291e-47
7.39733e-47
8.15591e-47
1.29955e-46
4.36469e-46
2.37194e-45
1.45608e-44
9.11364e-44
5.7189e-43
3.60426e-42
2.30635e-41
1.53234e-40
1.0951e-39
8.74446e-39
7.9295e-38
8.00684e-37
8.65457e-36
9.66445e-35
1.08991e-33
1.2263e-32
2.54804e-31
2.77498e-30
2.95123e-29
3.08811e-28
3.17649e-27
3.2089e-26
3.1804e-25
3.08932e-24
2.9376e-23
2.73098e-22
2.47875e-21
2.19308e-20
1.88812e-19
1.57874e-18
1.27921e-17
1.00193e-16
7.56413e-16
5.4864e-15
3.80871e-14
2.51953e-13
1.58006e-12
9.3372e-12
5.16256e-11
2.64888e-10
1.25004e-09
5.38445e-09
2.12567e-08
8.17793e-08
3.82284e-07
2.64481e-06
1.96873e-05
0.000101161
0.000386985
0.00108352
0.00213878
0.00321293
0.00399397
0.00439387
0.00449211
0.00440539
0.00422355
0.0040012
0.00376728
0.00353535
0.00331089
0.00309548
0.0028892
0.00269176
0.00250297
0.00232284
0.00215164
0.00198969
0.00183736
0.00169492
0.00156253
0.00144018
0.00132776
0.00122497
0.00113144
0.00104669
0.000970217
0.000903502
0.00084467
0.00079155
0.000743719
0.000700766
0.000662302
0.000627953
0.00059737
0.000570222
0.000546198
0.000525007
0.000506376
0.000490053
0.0004758
0.000463398
0.000452644
0.000443352
0.000435352
0.000428487
0.000422617
0.000417614
0.000413365
0.000409767
0.000406732
0.000404179
0.000402039
0.000400251
0.000398761
0.000397523
0.000396499
0.000395653
0.000394957
0.000394386
0.000393919
0.000393538
0.000393228
0.000392977
0.000392775
0.000392611
0.00039248
0.000392375
0.000392292
0.000392225
0.000392173
0.000392131
0.000392098
0.000392073
0.000392053
0.000392037
0.000392025
0.000392016
0.000392009
0.000392003
0.000391999
0.000391996
0.000391994
0.000391992
0.00039199
0.000391988
0.000391985
0.000391982
0.000391976
0.000391968
0.000391959
0.000391955
0.000391958
0.000391965
0.000391971
0.000391977
0.000391981
0.000391985
0.000391989
0.000391992
0.000391994
0.000391996
0.000391997
0.000391998
0.000392
0.000392
0.000392001
0.000392002
0.000392003
0.000392003
0.000392004
0.000392004
0.000392005
0.000392006
0.000392006
0.000392006
0.000392007
0.000392007
0.000392008
0.000392008
0.000392009
0.000392009
0.00039201
0.00039201
0.00039201
0.000392011
0.000392011
0.000392012
0.000392012
0.000392012
0.000392013
0.000392013
0.000392013
0.000392014
0.000392014
0.000392014
0.000392015
0.000392015
0.000392015
0.000392015
0.000392016
0.000392016
0.000392016
0.000392017
0.000392017
0.000392017
0.000392017
0.000392017
0.000392017
0.000392018
0.000392018
0.000392018
0.000392018
0.000392018
0.000392018
0.000392018
0.000392019
0.000392019
0.000392019
0.000392019
0.000392019
0.000392019
0.000392019
0.000392019
0.000392019
0.000392019
0.000392019
0.000392019
0.000392019
0.000392019
0.000392019
0.000392019
0.000392019
0.000392019
0.000392019
0.000392019
0.000392019
0.000392019
0.000392019
0.000392019
0.000392018
0.000392018
0.000392018
0.000392018
0.000392018
0.000392018
0.000392017
0.000392017
0.000392017
0.000392017
0.000392017
0.000392016
0.000392016
0.000392016
0.000392016
0.000392015
0.000392015
0.000392014
0.000392014
0.000392014
0.000392013
0.000392013
0.000392013
0.000392012
0.000392012
0.000392012
0.000392011
0.000392011
0.00039201
0.00039201
0.00039201
0.000392009
0.000392009
0.000392009
0.000392008
)
;

boundaryField
{
    boundary
    {
        type            empty;
    }
    inlet
    {
        type            fixedValue;
        value           uniform 0;
    }
    outlet
    {
        type            zeroGradient;
    }
}


// ************************************************************************* //
