/*--------------------------------*- C++ -*----------------------------------*\
  =========                 |
  \\      /  F ield         | OpenFOAM: The Open Source CFD Toolbox
   \\    /   O peration     | Website:  https://openfoam.org
    \\  /    A nd           | Version:  7
     \\/     M anipulation  |
\*---------------------------------------------------------------------------*/
FoamFile
{
    version     2.0;
    format      ascii;
    class       volScalarField;
    location    "4e-05";
    object      O2;
}
// * * * * * * * * * * * * * * * * * * * * * * * * * * * * * * * * * * * * * //

dimensions      [0 0 0 0 0 0 0];

internalField   nonuniform List<scalar> 
500
(
0.226269
0.226269
0.226269
0.226269
0.226269
0.226269
0.226269
0.226269
0.226269
0.226269
0.226269
0.226269
0.226269
0.226269
0.226269
0.226269
0.226269
0.226269
0.226269
0.226269
0.226269
0.226269
0.226269
0.226269
0.226269
0.226269
0.226269
0.226269
0.226269
0.226269
0.226269
0.226269
0.226269
0.226269
0.226269
0.226269
0.226269
0.226269
0.226269
0.226269
0.226269
0.226269
0.226269
0.226269
0.226269
0.226269
0.226269
0.226269
0.226269
0.226269
0.226269
0.226269
0.226269
0.226269
0.226269
0.226269
0.226269
0.226269
0.226269
0.226269
0.226269
0.226269
0.226269
0.226269
0.226269
0.226269
0.226269
0.226269
0.226269
0.226269
0.226269
0.226269
0.226269
0.226269
0.226269
0.226269
0.226269
0.226269
0.226269
0.226269
0.226269
0.226269
0.226269
0.226269
0.226269
0.226269
0.226269
0.226269
0.226269
0.226269
0.226269
0.226269
0.226269
0.226269
0.226269
0.226269
0.226269
0.226269
0.226269
0.226269
0.226269
0.226269
0.226269
0.226269
0.226269
0.226269
0.226269
0.226269
0.226269
0.226269
0.226269
0.226269
0.226269
0.226269
0.226269
0.226269
0.226269
0.226269
0.226269
0.226269
0.226269
0.226269
0.226269
0.226269
0.226269
0.226269
0.226269
0.226269
0.226269
0.226269
0.226269
0.226269
0.226269
0.226269
0.226269
0.226269
0.226269
0.226269
0.226269
0.226269
0.226269
0.226269
0.226269
0.226269
0.226269
0.226269
0.226269
0.226269
0.226269
0.226269
0.226269
0.226269
0.226269
0.226269
0.226269
0.226269
0.226269
0.226269
0.226269
0.226269
0.226269
0.226269
0.226269
0.226269
0.226269
0.226269
0.226269
0.226269
0.226269
0.226269
0.226269
0.226269
0.226269
0.226269
0.226269
0.226269
0.226269
0.226269
0.226269
0.226269
0.226269
0.226269
0.226269
0.226269
0.226269
0.226269
0.226269
0.226269
0.226269
0.226269
0.226269
0.226269
0.226269
0.226269
0.226269
0.226269
0.226269
0.226269
0.226269
0.226269
0.226269
0.226269
0.226269
0.226269
0.226269
0.226269
0.226269
0.226269
0.226269
0.226269
0.226269
0.226269
0.226269
0.226269
0.226269
0.226269
0.226269
0.226269
0.226269
0.226269
0.226269
0.226269
0.226269
0.226269
0.226269
0.226269
0.226269
0.226269
0.226269
0.226269
0.226269
0.226269
0.226269
0.226269
0.226269
0.226269
0.226269
0.226269
0.226269
0.226269
0.226269
0.226269
0.226269
0.226269
0.226269
0.226269
0.226269
0.226269
0.226269
0.226269
0.226269
0.226269
0.226269
0.226269
0.226269
0.226269
0.226269
0.226269
0.226269
0.226269
0.226269
0.226269
0.226269
0.226269
0.226269
0.226269
0.226269
0.226269
0.226269
0.226269
0.226269
0.226269
0.226269
0.226269
0.22627
0.226271
0.226272
0.226263
0.226167
0.225604
0.223268
0.216371
0.203195
0.185998
0.164973
0.139511
0.111849
0.0862412
0.0655393
0.0501563
0.0391982
0.0315084
0.026101
0.0222474
0.0194423
0.0173451
0.0157298
0.014447
0.0133983
0.012519
0.0117661
0.011111
0.0105347
0.0100243
0.00957094
0.0091685
0.00881239
0.00849912
0.00822573
0.00798957
0.00778807
0.00761862
0.0074827
0.00737321
0.00728473
0.00721498
0.00716166
0.00712251
0.00709533
0.00707806
0.0070688
0.00706585
0.0070677
0.00707307
0.00708086
0.0070902
0.00710037
0.00711084
0.00712118
0.0071311
0.0071404
0.00714897
0.00715674
0.00716368
0.00716982
0.0071752
0.00717986
0.00718387
0.00718729
0.00719018
0.00719262
0.00719466
0.00719635
0.00719775
0.00719891
0.00719985
0.00720061
0.00720123
0.00720173
0.00720213
0.00720245
0.0072027
0.0072029
0.00720306
0.00720318
0.00720327
0.00720334
0.0072034
0.00720344
0.00720347
0.00720349
0.0072035
0.00720351
0.00720352
0.00720352
0.00720352
0.00720352
0.00720352
0.00720351
0.00720351
0.00720351
0.00720351
0.00720351
0.00720352
0.00720355
0.00720361
0.00720365
0.00720359
0.00720356
0.00720353
0.00720352
0.00720351
0.0072035
0.00720349
0.00720348
0.00720347
0.00720346
0.00720345
0.00720343
0.00720342
0.00720341
0.00720339
0.00720338
0.00720337
0.00720336
0.00720335
0.00720334
0.00720333
0.00720332
0.00720331
0.0072033
0.0072033
0.00720329
0.00720328
0.00720328
0.00720327
0.00720326
0.00720325
0.00720325
0.00720324
0.00720323
0.00720323
0.00720322
0.00720321
0.00720321
0.0072032
0.00720319
0.00720319
0.00720318
0.00720317
0.00720316
0.00720316
0.00720315
0.00720314
0.00720314
0.00720313
0.00720312
0.00720312
0.00720311
0.0072031
0.0072031
0.00720309
0.00720308
0.00720308
0.00720307
0.00720306
0.00720306
0.00720305
0.00720305
0.00720304
0.00720303
0.00720303
0.00720302
0.00720302
0.00720301
0.007203
0.007203
0.00720299
0.00720299
0.00720298
0.00720298
0.00720298
0.00720297
0.00720297
0.00720296
0.00720296
0.00720295
0.00720295
0.00720295
0.00720294
0.00720294
0.00720293
0.00720293
0.00720293
0.00720293
0.00720292
0.00720292
0.00720292
0.00720292
0.00720291
0.00720291
0.00720291
0.00720291
0.00720291
0.00720291
0.0072029
0.0072029
0.0072029
0.0072029
0.0072029
0.0072029
0.0072029
0.0072029
0.0072029
0.0072029
0.0072029
0.0072029
0.00720291
0.00720291
0.00720291
0.00720291
0.00720291
0.00720291
0.00720291
0.00720291
0.00720292
0.00720292
0.00720292
0.00720292
0.00720292
)
;

boundaryField
{
    boundary
    {
        type            empty;
    }
    inlet
    {
        type            fixedValue;
        value           uniform 0.226269;
    }
    outlet
    {
        type            zeroGradient;
    }
}


// ************************************************************************* //
