/*--------------------------------*- C++ -*----------------------------------*\
  =========                 |
  \\      /  F ield         | OpenFOAM: The Open Source CFD Toolbox
   \\    /   O peration     | Website:  https://openfoam.org
    \\  /    A nd           | Version:  7
     \\/     M anipulation  |
\*---------------------------------------------------------------------------*/
FoamFile
{
    version     2.0;
    format      ascii;
    class       volScalarField;
    location    "4e-05";
    object      OH;
}
// * * * * * * * * * * * * * * * * * * * * * * * * * * * * * * * * * * * * * //

dimensions      [0 0 0 0 0 0 0];

internalField   nonuniform List<scalar> 
500
(
9.90381e-48
1.99567e-47
2.68757e-47
3.11855e-47
3.36321e-47
3.49133e-47
3.55397e-47
3.58281e-47
3.59541e-47
3.60067e-47
3.60277e-47
3.6036e-47
3.60393e-47
3.60407e-47
3.60414e-47
3.60419e-47
3.60424e-47
3.60429e-47
3.60434e-47
3.60439e-47
3.60444e-47
3.6045e-47
3.60455e-47
3.60461e-47
3.60467e-47
3.60473e-47
3.60479e-47
3.60486e-47
3.60493e-47
3.60499e-47
3.60506e-47
3.60514e-47
3.60521e-47
3.60528e-47
3.60536e-47
3.60544e-47
3.60552e-47
3.6056e-47
3.60568e-47
3.60576e-47
3.60584e-47
3.60593e-47
3.60601e-47
3.6061e-47
3.60619e-47
3.60627e-47
3.60636e-47
3.60645e-47
3.60654e-47
3.60663e-47
3.60672e-47
3.60681e-47
3.6069e-47
3.607e-47
3.60709e-47
3.60718e-47
3.60727e-47
3.60736e-47
3.60745e-47
3.60754e-47
3.60763e-47
3.60772e-47
3.60781e-47
3.6079e-47
3.60798e-47
3.60807e-47
3.60815e-47
3.60824e-47
3.60832e-47
3.6084e-47
3.60849e-47
3.60856e-47
3.60864e-47
3.60872e-47
3.6088e-47
3.60887e-47
3.60894e-47
3.60902e-47
3.60909e-47
3.60916e-47
3.60922e-47
3.60929e-47
3.60935e-47
3.60942e-47
3.60948e-47
3.60954e-47
3.60959e-47
3.60965e-47
3.60971e-47
3.60976e-47
3.60981e-47
3.60987e-47
3.60992e-47
3.60996e-47
3.61001e-47
3.61006e-47
3.6101e-47
3.61015e-47
3.61019e-47
3.61024e-47
3.61028e-47
3.61032e-47
3.61036e-47
3.6104e-47
3.61044e-47
3.61048e-47
3.61052e-47
3.61056e-47
3.6106e-47
3.61063e-47
3.61067e-47
3.61071e-47
3.61075e-47
3.61079e-47
3.61083e-47
3.61086e-47
3.6109e-47
3.61094e-47
3.61098e-47
3.611e-47
3.61094e-47
3.61055e-47
3.60868e-47
3.60051e-47
3.56671e-47
3.52971e-47
3.56867e-47
3.59024e-47
3.60118e-47
3.60652e-47
3.60914e-47
3.61044e-47
3.61108e-47
3.6114e-47
3.61155e-47
3.61164e-47
3.61169e-47
3.61173e-47
3.61176e-47
3.61179e-47
3.61181e-47
3.61183e-47
3.61184e-47
3.61185e-47
3.61185e-47
3.61185e-47
3.61184e-47
3.61182e-47
3.61179e-47
3.61176e-47
3.61171e-47
3.61166e-47
3.61159e-47
3.61152e-47
3.61142e-47
3.61132e-47
3.6112e-47
3.61106e-47
3.61091e-47
3.61074e-47
3.61055e-47
3.61034e-47
3.61011e-47
3.60986e-47
3.60958e-47
3.60928e-47
3.60895e-47
3.60859e-47
3.60821e-47
3.60779e-47
3.60734e-47
3.60686e-47
3.60635e-47
3.6058e-47
3.60521e-47
3.60458e-47
3.60391e-47
3.6032e-47
3.60245e-47
3.60165e-47
3.6008e-47
3.59991e-47
3.59897e-47
3.59798e-47
3.59694e-47
3.59584e-47
3.59469e-47
3.59348e-47
3.59222e-47
3.5909e-47
3.58952e-47
3.58808e-47
3.58658e-47
3.58502e-47
3.5834e-47
3.58171e-47
3.57996e-47
3.57814e-47
3.57626e-47
3.57432e-47
3.57231e-47
3.57023e-47
3.56809e-47
3.56588e-47
3.56361e-47
3.56128e-47
3.55888e-47
3.55642e-47
3.55389e-47
3.5513e-47
3.54866e-47
3.54595e-47
3.54318e-47
3.54036e-47
3.53748e-47
3.53455e-47
3.53157e-47
3.52853e-47
3.52545e-47
3.52232e-47
3.51915e-47
3.51594e-47
3.51268e-47
3.50939e-47
3.50605e-47
3.50269e-47
3.49929e-47
3.49587e-47
3.49244e-47
3.4891e-47
3.48647e-47
3.4884e-47
3.51886e-47
3.7272e-47
5.04517e-47
1.32928e-46
6.49484e-46
3.90511e-45
2.47322e-44
1.62217e-43
1.12513e-42
8.5435e-42
7.31906e-41
7.09629e-40
7.57664e-39
8.57405e-38
9.97034e-37
1.16865e-35
1.36639e-34
1.58512e-33
1.81962e-32
3.62679e-31
4.00662e-30
4.32444e-29
4.59349e-28
4.79888e-27
4.92714e-26
4.96778e-25
4.91444e-24
4.76583e-23
4.52624e-22
4.20554e-21
3.81864e-20
3.38436e-19
2.92392e-18
2.45905e-17
2.01011e-16
1.59444e-15
1.22505e-14
9.0994e-14
6.52027e-13
4.5007e-12
3.01386e-11
1.94812e-10
1.21296e-09
7.26157e-09
4.1951e-08
2.36721e-07
1.34976e-06
8.28409e-06
5.52085e-05
0.000286324
0.000634232
0.000816321
0.00103875
0.00155826
0.00244414
0.00356545
0.00472238
0.00577686
0.00667839
0.00743205
0.00806335
0.00859791
0.00905398
0.00944171
0.00976523
0.0100253
0.0102214
0.0103536
0.010423
0.0104325
0.0103866
0.0102911
0.0101525
0.00997813
0.00977525
0.00955096
0.00931187
0.00906398
0.00881259
0.00856223
0.00832402
0.00809797
0.00787993
0.00767156
0.0074741
0.00728847
0.00711528
0.00695484
0.00680727
0.00667244
0.00655005
0.00643968
0.00634076
0.00625264
0.00617459
0.00610586
0.00604567
0.00599325
0.0059478
0.00590862
0.00587498
0.00584623
0.00582178
0.00580106
0.00578358
0.00576889
0.00575659
0.00574633
0.00573781
0.00573075
0.00572493
0.00572014
0.00571622
0.00571301
0.00571041
0.0057083
0.00570659
0.00570522
0.00570413
0.00570325
0.00570256
0.00570202
0.00570159
0.00570126
0.005701
0.00570081
0.00570066
0.00570055
0.00570047
0.00570042
0.00570039
0.00570037
0.00570036
0.00570036
0.00570036
0.00570037
0.00570038
0.0057004
0.00570041
0.00570041
0.0057004
0.00570036
0.00570027
0.00570006
0.0057
0.00570021
0.00570036
0.00570046
0.00570054
0.0057006
0.00570065
0.0057007
0.00570074
0.00570077
0.00570081
0.00570084
0.00570086
0.00570089
0.00570091
0.00570094
0.00570096
0.00570099
0.00570101
0.00570103
0.00570106
0.00570108
0.0057011
0.00570112
0.00570115
0.00570117
0.00570119
0.00570121
0.00570124
0.00570126
0.00570128
0.0057013
0.00570132
0.00570135
0.00570137
0.00570139
0.00570141
0.00570143
0.00570145
0.00570147
0.0057015
0.00570152
0.00570154
0.00570156
0.00570158
0.0057016
0.00570162
0.00570164
0.00570166
0.00570168
0.0057017
0.00570172
0.00570174
0.00570176
0.00570178
0.00570179
0.00570181
0.00570183
0.00570185
0.00570186
0.00570188
0.0057019
0.00570191
0.00570193
0.00570194
0.00570196
0.00570197
0.00570199
0.005702
0.00570202
0.00570203
0.00570204
0.00570205
0.00570207
0.00570208
0.00570209
0.0057021
0.00570211
0.00570212
0.00570213
0.00570213
0.00570214
0.00570215
0.00570216
0.00570216
0.00570217
0.00570218
0.00570218
0.00570219
0.00570219
0.00570219
0.0057022
0.0057022
0.0057022
0.0057022
0.0057022
0.0057022
0.0057022
0.0057022
0.0057022
0.0057022
0.0057022
0.00570219
0.00570219
0.00570219
0.00570218
0.00570218
0.00570217
0.00570216
0.00570216
0.00570215
0.00570214
0.00570213
0.00570213
0.00570212
0.00570211
0.0057021
0.00570209
0.00570208
0.00570207
0.00570206
0.00570205
0.00570204
0.00570204
)
;

boundaryField
{
    boundary
    {
        type            empty;
    }
    inlet
    {
        type            fixedValue;
        value           uniform 0;
    }
    outlet
    {
        type            zeroGradient;
    }
}


// ************************************************************************* //
