/*--------------------------------*- C++ -*----------------------------------*\
  =========                 |
  \\      /  F ield         | OpenFOAM: The Open Source CFD Toolbox
   \\    /   O peration     | Website:  https://openfoam.org
    \\  /    A nd           | Version:  7
     \\/     M anipulation  |
\*---------------------------------------------------------------------------*/
FoamFile
{
    version     2.0;
    format      ascii;
    class       volScalarField;
    location    "4e-05";
    object      p;
}
// * * * * * * * * * * * * * * * * * * * * * * * * * * * * * * * * * * * * * //

dimensions      [1 -1 -2 0 0 0 0];

internalField   nonuniform List<scalar> 
500
(
102422
102422
102422
102422
102422
102422
102422
102422
102422
102422
102422
102422
102422
102422
102422
102422
102422
102422
102422
102422
102422
102422
102422
102422
102422
102422
102422
102422
102422
102422
102422
102422
102422
102422
102422
102422
102422
102422
102422
102423
102423
102423
102423
102423
102423
102424
102424
102424
102424
102424
102425
102425
102425
102425
102426
102426
102426
102427
102427
102428
102428
102428
102429
102429
102430
102430
102431
102431
102432
102432
102433
102434
102434
102435
102435
102436
102437
102437
102438
102439
102440
102440
102441
102442
102443
102443
102444
102445
102446
102446
102447
102448
102449
102450
102451
102451
102452
102453
102454
102455
102456
102456
102457
102458
102459
102460
102461
102461
102462
102463
102464
102465
102465
102466
102467
102468
102468
102469
102470
102470
102471
102472
102472
102473
102474
102474
102475
102475
102476
102476
102477
102477
102477
102478
102478
102478
102479
102479
102479
102479
102480
102480
102480
102480
102480
102480
102480
102480
102480
102480
102480
102480
102479
102479
102479
102479
102478
102478
102478
102477
102477
102476
102476
102475
102475
102474
102473
102473
102472
102471
102470
102469
102469
102468
102467
102466
102465
102464
102463
102462
102460
102459
102458
102457
102456
102454
102453
102452
102450
102449
102448
102446
102445
102443
102442
102440
102439
102437
102435
102434
102432
102430
102429
102427
102425
102423
102422
102420
102418
102416
102414
102412
102410
102408
102407
102405
102403
102401
102399
102397
102395
102393
102391
102389
102386
102384
102382
102380
102378
102376
102374
102372
102370
102368
102365
102363
102361
102359
102357
102355
102353
102350
102348
102346
102344
102342
102340
102338
102335
102333
102331
102329
102327
102325
102323
102320
102318
102316
102314
102312
102310
102308
102306
102303
102301
102299
102297
102295
102293
102291
102289
102287
102285
102283
102281
102279
102277
102275
102273
102271
102269
102266
102263
102260
102257
102254
102252
102249
102247
102246
102244
102243
102242
102240
102239
102238
102237
102236
102235
102234
102233
102232
102231
102230
102229
102229
102228
102227
102226
102225
102224
102223
102222
102222
102221
102220
102219
102218
102218
102217
102216
102215
102214
102213
102213
102212
102211
102210
102209
102209
102208
102207
102206
102205
102204
102204
102203
102202
102201
102200
102199
102199
102198
102197
102196
102195
102194
102194
102193
102192
102191
102190
102190
102189
102188
102187
102186
102186
102185
102184
102183
102182
102182
102181
102180
102179
102179
102178
102177
102176
102176
102175
102174
102173
102173
102172
102171
102170
102169
102168
102167
102166
102165
102164
102163
102162
102161
102160
102159
102158
102157
102156
102155
102154
102153
102152
102151
102150
102149
102148
102148
102147
102146
102145
102144
102143
102142
102141
102140
102139
102138
102138
102137
102136
102135
102134
102133
102132
102131
102130
102129
102129
102128
102127
102126
102125
102124
102123
102122
102122
102121
102120
102119
102118
102117
102116
102115
102115
102114
102113
102112
102111
102110
102109
102108
102108
102107
102106
102105
102104
102103
102102
102102
102101
102100
102099
102098
102097
102096
102096
102095
102094
102093
102092
102091
102090
102090
102089
102088
102087
102086
102085
102085
102084
102083
102082
102081
102080
102080
102079
102078
102077
102076
102075
102074
102074
102073
102072
102071
102070
102069
102069
102068
102067
102066
102065
102065
102064
102063
102062
)
;

boundaryField
{
    boundary
    {
        type            empty;
    }
    inlet
    {
        type            zeroGradient;
    }
    outlet
    {
        type            waveTransmissive;
        gamma           1.4;
        value           uniform 102062;
    }
}


// ************************************************************************* //
