/*--------------------------------*- C++ -*----------------------------------*\
  =========                 |
  \\      /  F ield         | OpenFOAM: The Open Source CFD Toolbox
   \\    /   O peration     | Website:  https://openfoam.org
    \\  /    A nd           | Version:  7
     \\/     M anipulation  |
\*---------------------------------------------------------------------------*/
FoamFile
{
    version     2.0;
    format      ascii;
    class       surfaceScalarField;
    location    "4e-05";
    object      phi;
}
// * * * * * * * * * * * * * * * * * * * * * * * * * * * * * * * * * * * * * //

dimensions      [1 0 -1 0 0 0 0];

internalField   nonuniform List<scalar> 
499
(
6.85094e-06
6.81934e-06
6.78872e-06
6.75993e-06
6.73279e-06
6.70673e-06
6.68125e-06
6.65607e-06
6.63104e-06
6.60612e-06
6.58128e-06
6.55653e-06
6.53185e-06
6.50727e-06
6.48279e-06
6.45842e-06
6.43415e-06
6.41e-06
6.38597e-06
6.36208e-06
6.33831e-06
6.31469e-06
6.29122e-06
6.2679e-06
6.24474e-06
6.22174e-06
6.19892e-06
6.17626e-06
6.15379e-06
6.1315e-06
6.1094e-06
6.08749e-06
6.06578e-06
6.04428e-06
6.02298e-06
6.00189e-06
5.98101e-06
5.96036e-06
5.93992e-06
5.91971e-06
5.89973e-06
5.87998e-06
5.86046e-06
5.84117e-06
5.82213e-06
5.80332e-06
5.78476e-06
5.76644e-06
5.74837e-06
5.73055e-06
5.71297e-06
5.69564e-06
5.67856e-06
5.66173e-06
5.64516e-06
5.62883e-06
5.61275e-06
5.59693e-06
5.58135e-06
5.56602e-06
5.55094e-06
5.53611e-06
5.52152e-06
5.50718e-06
5.49308e-06
5.47922e-06
5.4656e-06
5.45221e-06
5.43906e-06
5.42613e-06
5.41344e-06
5.40096e-06
5.38871e-06
5.37668e-06
5.36485e-06
5.35324e-06
5.34183e-06
5.33062e-06
5.31961e-06
5.30879e-06
5.29815e-06
5.28769e-06
5.27741e-06
5.2673e-06
5.25736e-06
5.24757e-06
5.23794e-06
5.22845e-06
5.2191e-06
5.20988e-06
5.2008e-06
5.19183e-06
5.18298e-06
5.17423e-06
5.16559e-06
5.15704e-06
5.14857e-06
5.14018e-06
5.13186e-06
5.12361e-06
5.11541e-06
5.10726e-06
5.09915e-06
5.09107e-06
5.08302e-06
5.07498e-06
5.06696e-06
5.05893e-06
5.0509e-06
5.04286e-06
5.03479e-06
5.02669e-06
5.01856e-06
5.01037e-06
5.00214e-06
4.99384e-06
4.98547e-06
4.97703e-06
4.9685e-06
4.95987e-06
4.95115e-06
4.94232e-06
4.93337e-06
4.9243e-06
4.91511e-06
4.90577e-06
4.89628e-06
4.88664e-06
4.87685e-06
4.86691e-06
4.85679e-06
4.84649e-06
4.83601e-06
4.82535e-06
4.81449e-06
4.80343e-06
4.79216e-06
4.78068e-06
4.76899e-06
4.75707e-06
4.74493e-06
4.73256e-06
4.71995e-06
4.7071e-06
4.69401e-06
4.68068e-06
4.66709e-06
4.65325e-06
4.63915e-06
4.62479e-06
4.61016e-06
4.59527e-06
4.58011e-06
4.56469e-06
4.54899e-06
4.53301e-06
4.51676e-06
4.50024e-06
4.48343e-06
4.46635e-06
4.44899e-06
4.43135e-06
4.41343e-06
4.39523e-06
4.37675e-06
4.358e-06
4.33896e-06
4.31965e-06
4.30007e-06
4.2802e-06
4.26007e-06
4.23967e-06
4.21899e-06
4.19805e-06
4.17684e-06
4.15538e-06
4.13365e-06
4.11167e-06
4.08943e-06
4.06694e-06
4.04421e-06
4.02123e-06
3.99801e-06
3.97456e-06
3.95087e-06
3.92696e-06
3.90283e-06
3.87847e-06
3.8539e-06
3.82913e-06
3.80415e-06
3.77896e-06
3.75359e-06
3.72802e-06
3.70228e-06
3.67635e-06
3.65025e-06
3.62398e-06
3.59755e-06
3.57097e-06
3.54423e-06
3.51735e-06
3.49034e-06
3.46319e-06
3.43591e-06
3.40851e-06
3.381e-06
3.35339e-06
3.32567e-06
3.29785e-06
3.26995e-06
3.24196e-06
3.2139e-06
3.18577e-06
3.15758e-06
3.12933e-06
3.10102e-06
3.07268e-06
3.04429e-06
3.01588e-06
2.98744e-06
2.95898e-06
2.93051e-06
2.90203e-06
2.87356e-06
2.84509e-06
2.81663e-06
2.78819e-06
2.75978e-06
2.7314e-06
2.70306e-06
2.67476e-06
2.64652e-06
2.61832e-06
2.59019e-06
2.56213e-06
2.53414e-06
2.50623e-06
2.4784e-06
2.45067e-06
2.42303e-06
2.39549e-06
2.36806e-06
2.34075e-06
2.31355e-06
2.28647e-06
2.25952e-06
2.2327e-06
2.20602e-06
2.17949e-06
2.15308e-06
2.12681e-06
2.10072e-06
2.07481e-06
2.04905e-06
2.02347e-06
1.99807e-06
1.97284e-06
1.9478e-06
1.92294e-06
1.89828e-06
1.87381e-06
1.84954e-06
1.82547e-06
1.80161e-06
1.77796e-06
1.75452e-06
1.7313e-06
1.70829e-06
1.68552e-06
1.66296e-06
1.64064e-06
1.61854e-06
1.59668e-06
1.57517e-06
1.55477e-06
1.53952e-06
1.54808e-06
1.65664e-06
2.09404e-06
3.03297e-06
3.95005e-06
4.52093e-06
4.84868e-06
5.04944e-06
5.1799e-06
5.26253e-06
5.3092e-06
5.32727e-06
5.32098e-06
5.29292e-06
5.24536e-06
5.18087e-06
5.10247e-06
5.01357e-06
4.91764e-06
4.81804e-06
4.71778e-06
4.61946e-06
4.52516e-06
4.43649e-06
4.35459e-06
4.28017e-06
4.21362e-06
4.15502e-06
4.10422e-06
4.06086e-06
4.02448e-06
3.99449e-06
3.97024e-06
3.95107e-06
3.93629e-06
3.9258e-06
3.91808e-06
3.91267e-06
3.90915e-06
3.90712e-06
3.90623e-06
3.90617e-06
3.90669e-06
3.90757e-06
3.90863e-06
3.90973e-06
3.91077e-06
3.91166e-06
3.91234e-06
3.91277e-06
3.91294e-06
3.91283e-06
3.91245e-06
3.91179e-06
3.91088e-06
3.90973e-06
3.90836e-06
3.90678e-06
3.90502e-06
3.90309e-06
3.90101e-06
3.89881e-06
3.89649e-06
3.89407e-06
3.89156e-06
3.88898e-06
3.88634e-06
3.88364e-06
3.88089e-06
3.87811e-06
3.87529e-06
3.87244e-06
3.86956e-06
3.86666e-06
3.86375e-06
3.86082e-06
3.85788e-06
3.85493e-06
3.85196e-06
3.84899e-06
3.84601e-06
3.84303e-06
3.84004e-06
3.83704e-06
3.83404e-06
3.83103e-06
3.82802e-06
3.825e-06
3.82198e-06
3.81896e-06
3.81593e-06
3.8129e-06
3.80986e-06
3.80683e-06
3.80378e-06
3.80074e-06
3.79769e-06
3.79463e-06
3.79157e-06
3.78851e-06
3.78545e-06
3.78239e-06
3.77933e-06
3.77627e-06
3.7732e-06
3.77014e-06
3.76708e-06
3.76402e-06
3.76096e-06
3.75789e-06
3.75483e-06
3.75177e-06
3.7487e-06
3.74564e-06
3.74258e-06
3.73951e-06
3.73645e-06
3.73338e-06
3.73032e-06
3.72725e-06
3.72418e-06
3.72112e-06
3.71805e-06
3.71498e-06
3.71192e-06
3.70885e-06
3.70578e-06
3.70272e-06
3.69965e-06
3.69658e-06
3.69351e-06
3.69044e-06
3.68738e-06
3.68431e-06
3.68124e-06
3.67817e-06
3.6751e-06
3.67204e-06
3.66897e-06
3.6659e-06
3.66284e-06
3.65977e-06
3.6567e-06
3.65364e-06
3.65057e-06
3.64751e-06
3.64444e-06
3.64138e-06
3.63831e-06
3.63525e-06
3.63219e-06
3.62912e-06
3.62606e-06
3.623e-06
3.61994e-06
3.61688e-06
3.61382e-06
3.61077e-06
3.60771e-06
3.60465e-06
3.6016e-06
3.59855e-06
3.59549e-06
3.59244e-06
3.58939e-06
3.58634e-06
3.58329e-06
3.58024e-06
3.5772e-06
3.57415e-06
3.57111e-06
3.56806e-06
3.56502e-06
3.56198e-06
3.55894e-06
3.5559e-06
3.55287e-06
3.54983e-06
3.5468e-06
3.54376e-06
3.54073e-06
3.5377e-06
3.53467e-06
3.53165e-06
3.52862e-06
3.5256e-06
3.52257e-06
3.51955e-06
3.51653e-06
3.51352e-06
3.5105e-06
3.50748e-06
3.50447e-06
3.50146e-06
3.49844e-06
3.49543e-06
3.49243e-06
3.48942e-06
3.48641e-06
3.48341e-06
3.4804e-06
3.4774e-06
3.4744e-06
3.4714e-06
3.4684e-06
3.46541e-06
3.46241e-06
3.45942e-06
3.45642e-06
3.45343e-06
3.45044e-06
3.44745e-06
3.44446e-06
3.44147e-06
3.43849e-06
3.4355e-06
3.43251e-06
3.42953e-06
3.42654e-06
3.42356e-06
3.42058e-06
3.41759e-06
)
;

boundaryField
{
    boundary
    {
        type            empty;
        value           nonuniform 0();
    }
    inlet
    {
        type            calculated;
        value           uniform -6.88266e-06;
    }
    outlet
    {
        type            calculated;
        value           uniform 3.41461e-06;
    }
}


// ************************************************************************* //
