/*--------------------------------*- C++ -*----------------------------------*\
  =========                 |
  \\      /  F ield         | OpenFOAM: The Open Source CFD Toolbox
   \\    /   O peration     | Website:  https://openfoam.org
    \\  /    A nd           | Version:  7
     \\/     M anipulation  |
\*---------------------------------------------------------------------------*/
FoamFile
{
    version     2.0;
    format      ascii;
    class       volScalarField;
    location    "4e-05";
    object      Qdot;
}
// * * * * * * * * * * * * * * * * * * * * * * * * * * * * * * * * * * * * * //

dimensions      [1 -1 -3 0 0 0 0];

internalField   nonuniform List<scalar> 
500
(
-2.46961e-27
-2.10873e-27
-2.09693e-27
-2.13614e-27
-2.16361e-27
-2.1767e-27
-2.18191e-27
-2.18379e-27
-2.18445e-27
-2.18472e-27
-2.18489e-27
-2.18502e-27
-2.18516e-27
-2.18531e-27
-2.18547e-27
-2.18564e-27
-2.18582e-27
-2.18601e-27
-2.18621e-27
-2.18642e-27
-2.18665e-27
-2.18688e-27
-2.18713e-27
-2.18738e-27
-2.18765e-27
-2.18793e-27
-2.18822e-27
-2.18853e-27
-2.18884e-27
-2.18917e-27
-2.18951e-27
-2.18986e-27
-2.19023e-27
-2.19061e-27
-2.191e-27
-2.1914e-27
-2.19182e-27
-2.19225e-27
-2.1927e-27
-2.19316e-27
-2.19363e-27
-2.19412e-27
-2.19462e-27
-2.19514e-27
-2.19567e-27
-2.19621e-27
-2.19677e-27
-2.19735e-27
-2.19793e-27
-2.19854e-27
-2.19915e-27
-2.19978e-27
-2.20043e-27
-2.20109e-27
-2.20177e-27
-2.20245e-27
-2.20316e-27
-2.20387e-27
-2.2046e-27
-2.20535e-27
-2.20611e-27
-2.20688e-27
-2.20766e-27
-2.20846e-27
-2.20927e-27
-2.21009e-27
-2.21092e-27
-2.21176e-27
-2.21262e-27
-2.21349e-27
-2.21436e-27
-2.21525e-27
-2.21615e-27
-2.21705e-27
-2.21796e-27
-2.21888e-27
-2.21981e-27
-2.22075e-27
-2.22169e-27
-2.22264e-27
-2.22359e-27
-2.22455e-27
-2.22551e-27
-2.22647e-27
-2.22744e-27
-2.22841e-27
-2.22938e-27
-2.23034e-27
-2.23131e-27
-2.23228e-27
-2.23325e-27
-2.23421e-27
-2.23517e-27
-2.23613e-27
-2.23708e-27
-2.23802e-27
-2.23896e-27
-2.23989e-27
-2.24081e-27
-2.24173e-27
-2.24263e-27
-2.24352e-27
-2.24441e-27
-2.24528e-27
-2.24613e-27
-2.24697e-27
-2.2478e-27
-2.24862e-27
-2.24941e-27
-2.25019e-27
-2.25096e-27
-2.2517e-27
-2.25243e-27
-2.25313e-27
-2.25382e-27
-2.25448e-27
-2.25512e-27
-2.25574e-27
-2.25634e-27
-2.25692e-27
-2.25747e-27
-2.25803e-27
-2.25874e-27
-2.26044e-27
-2.26778e-27
-2.27032e-27
-2.26268e-27
-2.26115e-27
-2.26104e-27
-2.26124e-27
-2.26149e-27
-2.26174e-27
-2.26195e-27
-2.26213e-27
-2.26229e-27
-2.26241e-27
-2.2625e-27
-2.26255e-27
-2.26257e-27
-2.26256e-27
-2.26252e-27
-2.26244e-27
-2.26232e-27
-2.26217e-27
-2.26199e-27
-2.26177e-27
-2.26151e-27
-2.26122e-27
-2.26089e-27
-2.26052e-27
-2.26012e-27
-2.25968e-27
-2.2592e-27
-2.25868e-27
-2.25813e-27
-2.25753e-27
-2.2569e-27
-2.25623e-27
-2.25552e-27
-2.25477e-27
-2.25398e-27
-2.25315e-27
-2.25228e-27
-2.25137e-27
-2.25041e-27
-2.24942e-27
-2.24838e-27
-2.2473e-27
-2.24619e-27
-2.24502e-27
-2.24382e-27
-2.24257e-27
-2.24128e-27
-2.23995e-27
-2.23857e-27
-2.23715e-27
-2.23568e-27
-2.23417e-27
-2.23261e-27
-2.23102e-27
-2.22937e-27
-2.22768e-27
-2.22595e-27
-2.22417e-27
-2.22234e-27
-2.22047e-27
-2.21856e-27
-2.21659e-27
-2.21459e-27
-2.21253e-27
-2.21044e-27
-2.20829e-27
-2.20611e-27
-2.20387e-27
-2.2016e-27
-2.19927e-27
-2.19691e-27
-2.1945e-27
-2.19205e-27
-2.18955e-27
-2.18702e-27
-2.18444e-27
-2.18182e-27
-2.17916e-27
-2.17646e-27
-2.17373e-27
-2.17095e-27
-2.16815e-27
-2.1653e-27
-2.16242e-27
-2.15951e-27
-2.15657e-27
-2.1536e-27
-2.1506e-27
-2.14757e-27
-2.14452e-27
-2.14144e-27
-2.13834e-27
-2.13522e-27
-2.13208e-27
-2.12892e-27
-2.12574e-27
-2.12255e-27
-2.11935e-27
-2.11614e-27
-2.11292e-27
-2.10969e-27
-2.10645e-27
-2.10319e-27
-2.09988e-27
-2.09619e-27
-2.09035e-27
-2.07186e-27
-1.97884e-27
-1.44719e-27
1.66499e-27
1.99532e-26
1.27455e-25
7.59205e-25
4.47035e-24
2.62625e-23
1.54178e-22
9.04737e-22
5.30718e-21
3.11218e-20
1.82448e-19
1.06933e-18
6.26607e-18
3.6713e-17
2.15084e-16
1.26005e-15
8.4479e-15
4.98075e-14
2.91398e-13
1.70435e-12
9.96828e-12
5.8301e-11
3.40981e-10
1.9943e-09
1.16648e-08
6.82364e-08
3.99266e-07
2.33717e-06
1.36899e-05
8.02628e-05
0.000471179
0.0027704
0.0163189
0.09631
0.569392
3.39177
22.4377
158.849
1289.73
9143.93
64381.9
459485
3.35095e+06
2.55054e+07
1.9993e+08
1.32259e+09
5.16204e+09
1.04838e+10
1.24494e+10
1.2337e+10
1.20485e+10
1.14601e+10
1.01115e+10
8.27659e+09
6.47294e+09
4.96358e+09
3.78721e+09
2.89462e+09
2.22161e+09
1.71295e+09
1.32644e+09
1.03104e+09
8.04061e+08
6.28825e+08
4.92962e+08
3.87199e+08
3.04542e+08
2.39675e+08
1.88567e+08
1.48157e+08
1.16092e+08
9.05765e+07
7.02302e+07
5.39871e+07
4.10207e+07
3.0693e+07
2.25086e+07
1.61884e+07
1.1205e+07
7.25444e+06
4.1594e+06
1.77357e+06
-35378.2
-1.37295e+06
-2.32837e+06
-2.97607e+06
-3.38143e+06
-3.59783e+06
-3.67048e+06
-3.63628e+06
-3.5256e+06
-3.36226e+06
-3.16448e+06
-2.94445e+06
-2.72235e+06
-2.49826e+06
-2.28044e+06
-2.07448e+06
-1.87939e+06
-1.69762e+06
-1.53245e+06
-1.38253e+06
-1.24761e+06
-1.12711e+06
-1.02046e+06
-925373
-843229
-771587
-708985
-655235
-609531
-570027
-536803
-508410
-485425
-465813
-449672
-436665
-425618
-416527
-409246
-403438
-398998
-395824
-393173
-391201
-389786
-388824
-388228
-387943
-387887
-388032
-388360
-388884
-389665
-390852
-392765
-396085
-402260
-414430
-440118
-447853
-425597
-413502
-406473
-402529
-400319
-398901
-398367
-398219
-398318
-398566
-398907
-399317
-399775
-400267
-400782
-401313
-401856
-402407
-402965
-403527
-404090
-404658
-405235
-405833
-406418
-406997
-407574
-408149
-408724
-409298
-409873
-410449
-411025
-411602
-412181
-412761
-413342
-413925
-414511
-415101
-415924
-416563
-417195
-417861
-418625
-419298
-419923
-420521
-421103
-421671
-422228
-422775
-423319
-423861
-424400
-424935
-425255
-425784
-426305
-426818
-427322
-427816
-428302
-428778
-429246
-429704
-430153
-430591
-431015
-431422
-431797
-432113
-432415
-432342
-432658
-432986
-433024
-433339
-433645
-433941
-434225
-434498
-434757
-435004
-435238
-435457
-435662
-435853
-436028
-436191
-436340
-436476
-436599
-436707
-436801
-436881
-436947
-437000
-437039
-437063
-437071
-437063
-437040
-437004
-437376
-437313
-437237
-437147
-437044
-436927
-436796
-436650
-436493
-436327
-436154
-435975
-435793
-435614
-435445
-435299
-435191
-435136
-435141
)
;

boundaryField
{
    boundary
    {
        type            empty;
    }
    inlet
    {
        type            calculated;
        value           uniform 0;
    }
    outlet
    {
        type            calculated;
        value           uniform 0;
    }
}


// ************************************************************************* //
