/*--------------------------------*- C++ -*----------------------------------*\
  =========                 |
  \\      /  F ield         | OpenFOAM: The Open Source CFD Toolbox
   \\    /   O peration     | Website:  https://openfoam.org
    \\  /    A nd           | Version:  7
     \\/     M anipulation  |
\*---------------------------------------------------------------------------*/
FoamFile
{
    version     2.0;
    format      ascii;
    class       volScalarField;
    location    "4e-05";
    object      rho;
}
// * * * * * * * * * * * * * * * * * * * * * * * * * * * * * * * * * * * * * //

dimensions      [1 -3 0 0 0 0 0];

internalField   nonuniform List<scalar> 
500
(
0.858191
0.857486
0.856929
0.856575
0.856385
0.856297
0.856259
0.856244
0.856239
0.856237
0.856236
0.856235
0.856234
0.856234
0.856233
0.856232
0.856232
0.856231
0.85623
0.856229
0.856229
0.856228
0.856227
0.856226
0.856225
0.856224
0.856223
0.856222
0.856221
0.856221
0.85622
0.856219
0.856218
0.856217
0.856216
0.856215
0.856215
0.856214
0.856213
0.856213
0.856212
0.856212
0.856211
0.856211
0.85621
0.85621
0.85621
0.85621
0.85621
0.85621
0.85621
0.85621
0.85621
0.856211
0.856211
0.856212
0.856212
0.856213
0.856214
0.856215
0.856216
0.856217
0.856218
0.85622
0.856221
0.856223
0.856225
0.856227
0.856229
0.856231
0.856233
0.856235
0.856238
0.85624
0.856243
0.856246
0.856248
0.856251
0.856254
0.856258
0.856261
0.856264
0.856268
0.856271
0.856275
0.856279
0.856282
0.856286
0.85629
0.856294
0.856298
0.856303
0.856307
0.856311
0.856316
0.85632
0.856324
0.856329
0.856333
0.856338
0.856343
0.856347
0.856352
0.856357
0.856361
0.856366
0.856371
0.856375
0.85638
0.856384
0.856389
0.856394
0.856398
0.856403
0.856407
0.856412
0.856416
0.856421
0.856425
0.856429
0.856433
0.856437
0.856441
0.856445
0.85645
0.856456
0.856458
0.856461
0.856464
0.856467
0.85647
0.856473
0.856476
0.856479
0.856482
0.856485
0.856487
0.856489
0.856492
0.856494
0.856496
0.856498
0.856499
0.856501
0.856502
0.856503
0.856504
0.856505
0.856506
0.856507
0.856507
0.856508
0.856508
0.856508
0.856508
0.856507
0.856507
0.856506
0.856506
0.856505
0.856504
0.856503
0.856501
0.8565
0.856498
0.856496
0.856495
0.856493
0.856491
0.856488
0.856486
0.856483
0.856481
0.856478
0.856475
0.856472
0.856469
0.856466
0.856463
0.85646
0.856456
0.856453
0.856449
0.856446
0.856442
0.856438
0.856435
0.856431
0.856427
0.856423
0.856419
0.856415
0.856411
0.856407
0.856403
0.856399
0.856395
0.856391
0.856387
0.856383
0.856378
0.856374
0.85637
0.856366
0.856362
0.856358
0.856354
0.85635
0.856346
0.856342
0.856338
0.856334
0.85633
0.856326
0.856322
0.856318
0.856314
0.85631
0.856306
0.856303
0.856299
0.856295
0.856291
0.856287
0.856283
0.856279
0.856275
0.856271
0.856267
0.856263
0.856259
0.856255
0.856251
0.856247
0.856243
0.856239
0.856235
0.856231
0.856227
0.856222
0.856218
0.856214
0.85621
0.856206
0.856202
0.856198
0.856194
0.85619
0.856186
0.856182
0.85618
0.856177
0.856172
0.856168
0.856165
0.856162
0.856159
0.856157
0.856154
0.856152
0.856151
0.856149
0.856148
0.856148
0.856147
0.856147
0.856147
0.856148
0.856149
0.85615
0.856152
0.856153
0.856156
0.856158
0.856155
0.856101
0.855743
0.853801
0.844431
0.8056
0.695536
0.53601
0.409287
0.330383
0.280812
0.247332
0.223887
0.207317
0.195301
0.186142
0.17874
0.172434
0.166849
0.161781
0.157129
0.152846
0.148917
0.145335
0.142098
0.1392
0.136633
0.134382
0.132429
0.130755
0.129335
0.128147
0.127167
0.126369
0.125732
0.125233
0.124852
0.12457
0.124375
0.124244
0.124161
0.124116
0.124102
0.124111
0.124136
0.124174
0.124218
0.124268
0.124319
0.12437
0.124419
0.124465
0.124508
0.124548
0.124584
0.124616
0.124644
0.124669
0.12469
0.124709
0.124724
0.124738
0.124749
0.124758
0.124765
0.124771
0.124776
0.12478
0.124783
0.124785
0.124787
0.124788
0.124788
0.124788
0.124788
0.124788
0.124787
0.124786
0.124786
0.124785
0.124784
0.124782
0.124781
0.12478
0.124779
0.124778
0.124776
0.124775
0.124774
0.124773
0.124771
0.12477
0.124769
0.124768
0.124766
0.124765
0.124764
0.124763
0.124762
0.12476
0.124759
0.124758
0.124757
0.124755
0.124754
0.124752
0.124751
0.124749
0.124748
0.124746
0.124745
0.124743
0.124742
0.12474
0.124739
0.124738
0.124736
0.124735
0.124733
0.124732
0.124731
0.124729
0.124728
0.124726
0.124725
0.124724
0.124722
0.124721
0.12472
0.124718
0.124717
0.124716
0.124714
0.124713
0.124712
0.12471
0.124709
0.124708
0.124706
0.124705
0.124704
0.124702
0.124701
0.1247
0.124698
0.124697
0.124696
0.124694
0.124693
0.124692
0.12469
0.124689
0.124688
0.124687
0.124685
0.124684
0.124683
0.124681
0.12468
0.124679
0.124678
0.124676
0.124675
0.124674
0.124673
0.124671
0.12467
0.124669
0.124668
0.124666
0.124665
0.124664
0.124663
0.124662
0.12466
0.124659
0.124658
0.124657
0.124656
0.124655
0.124653
0.124652
0.124651
0.12465
0.124649
0.124648
0.124647
0.124645
0.124644
0.124643
0.124642
0.124641
0.12464
0.124639
0.124638
0.124637
0.124636
0.124635
0.124634
0.124633
0.124632
0.124631
0.12463
0.124629
0.124628
0.124627
0.124626
0.124625
0.124624
0.124623
0.124622
0.124621
0.12462
0.124619
0.124618
0.124617
0.124616
0.124615
0.124614
0.124614
0.124613
0.124612
0.124611
0.12461
0.124609
0.124608
)
;

boundaryField
{
    boundary
    {
        type            empty;
    }
    inlet
    {
        type            calculated;
        value           uniform 0.85875;
    }
    outlet
    {
        type            calculated;
        value           uniform 0.124607;
    }
}


// ************************************************************************* //
