/*--------------------------------*- C++ -*----------------------------------*\
  =========                 |
  \\      /  F ield         | OpenFOAM: The Open Source CFD Toolbox
   \\    /   O peration     | Website:  https://openfoam.org
    \\  /    A nd           | Version:  7
     \\/     M anipulation  |
\*---------------------------------------------------------------------------*/
FoamFile
{
    version     2.0;
    format      ascii;
    class       volScalarField;
    location    "4e-05";
    object      T;
}
// * * * * * * * * * * * * * * * * * * * * * * * * * * * * * * * * * * * * * //

dimensions      [0 0 0 1 0 0 0];

internalField   nonuniform List<scalar> 
500
(
300.195
300.442
300.638
300.762
300.828
300.86
300.873
300.878
300.88
300.881
300.881
300.881
300.882
300.882
300.882
300.882
300.882
300.883
300.883
300.883
300.883
300.884
300.884
300.884
300.885
300.885
300.885
300.886
300.886
300.887
300.887
300.887
300.888
300.888
300.889
300.889
300.89
300.89
300.891
300.891
300.892
300.892
300.893
300.894
300.894
300.895
300.896
300.896
300.897
300.898
300.898
300.899
300.9
300.901
300.901
300.902
300.903
300.904
300.904
300.905
300.906
300.907
300.908
300.909
300.909
300.91
300.911
300.912
300.913
300.914
300.915
300.916
300.917
300.918
300.919
300.919
300.92
300.921
300.922
300.923
300.924
300.925
300.926
300.927
300.928
300.929
300.93
300.931
300.932
300.933
300.934
300.935
300.936
300.937
300.937
300.938
300.939
300.94
300.941
300.942
300.943
300.944
300.944
300.945
300.946
300.947
300.948
300.948
300.949
300.95
300.95
300.951
300.952
300.952
300.953
300.954
300.954
300.955
300.955
300.956
300.956
300.957
300.957
300.957
300.957
300.957
300.958
300.959
300.959
300.959
300.959
300.96
300.96
300.96
300.96
300.96
300.96
300.96
300.96
300.96
300.959
300.959
300.959
300.959
300.959
300.958
300.958
300.957
300.957
300.956
300.956
300.955
300.955
300.954
300.953
300.953
300.952
300.951
300.95
300.949
300.948
300.947
300.946
300.945
300.944
300.942
300.941
300.94
300.938
300.937
300.935
300.934
300.932
300.93
300.929
300.927
300.925
300.923
300.921
300.919
300.917
300.915
300.912
300.91
300.908
300.905
300.903
300.9
300.898
300.895
300.892
300.889
300.886
300.883
300.88
300.877
300.874
300.871
300.867
300.864
300.861
300.857
300.853
300.85
300.846
300.842
300.838
300.835
300.831
300.827
300.822
300.818
300.814
300.81
300.806
300.801
300.797
300.792
300.788
300.783
300.779
300.774
300.77
300.765
300.76
300.756
300.751
300.746
300.742
300.737
300.732
300.727
300.722
300.718
300.713
300.708
300.703
300.698
300.693
300.689
300.684
300.679
300.674
300.669
300.664
300.659
300.654
300.65
300.645
300.639
300.634
300.629
300.624
300.619
300.614
300.609
300.604
300.598
300.593
300.587
300.582
300.576
300.57
300.564
300.558
300.552
300.546
300.54
300.533
300.527
300.52
300.514
300.507
300.502
300.504
300.537
300.722
301.595
305.476
321.578
375.643
493.362
654.514
820.69
975.691
1116.76
1240.51
1344.26
1430.08
1502.81
1567.17
1626.62
1683.37
1738.66
1792.98
1846.38
1898.58
1949.16
1997.65
2043.6
2086.6
2126.37
2162.71
2195.53
2224.83
2250.7
2273.3
2292.85
2309.59
2323.78
2335.72
2345.68
2353.68
2360.16
2365.56
2370
2373.65
2376.64
2379.08
2381.07
2382.69
2384.01
2385.09
2385.98
2386.7
2387.3
2387.8
2388.22
2388.57
2388.87
2389.12
2389.33
2389.51
2389.67
2389.8
2389.92
2390.02
2390.11
2390.18
2390.25
2390.31
2390.35
2390.4
2390.44
2390.47
2390.5
2390.52
2390.55
2390.57
2390.59
2390.6
2390.62
2390.63
2390.64
2390.65
2390.66
2390.67
2390.68
2390.69
2390.7
2390.71
2390.72
2390.72
2390.73
2390.74
2390.75
2390.75
2390.76
2390.77
2390.77
2390.78
2390.79
2390.79
2390.8
2390.8
2390.81
2390.82
2390.82
2390.82
2390.83
2390.83
2390.84
2390.84
2390.85
2390.85
2390.85
2390.86
2390.86
2390.87
2390.87
2390.88
2390.88
2390.88
2390.89
2390.89
2390.9
2390.9
2390.91
2390.91
2390.91
2390.92
2390.92
2390.93
2390.93
2390.94
2390.94
2390.95
2390.95
2390.95
2390.96
2390.96
2390.97
2390.97
2390.98
2390.98
2390.99
2390.99
2390.99
2391
2391
2391.01
2391.01
2391.02
2391.02
2391.02
2391.03
2391.03
2391.04
2391.04
2391.04
2391.05
2391.05
2391.06
2391.06
2391.06
2391.07
2391.07
2391.07
2391.08
2391.08
2391.08
2391.09
2391.09
2391.09
2391.1
2391.1
2391.1
2391.11
2391.11
2391.11
2391.11
2391.12
2391.12
2391.12
2391.12
2391.13
2391.13
2391.13
2391.13
2391.13
2391.13
2391.14
2391.14
2391.14
2391.14
2391.14
2391.14
2391.14
2391.14
2391.14
2391.14
2391.14
2391.14
2391.14
2391.14
2391.14
2391.14
2391.14
2391.14
2391.14
2391.14
2391.14
2391.14
2391.14
2391.14
2391.13
2391.13
2391.13
2391.13
2391.13
2391.13
2391.12
2391.12
2391.12
2391.12
2391.12
2391.11
2391.11
2391.11
2391.11
)
;

boundaryField
{
    boundary
    {
        type            empty;
    }
    inlet
    {
        type            fixedValue;
        value           uniform 300;
    }
    outlet
    {
        type            zeroGradient;
    }
}


// ************************************************************************* //
