/*--------------------------------*- C++ -*----------------------------------*\
  =========                 |
  \\      /  F ield         | OpenFOAM: The Open Source CFD Toolbox
   \\    /   O peration     | Website:  https://openfoam.org
    \\  /    A nd           | Version:  7
     \\/     M anipulation  |
\*---------------------------------------------------------------------------*/
FoamFile
{
    version     2.0;
    format      ascii;
    class       volVectorField;
    location    "4e-05";
    object      U;
}
// * * * * * * * * * * * * * * * * * * * * * * * * * * * * * * * * * * * * * //

dimensions      [0 1 -1 0 0 0 0];

internalField   nonuniform List<vector> 
500
(
(2.34629 0 0)
(2.33723 0 0)
(2.32699 0 0)
(2.31733 0 0)
(2.30868 0 0)
(2.29987 0 0)
(2.29117 0 0)
(2.28256 0 0)
(2.27403 0 0)
(2.26539 0 0)
(2.25698 0 0)
(2.24844 0 0)
(2.23997 0 0)
(2.23156 0 0)
(2.22317 0 0)
(2.21482 0 0)
(2.20645 0 0)
(2.19822 0 0)
(2.18997 0 0)
(2.18177 0 0)
(2.17359 0 0)
(2.16549 0 0)
(2.15744 0 0)
(2.14943 0 0)
(2.14149 0 0)
(2.13357 0 0)
(2.1257 0 0)
(2.11804 0 0)
(2.11029 0 0)
(2.10252 0 0)
(2.09495 0 0)
(2.08746 0 0)
(2.07999 0 0)
(2.0726 0 0)
(2.06527 0 0)
(2.05802 0 0)
(2.05084 0 0)
(2.04373 0 0)
(2.0367 0 0)
(2.02975 0 0)
(2.02287 0 0)
(2.01607 0 0)
(2.00935 0 0)
(2.00271 0 0)
(1.99615 0 0)
(1.98967 0 0)
(1.98328 0 0)
(1.97697 0 0)
(1.97074 0 0)
(1.96459 0 0)
(1.95854 0 0)
(1.95256 0 0)
(1.94667 0 0)
(1.94087 0 0)
(1.93515 0 0)
(1.92952 0 0)
(1.92397 0 0)
(1.91851 0 0)
(1.91313 0 0)
(1.90784 0 0)
(1.90263 0 0)
(1.89751 0 0)
(1.89247 0 0)
(1.88752 0 0)
(1.88265 0 0)
(1.87786 0 0)
(1.87315 0 0)
(1.86852 0 0)
(1.86398 0 0)
(1.85951 0 0)
(1.85512 0 0)
(1.85081 0 0)
(1.84657 0 0)
(1.84241 0 0)
(1.83832 0 0)
(1.8343 0 0)
(1.83035 0 0)
(1.82648 0 0)
(1.82267 0 0)
(1.81892 0 0)
(1.81524 0 0)
(1.81163 0 0)
(1.80807 0 0)
(1.80457 0 0)
(1.80114 0 0)
(1.79775 0 0)
(1.79442 0 0)
(1.79112 0 0)
(1.78791 0 0)
(1.78472 0 0)
(1.78157 0 0)
(1.77848 0 0)
(1.77542 0 0)
(1.77241 0 0)
(1.7694 0 0)
(1.76646 0 0)
(1.76355 0 0)
(1.76065 0 0)
(1.75778 0 0)
(1.75493 0 0)
(1.75211 0 0)
(1.7493 0 0)
(1.74651 0 0)
(1.74373 0 0)
(1.74095 0 0)
(1.73821 0 0)
(1.73543 0 0)
(1.73266 0 0)
(1.72995 0 0)
(1.72717 0 0)
(1.72438 0 0)
(1.72161 0 0)
(1.71883 0 0)
(1.71603 0 0)
(1.71321 0 0)
(1.71037 0 0)
(1.70751 0 0)
(1.70462 0 0)
(1.7017 0 0)
(1.69877 0 0)
(1.69577 0 0)
(1.69276 0 0)
(1.68974 0 0)
(1.68663 0 0)
(1.68341 0 0)
(1.68027 0 0)
(1.67718 0 0)
(1.67385 0 0)
(1.67045 0 0)
(1.6671 0 0)
(1.66367 0 0)
(1.66017 0 0)
(1.65661 0 0)
(1.65299 0 0)
(1.6493 0 0)
(1.64553 0 0)
(1.64173 0 0)
(1.63782 0 0)
(1.63386 0 0)
(1.62982 0 0)
(1.6257 0 0)
(1.6215 0 0)
(1.61722 0 0)
(1.61287 0 0)
(1.60843 0 0)
(1.6039 0 0)
(1.5993 0 0)
(1.5946 0 0)
(1.58982 0 0)
(1.58494 0 0)
(1.58 0 0)
(1.57494 0 0)
(1.56979 0 0)
(1.56457 0 0)
(1.55927 0 0)
(1.55384 0 0)
(1.54829 0 0)
(1.5427 0 0)
(1.53701 0 0)
(1.53121 0 0)
(1.52532 0 0)
(1.51933 0 0)
(1.51325 0 0)
(1.50708 0 0)
(1.5008 0 0)
(1.49443 0 0)
(1.48798 0 0)
(1.48141 0 0)
(1.47475 0 0)
(1.46803 0 0)
(1.4612 0 0)
(1.45428 0 0)
(1.4472 0 0)
(1.44009 0 0)
(1.43291 0 0)
(1.42561 0 0)
(1.41822 0 0)
(1.41075 0 0)
(1.40319 0 0)
(1.39554 0 0)
(1.38781 0 0)
(1.38 0 0)
(1.37209 0 0)
(1.36413 0 0)
(1.35605 0 0)
(1.3479 0 0)
(1.33974 0 0)
(1.33143 0 0)
(1.32303 0 0)
(1.3146 0 0)
(1.30611 0 0)
(1.29753 0 0)
(1.28889 0 0)
(1.28018 0 0)
(1.2714 0 0)
(1.26257 0 0)
(1.25367 0 0)
(1.24472 0 0)
(1.2357 0 0)
(1.22665 0 0)
(1.21749 0 0)
(1.20837 0 0)
(1.19915 0 0)
(1.18986 0 0)
(1.18056 0 0)
(1.17121 0 0)
(1.16182 0 0)
(1.1524 0 0)
(1.14293 0 0)
(1.13343 0 0)
(1.1239 0 0)
(1.11434 0 0)
(1.10476 0 0)
(1.09515 0 0)
(1.0855 0 0)
(1.07588 0 0)
(1.06618 0 0)
(1.05648 0 0)
(1.04679 0 0)
(1.03708 0 0)
(1.02735 0 0)
(1.01761 0 0)
(1.00788 0 0)
(0.998135 0 0)
(0.988391 0 0)
(0.978649 0 0)
(0.968913 0 0)
(0.959181 0 0)
(0.949429 0 0)
(0.939775 0 0)
(0.930024 0 0)
(0.920321 0 0)
(0.910668 0 0)
(0.901013 0 0)
(0.891372 0 0)
(0.881757 0 0)
(0.872166 0 0)
(0.862601 0 0)
(0.853064 0 0)
(0.84356 0 0)
(0.834094 0 0)
(0.824622 0 0)
(0.815256 0 0)
(0.80591 0 0)
(0.796494 0 0)
(0.787215 0 0)
(0.778009 0 0)
(0.768808 0 0)
(0.759635 0 0)
(0.750518 0 0)
(0.741411 0 0)
(0.732411 0 0)
(0.723555 0 0)
(0.71466 0 0)
(0.705771 0 0)
(0.696931 0 0)
(0.688321 0 0)
(0.679584 0 0)
(0.670932 0 0)
(0.662435 0 0)
(0.653974 0 0)
(0.645556 0 0)
(0.637205 0 0)
(0.628909 0 0)
(0.620705 0 0)
(0.612608 0 0)
(0.604505 0 0)
(0.596623 0 0)
(0.588653 0 0)
(0.580778 0 0)
(0.573055 0 0)
(0.565381 0 0)
(0.557755 0 0)
(0.550295 0 0)
(0.542833 0 0)
(0.535701 0 0)
(0.529138 0 0)
(0.526792 0 0)
(0.545802 0 0)
(0.6503 0 0)
(0.98127 0 0)
(1.69794 0 0)
(2.78255 0 0)
(3.95644 0 0)
(5.04932 0 0)
(6.00115 0 0)
(6.80327 0 0)
(7.45831 0 0)
(7.97853 0 0)
(8.38665 0 0)
(8.70774 0 0)
(8.96186 0 0)
(9.16268 0 0)
(9.3192 0 0)
(9.43784 0 0)
(9.52371 0 0)
(9.58131 0 0)
(9.61467 0 0)
(9.6273 0 0)
(9.62447 0 0)
(9.6085 0 0)
(9.58284 0 0)
(9.55071 0 0)
(9.51493 0 0)
(9.47754 0 0)
(9.44039 0 0)
(9.4049 0 0)
(9.37206 0 0)
(9.34253 0 0)
(9.31665 0 0)
(9.29459 0 0)
(9.27613 0 0)
(9.26137 0 0)
(9.24988 0 0)
(9.24092 0 0)
(9.23395 0 0)
(9.2287 0 0)
(9.22475 0 0)
(9.22189 0 0)
(9.21984 0 0)
(9.2183 0 0)
(9.21703 0 0)
(9.21587 0 0)
(9.21464 0 0)
(9.21328 0 0)
(9.21175 0 0)
(9.20991 0 0)
(9.20769 0 0)
(9.20512 0 0)
(9.20218 0 0)
(9.19888 0 0)
(9.19521 0 0)
(9.19121 0 0)
(9.18688 0 0)
(9.18225 0 0)
(9.17734 0 0)
(9.17219 0 0)
(9.16681 0 0)
(9.16123 0 0)
(9.15547 0 0)
(9.14956 0 0)
(9.1435 0 0)
(9.13732 0 0)
(9.13104 0 0)
(9.12467 0 0)
(9.11821 0 0)
(9.11169 0 0)
(9.10511 0 0)
(9.09848 0 0)
(9.0918 0 0)
(9.08509 0 0)
(9.07834 0 0)
(9.07157 0 0)
(9.06477 0 0)
(9.05796 0 0)
(9.05112 0 0)
(9.04427 0 0)
(9.03741 0 0)
(9.03053 0 0)
(9.02364 0 0)
(9.01674 0 0)
(9.00983 0 0)
(9.00291 0 0)
(8.99599 0 0)
(8.98906 0 0)
(8.98212 0 0)
(8.97518 0 0)
(8.96823 0 0)
(8.96127 0 0)
(8.95432 0 0)
(8.94733 0 0)
(8.94035 0 0)
(8.93347 0 0)
(8.92838 0 0)
(8.922 0 0)
(8.91408 0 0)
(8.90698 0 0)
(8.89471 0 0)
(8.88667 0 0)
(8.88351 0 0)
(8.87683 0 0)
(8.86973 0 0)
(8.86234 0 0)
(8.85519 0 0)
(8.84803 0 0)
(8.84087 0 0)
(8.83371 0 0)
(8.82655 0 0)
(8.81939 0 0)
(8.81224 0 0)
(8.80508 0 0)
(8.79793 0 0)
(8.79078 0 0)
(8.78364 0 0)
(8.77649 0 0)
(8.76935 0 0)
(8.76221 0 0)
(8.75506 0 0)
(8.74792 0 0)
(8.74078 0 0)
(8.73364 0 0)
(8.72651 0 0)
(8.71937 0 0)
(8.71223 0 0)
(8.70509 0 0)
(8.69796 0 0)
(8.69082 0 0)
(8.68369 0 0)
(8.67656 0 0)
(8.66942 0 0)
(8.66229 0 0)
(8.65516 0 0)
(8.64803 0 0)
(8.6409 0 0)
(8.63377 0 0)
(8.62664 0 0)
(8.61951 0 0)
(8.61239 0 0)
(8.60526 0 0)
(8.59814 0 0)
(8.59101 0 0)
(8.58389 0 0)
(8.57677 0 0)
(8.56965 0 0)
(8.56253 0 0)
(8.55541 0 0)
(8.54829 0 0)
(8.54117 0 0)
(8.53406 0 0)
(8.52694 0 0)
(8.51983 0 0)
(8.51272 0 0)
(8.50561 0 0)
(8.49851 0 0)
(8.4914 0 0)
(8.4843 0 0)
(8.4772 0 0)
(8.4701 0 0)
(8.463 0 0)
(8.4559 0 0)
(8.44881 0 0)
(8.44171 0 0)
(8.43462 0 0)
(8.42754 0 0)
(8.42045 0 0)
(8.41337 0 0)
(8.40629 0 0)
(8.39921 0 0)
(8.39213 0 0)
(8.38506 0 0)
(8.37799 0 0)
(8.37092 0 0)
(8.36385 0 0)
(8.35679 0 0)
(8.34973 0 0)
(8.34267 0 0)
(8.33561 0 0)
(8.32856 0 0)
(8.32151 0 0)
(8.31446 0 0)
(8.30742 0 0)
(8.30037 0 0)
(8.29333 0 0)
(8.2863 0 0)
(8.27926 0 0)
(8.27223 0 0)
(8.2652 0 0)
(8.25818 0 0)
(8.25116 0 0)
(8.24414 0 0)
(8.23712 0 0)
(8.2301 0 0)
(8.22309 0 0)
(8.21608 0 0)
(8.20908 0 0)
(8.20207 0 0)
(8.19507 0 0)
(8.18808 0 0)
(8.18108 0 0)
(8.17409 0 0)
(8.16709 0 0)
(8.16011 0 0)
(8.15312 0 0)
(8.14614 0 0)
(8.13916 0 0)
(8.13218 0 0)
(8.1252 0 0)
(8.11822 0 0)
(8.11125 0 0)
(8.10428 0 0)
(8.09731 0 0)
(8.09034 0 0)
(8.08337 0 0)
(8.07641 0 0)
(8.06944 0 0)
(8.0625 0 0)
(8.05558 0 0)
(8.04852 0 0)
(8.04081 0 0)
(8.03258 0 0)
)
;

boundaryField
{
    boundary
    {
        type            empty;
    }
    inlet
    {
        type            fixedValue;
        value           uniform (2.34893 0 0);
    }
    outlet
    {
        type            zeroGradient;
    }
}


// ************************************************************************* //
