/*--------------------------------*- C++ -*----------------------------------*\
  =========                 |
  \\      /  F ield         | OpenFOAM: The Open Source CFD Toolbox
   \\    /   O peration     | Website:  https://openfoam.org
    \\  /    A nd           | Version:  7
     \\/     M anipulation  |
\*---------------------------------------------------------------------------*/
FoamFile
{
    version     2.0;
    format      ascii;
    class       volScalarField;
    location    "0.00028";
    object      H2O2;
}
// * * * * * * * * * * * * * * * * * * * * * * * * * * * * * * * * * * * * * //

dimensions      [0 0 0 0 0 0 0];

internalField   nonuniform List<scalar> 
125
(
3.9624e-22
2.1791e-21
1.17701e-20
6.23899e-20
3.24545e-19
1.6571e-18
8.30764e-18
4.09135e-17
1.98057e-16
9.43175e-16
4.42277e-15
2.04448e-14
9.32833e-14
4.20677e-13
1.87773e-12
8.30754e-12
3.64811e-11
1.59213e-10
6.91362e-10
2.99003e-09
1.28886e-08
5.53894e-08
2.37157e-07
1.00786e-06
4.19131e-06
1.62552e-05
5.11731e-05
0.000100739
0.000125125
0.000102082
5.42379e-05
2.25199e-05
9.28219e-06
5.15564e-06
4.42153e-06
4.78775e-06
5.50389e-06
6.05933e-06
6.4517e-06
6.67797e-06
6.76767e-06
6.75601e-06
6.67359e-06
6.54408e-06
6.38476e-06
6.20782e-06
6.02177e-06
5.83237e-06
5.64354e-06
5.45789e-06
5.27712e-06
5.10228e-06
4.93399e-06
4.77256e-06
4.6181e-06
4.47058e-06
4.32985e-06
4.19573e-06
4.068e-06
3.94644e-06
3.83086e-06
3.72439e-06
3.62432e-06
3.52836e-06
3.4363e-06
3.34796e-06
3.26316e-06
3.18171e-06
3.10346e-06
3.02825e-06
2.95592e-06
2.88635e-06
2.81938e-06
2.7549e-06
2.69278e-06
2.63291e-06
2.57516e-06
2.51945e-06
2.46567e-06
2.41373e-06
2.36355e-06
2.31503e-06
2.2681e-06
2.22268e-06
2.17871e-06
2.13611e-06
2.09482e-06
2.05479e-06
2.01595e-06
1.97826e-06
1.94165e-06
1.90607e-06
1.87149e-06
1.83784e-06
1.8051e-06
1.77322e-06
1.74214e-06
1.71185e-06
1.68229e-06
1.65343e-06
1.62523e-06
1.59766e-06
1.57068e-06
1.54426e-06
1.51836e-06
1.49295e-06
1.46799e-06
1.44346e-06
1.41933e-06
1.39555e-06
1.37211e-06
1.34897e-06
1.3261e-06
1.30348e-06
1.28107e-06
1.25885e-06
1.23679e-06
1.21487e-06
1.19306e-06
1.17133e-06
1.14967e-06
1.12803e-06
1.10639e-06
1.0847e-06
1.0629e-06
)
;

boundaryField
{
    boundary
    {
        type            empty;
    }
    inlet
    {
        type            fixedValue;
        value           nonuniform 0();
    }
    outlet
    {
        type            zeroGradient;
    }
    procBoundary1to0
    {
        type            processor;
        value           uniform 1.04151e-06;
    }
    procBoundary1to3
    {
        type            processor;
        value           uniform 7.11134e-23;
    }
}


// ************************************************************************* //
