/*--------------------------------*- C++ -*----------------------------------*\
  =========                 |
  \\      /  F ield         | OpenFOAM: The Open Source CFD Toolbox
   \\    /   O peration     | Website:  https://openfoam.org
    \\  /    A nd           | Version:  7
     \\/     M anipulation  |
\*---------------------------------------------------------------------------*/
FoamFile
{
    version     2.0;
    format      ascii;
    class       volScalarField;
    location    "0.00028";
    object      HO2;
}
// * * * * * * * * * * * * * * * * * * * * * * * * * * * * * * * * * * * * * //

dimensions      [0 0 0 0 0 0 0];

internalField   nonuniform List<scalar> 
125
(
6.69473e-21
3.35859e-20
1.6654e-19
8.15258e-19
3.93839e-18
1.87739e-17
8.8324e-17
4.10257e-16
1.88252e-15
8.53998e-15
3.83345e-14
1.70437e-13
7.51304e-13
3.28689e-12
1.42852e-11
6.17301e-11
2.6543e-10
1.13638e-09
4.84655e-09
2.05972e-08
8.71876e-08
3.67053e-07
1.52917e-06
6.24615e-06
2.44945e-05
8.77073e-05
0.000255515
0.000475875
0.000514061
0.000430219
0.000317684
0.000224421
0.000157268
0.000109984
7.71377e-05
5.52799e-05
3.84898e-05
2.92332e-05
2.32835e-05
1.9366e-05
1.6696e-05
1.47992e-05
1.33922e-05
1.23052e-05
1.14346e-05
1.07161e-05
1.01087e-05
9.58507e-06
9.12683e-06
8.7209e-06
8.35782e-06
8.03047e-06
7.73338e-06
7.46227e-06
7.21367e-06
6.98479e-06
6.77329e-06
6.57724e-06
6.39502e-06
6.22529e-06
6.06697e-06
5.92357e-06
5.79059e-06
5.66466e-06
5.54521e-06
5.43174e-06
5.32382e-06
5.22101e-06
5.12297e-06
5.02936e-06
4.93986e-06
4.85419e-06
4.77211e-06
4.69337e-06
4.61776e-06
4.54507e-06
4.47512e-06
4.40773e-06
4.34275e-06
4.28001e-06
4.21939e-06
4.16075e-06
4.10396e-06
4.04891e-06
3.99549e-06
3.9436e-06
3.89313e-06
3.844e-06
3.79613e-06
3.74941e-06
3.70378e-06
3.65916e-06
3.61547e-06
3.57264e-06
3.53061e-06
3.48931e-06
3.44867e-06
3.40865e-06
3.36916e-06
3.33017e-06
3.29161e-06
3.25344e-06
3.21559e-06
3.17803e-06
3.14071e-06
3.10359e-06
3.06662e-06
3.02976e-06
2.99299e-06
2.95628e-06
2.91959e-06
2.8829e-06
2.84619e-06
2.80945e-06
2.77266e-06
2.73583e-06
2.69893e-06
2.66199e-06
2.62499e-06
2.58794e-06
2.55084e-06
2.51369e-06
2.47645e-06
2.43905e-06
2.40129e-06
)
;

boundaryField
{
    boundary
    {
        type            empty;
    }
    inlet
    {
        type            fixedValue;
        value           nonuniform 0();
    }
    outlet
    {
        type            zeroGradient;
    }
    procBoundary1to0
    {
        type            processor;
        value           uniform 2.36497e-06;
    }
    procBoundary1to3
    {
        type            processor;
        value           uniform 1.32383e-21;
    }
}


// ************************************************************************* //
