/*--------------------------------*- C++ -*----------------------------------*\
  =========                 |
  \\      /  F ield         | OpenFOAM: The Open Source CFD Toolbox
   \\    /   O peration     | Website:  https://openfoam.org
    \\  /    A nd           | Version:  7
     \\/     M anipulation  |
\*---------------------------------------------------------------------------*/
FoamFile
{
    version     2.0;
    format      ascii;
    class       volScalarField;
    location    "0.00032";
    object      p;
}
// * * * * * * * * * * * * * * * * * * * * * * * * * * * * * * * * * * * * * //

dimensions      [1 -1 -2 0 0 0 0];

internalField   nonuniform List<scalar> 
125
(
103149
103149
103149
103149
103149
103149
103149
103149
103149
103149
103149
103149
103149
103149
103149
103149
103149
103149
103149
103149
103149
103149
103149
103149
103149
103149
103148
103148
103147
103145
103143
103140
103138
103136
103134
103132
103131
103130
103129
103128
103128
103127
103127
103127
103126
103126
103126
103125
103125
103125
103125
103124
103124
103124
103124
103124
103124
103124
103123
103123
103123
103123
103123
103123
103123
103123
103123
103123
103122
103122
103122
103122
103122
103122
103122
103122
103122
103122
103122
103122
103122
103122
103122
103122
103121
103121
103121
103121
103121
103121
103121
103121
103121
103121
103121
103121
103121
103121
103121
103121
103121
103121
103121
103121
103121
103121
103121
103121
103120
103120
103120
103120
103120
103120
103120
103120
103120
103120
103120
103120
103120
103120
103120
103120
103120
)
;

boundaryField
{
    boundary
    {
        type            empty;
    }
    inlet
    {
        type            zeroGradient;
    }
    outlet
    {
        type            waveTransmissive;
        gamma           1.4;
        value           nonuniform 0();
    }
    procBoundary1to0
    {
        type            processor;
        value           uniform 103120;
    }
    procBoundary1to3
    {
        type            processor;
        value           uniform 103149;
    }
}


// ************************************************************************* //
