/*--------------------------------*- C++ -*----------------------------------*\
  =========                 |
  \\      /  F ield         | OpenFOAM: The Open Source CFD Toolbox
   \\    /   O peration     | Website:  https://openfoam.org
    \\  /    A nd           | Version:  7
     \\/     M anipulation  |
\*---------------------------------------------------------------------------*/
FoamFile
{
    version     2.0;
    format      ascii;
    class       surfaceScalarField;
    location    "0.00047";
    object      phi;
}
// * * * * * * * * * * * * * * * * * * * * * * * * * * * * * * * * * * * * * //

dimensions      [1 0 -1 0 0 0 0];

internalField   nonuniform List<scalar> 
123
(
7.21089e-06
7.21084e-06
7.21078e-06
7.21071e-06
7.21065e-06
7.21057e-06
7.2105e-06
7.21042e-06
7.21034e-06
7.21025e-06
7.21017e-06
7.21008e-06
7.20999e-06
7.2099e-06
7.20987e-06
7.20983e-06
7.20953e-06
7.20974e-06
7.20806e-06
7.20856e-06
7.20876e-06
7.20885e-06
7.20888e-06
7.20888e-06
7.20886e-06
7.20885e-06
7.20883e-06
7.20883e-06
7.20884e-06
7.20887e-06
7.20892e-06
7.20899e-06
7.20908e-06
7.20919e-06
7.20933e-06
7.2095e-06
7.2097e-06
7.20992e-06
7.21017e-06
7.21045e-06
7.21076e-06
7.21109e-06
7.21144e-06
7.21182e-06
7.21222e-06
7.21263e-06
7.21306e-06
7.21349e-06
7.21392e-06
7.21435e-06
7.21477e-06
7.21516e-06
7.21553e-06
7.21585e-06
7.21613e-06
7.21634e-06
7.21649e-06
7.21654e-06
7.2165e-06
7.21634e-06
7.21605e-06
7.21562e-06
7.21502e-06
7.21426e-06
7.2133e-06
7.21213e-06
7.21074e-06
7.20912e-06
7.20724e-06
7.2051e-06
7.20269e-06
7.19999e-06
7.19699e-06
7.19369e-06
7.19009e-06
7.18618e-06
7.18195e-06
7.17742e-06
7.17258e-06
7.16744e-06
7.16201e-06
7.1563e-06
7.15033e-06
7.14411e-06
7.13766e-06
7.13101e-06
7.12417e-06
7.11717e-06
7.11004e-06
7.10281e-06
7.09551e-06
7.08817e-06
7.08081e-06
7.07348e-06
7.0662e-06
7.059e-06
7.05191e-06
7.04497e-06
7.03821e-06
7.03164e-06
7.0253e-06
7.0192e-06
7.01338e-06
7.00785e-06
7.00263e-06
6.99773e-06
6.99316e-06
6.98893e-06
6.98506e-06
6.98153e-06
6.97837e-06
6.97555e-06
6.97309e-06
6.97098e-06
6.96921e-06
6.96776e-06
6.96664e-06
6.96582e-06
6.96529e-06
6.96504e-06
6.96504e-06
6.96528e-06
6.96572e-06
)
;

boundaryField
{
    boundary
    {
        type            empty;
        value           nonuniform 0();
    }
    inlet
    {
        type            calculated;
        value           nonuniform 0();
    }
    outlet
    {
        type            calculated;
        value           uniform 6.96628e-06;
    }
    procBoundary0to1
    {
        type            processor;
        value           uniform -7.21094e-06;
    }
}


// ************************************************************************* //
