/*--------------------------------*- C++ -*----------------------------------*\
  =========                 |
  \\      /  F ield         | OpenFOAM: The Open Source CFD Toolbox
   \\    /   O peration     | Website:  https://openfoam.org
    \\  /    A nd           | Version:  7
     \\/     M anipulation  |
\*---------------------------------------------------------------------------*/
FoamFile
{
    version     2.0;
    format      ascii;
    class       volScalarField;
    location    "0.00047";
    object      T;
}
// * * * * * * * * * * * * * * * * * * * * * * * * * * * * * * * * * * * * * //

dimensions      [0 0 0 1 0 0 0];

internalField   nonuniform List<scalar> 
124
(
2212.65
2214.38
2216.09
2217.78
2219.45
2221.09
2222.71
2224.31
2225.89
2227.45
2228.98
2230.5
2231.99
2233.46
2234.9
2236.33
2237.73
2239.15
2240.51
2242.08
2243.35
2244.62
2245.89
2247.14
2248.37
2249.59
2250.78
2251.95
2253.1
2254.22
2255.32
2256.39
2257.43
2258.45
2259.44
2260.41
2261.35
2262.26
2263.14
2264
2264.83
2265.63
2266.41
2267.17
2267.9
2268.61
2269.31
2269.98
2270.64
2271.28
2271.92
2272.54
2273.17
2273.79
2274.42
2275.05
2275.69
2276.36
2277.04
2277.75
2278.49
2279.27
2280.1
2280.97
2281.89
2282.88
2283.93
2285.05
2286.24
2287.52
2288.88
2290.32
2291.86
2293.49
2295.22
2297.04
2298.96
2300.98
2303.09
2305.31
2307.61
2310
2312.48
2315.04
2317.68
2320.38
2323.14
2325.96
2328.82
2331.71
2334.64
2337.58
2340.52
2343.47
2346.4
2349.3
2352.18
2355.01
2357.78
2360.5
2363.15
2365.71
2368.2
2370.59
2372.88
2375.08
2377.16
2379.14
2381.01
2382.76
2384.4
2385.92
2387.33
2388.62
2389.81
2390.89
2391.86
2392.73
2393.51
2394.19
2394.78
2395.28
2395.68
2395.91
)
;

boundaryField
{
    boundary
    {
        type            empty;
    }
    inlet
    {
        type            fixedValue;
        value           nonuniform 0();
    }
    outlet
    {
        type            zeroGradient;
    }
    procBoundary0to1
    {
        type            processor;
        value           uniform 2210.9;
    }
}


// ************************************************************************* //
