/*--------------------------------*- C++ -*----------------------------------*\
  =========                 |
  \\      /  F ield         | OpenFOAM: The Open Source CFD Toolbox
   \\    /   O peration     | Website:  https://openfoam.org
    \\  /    A nd           | Version:  7
     \\/     M anipulation  |
\*---------------------------------------------------------------------------*/
FoamFile
{
    version     2.0;
    format      ascii;
    class       volScalarField;
    location    "0.00069";
    object      HO2;
}
// * * * * * * * * * * * * * * * * * * * * * * * * * * * * * * * * * * * * * //

dimensions      [0 0 0 0 0 0 0];

internalField   nonuniform List<scalar> 
500
(
5.58257e-38
1.26911e-37
1.98093e-37
2.69166e-37
3.4011e-37
4.10956e-37
4.81762e-37
5.52593e-37
6.23514e-37
6.94589e-37
7.6587e-37
8.37398e-37
9.09202e-37
9.81299e-37
1.0537e-36
1.1264e-36
1.19941e-36
1.27274e-36
1.3464e-36
1.42041e-36
1.49483e-36
1.56972e-36
1.64515e-36
1.72125e-36
1.79813e-36
1.87597e-36
1.95493e-36
2.03524e-36
2.11711e-36
2.2008e-36
2.28655e-36
2.37462e-36
2.46527e-36
2.55872e-36
2.65517e-36
2.75479e-36
2.85765e-36
2.96379e-36
3.07314e-36
3.18555e-36
3.30074e-36
3.41836e-36
3.53792e-36
3.65886e-36
3.78052e-36
3.90215e-36
4.02297e-36
4.14216e-36
4.25887e-36
4.3723e-36
4.48168e-36
4.58629e-36
4.68553e-36
4.77886e-36
4.86588e-36
4.94633e-36
5.02005e-36
5.08699e-36
5.14726e-36
5.20102e-36
5.24856e-36
5.29022e-36
5.32641e-36
5.35756e-36
5.38414e-36
5.40662e-36
5.42547e-36
5.44115e-36
5.45406e-36
5.46461e-36
5.47316e-36
5.48004e-36
5.48551e-36
5.48984e-36
5.49324e-36
5.49588e-36
5.49792e-36
5.49949e-36
5.50068e-36
5.50158e-36
5.50226e-36
5.50277e-36
5.50315e-36
5.50344e-36
5.50365e-36
5.50381e-36
5.50393e-36
5.50403e-36
5.5041e-36
5.50417e-36
5.50422e-36
5.50427e-36
5.50432e-36
5.50436e-36
5.5044e-36
5.50445e-36
5.5045e-36
5.50454e-36
5.50459e-36
5.50465e-36
5.5047e-36
5.50476e-36
5.50482e-36
5.50488e-36
5.50495e-36
5.50502e-36
5.50509e-36
5.50517e-36
5.50525e-36
5.50534e-36
5.50543e-36
5.50552e-36
5.50562e-36
5.50572e-36
5.50583e-36
5.50594e-36
5.50605e-36
5.50617e-36
5.5063e-36
5.50642e-36
5.50654e-36
5.50661e-36
5.50649e-36
5.50558e-36
5.50159e-36
5.49362e-36
5.49381e-36
5.49399e-36
5.49418e-36
5.49436e-36
5.49453e-36
5.49471e-36
5.49489e-36
5.49508e-36
5.49529e-36
5.49552e-36
5.49579e-36
5.4961e-36
5.49648e-36
5.49691e-36
5.49742e-36
5.49801e-36
5.49868e-36
5.49943e-36
5.50025e-36
5.50113e-36
5.50206e-36
5.50302e-36
5.50398e-36
5.50492e-36
5.50581e-36
5.50664e-36
5.50739e-36
5.50804e-36
5.50858e-36
5.50902e-36
5.50936e-36
5.50961e-36
5.50979e-36
5.50991e-36
5.51e-36
5.51008e-36
5.51018e-36
5.51031e-36
5.51048e-36
5.51073e-36
5.51104e-36
5.51144e-36
5.51191e-36
5.51246e-36
5.51308e-36
5.51376e-36
5.51449e-36
5.51527e-36
5.51607e-36
5.51689e-36
5.51771e-36
5.51852e-36
5.51932e-36
5.5201e-36
5.52084e-36
5.52155e-36
5.52222e-36
5.52284e-36
5.52342e-36
5.52396e-36
5.52445e-36
5.5249e-36
5.52531e-36
5.52568e-36
5.52601e-36
5.5263e-36
5.52656e-36
5.52678e-36
5.52697e-36
5.52712e-36
5.52725e-36
5.52734e-36
5.5274e-36
5.52742e-36
5.52742e-36
5.52738e-36
5.52731e-36
5.5272e-36
5.52705e-36
5.52686e-36
5.52664e-36
5.52637e-36
5.52606e-36
5.52571e-36
5.52531e-36
5.52489e-36
5.52445e-36
5.52414e-36
5.52437e-36
5.52661e-36
5.53595e-36
5.56984e-36
5.68783e-36
6.09179e-36
7.46229e-36
1.20812e-35
2.756e-35
7.91636e-35
2.50387e-34
8.16085e-34
2.67815e-33
8.78891e-33
2.88003e-32
9.4268e-32
3.08538e-31
1.01136e-30
3.32668e-30
1.1007e-29
3.67367e-29
1.24067e-28
4.25354e-28
1.485e-27
5.29287e-27
1.92914e-26
7.19378e-26
2.74259e-25
1.06711e-24
4.22697e-24
1.69982e-23
6.92012e-23
2.84473e-22
1.1782e-21
4.90746e-21
2.05265e-20
8.612e-20
3.64341e-19
1.53839e-18
6.48803e-18
2.73623e-17
1.15392e-16
4.86502e-16
2.05003e-15
8.63172e-15
3.63078e-14
1.52539e-13
6.39986e-13
2.68107e-12
1.1214e-11
4.6829e-11
1.95248e-10
8.12861e-10
3.37965e-09
1.40354e-08
5.82135e-08
2.40934e-07
9.91797e-07
4.02937e-06
1.59093e-05
5.87556e-05
0.000185929
0.000414277
0.000521087
0.0004651
0.000354517
0.000252715
0.000177337
0.000124112
8.68101e-05
6.148e-05
4.28919e-05
3.20576e-05
2.51176e-05
2.05925e-05
1.75497e-05
1.54209e-05
1.38661e-05
1.26819e-05
1.17453e-05
1.09802e-05
1.03386e-05
9.78915e-06
9.3107e-06
8.88853e-06
8.51204e-06
8.17338e-06
7.86656e-06
7.58691e-06
7.33072e-06
7.09496e-06
6.87717e-06
6.67529e-06
6.4876e-06
6.31264e-06
6.14917e-06
5.99619e-06
5.85287e-06
5.72256e-06
5.6013e-06
5.4861e-06
5.37653e-06
5.27219e-06
5.17272e-06
5.07779e-06
4.98711e-06
4.90041e-06
4.81743e-06
4.73795e-06
4.66175e-06
4.58865e-06
4.51846e-06
4.45101e-06
4.38615e-06
4.32374e-06
4.26365e-06
4.20574e-06
4.1499e-06
4.09603e-06
4.04403e-06
3.9938e-06
3.94526e-06
3.89832e-06
3.85291e-06
3.80895e-06
3.76638e-06
3.72514e-06
3.68517e-06
3.6464e-06
3.6088e-06
3.57231e-06
3.53688e-06
3.50247e-06
3.46903e-06
3.43654e-06
3.40495e-06
3.37422e-06
3.34433e-06
3.31523e-06
3.28691e-06
3.25933e-06
3.23246e-06
3.20628e-06
3.18077e-06
3.1559e-06
3.13164e-06
3.10798e-06
3.0849e-06
3.06238e-06
3.04039e-06
3.01892e-06
2.99796e-06
2.97748e-06
2.95748e-06
2.93793e-06
2.91882e-06
2.90015e-06
2.88189e-06
2.86404e-06
2.84658e-06
2.82951e-06
2.81281e-06
2.79647e-06
2.78045e-06
2.76477e-06
2.74942e-06
2.73439e-06
2.71968e-06
2.70527e-06
2.69115e-06
2.67732e-06
2.66378e-06
2.6505e-06
2.6375e-06
2.62475e-06
2.61226e-06
2.60001e-06
2.58801e-06
2.57624e-06
2.56469e-06
2.55338e-06
2.54227e-06
2.53138e-06
2.5207e-06
2.51022e-06
2.49993e-06
2.48983e-06
2.47992e-06
2.47019e-06
2.46063e-06
2.45125e-06
2.44203e-06
2.43297e-06
2.42407e-06
2.41533e-06
2.40673e-06
2.39827e-06
2.38996e-06
2.38177e-06
2.37373e-06
2.3658e-06
2.35801e-06
2.35033e-06
2.34276e-06
2.33531e-06
2.32797e-06
2.32074e-06
2.31361e-06
2.30657e-06
2.29963e-06
2.29279e-06
2.28603e-06
2.27937e-06
2.27278e-06
2.26628e-06
2.25986e-06
2.25351e-06
2.24723e-06
2.24103e-06
2.23489e-06
2.22881e-06
2.2228e-06
2.21685e-06
2.21095e-06
2.2051e-06
2.19931e-06
2.19356e-06
2.18785e-06
2.18218e-06
2.17654e-06
2.17093e-06
2.16535e-06
2.15979e-06
2.15425e-06
2.14872e-06
2.1432e-06
2.13767e-06
2.13213e-06
2.12659e-06
2.12102e-06
2.11542e-06
2.10979e-06
2.10412e-06
2.09839e-06
2.09261e-06
2.08676e-06
2.08082e-06
2.07481e-06
2.0687e-06
2.0625e-06
2.05621e-06
2.04977e-06
2.04183e-06
2.03311e-06
2.0262e-06
2.01897e-06
2.01148e-06
2.00375e-06
1.99579e-06
1.98758e-06
1.9791e-06
1.97036e-06
1.96135e-06
1.95205e-06
1.94246e-06
1.93257e-06
1.92238e-06
1.91188e-06
1.90107e-06
1.88996e-06
1.87854e-06
1.86682e-06
1.85481e-06
1.84252e-06
1.82995e-06
1.81713e-06
1.80407e-06
1.7908e-06
1.77736e-06
1.76379e-06
1.75016e-06
1.7366e-06
1.7233e-06
1.71067e-06
1.69951e-06
1.69167e-06
)
;

boundaryField
{
    boundary
    {
        type            empty;
    }
    inlet
    {
        type            fixedValue;
        value           uniform 0;
    }
    outlet
    {
        type            zeroGradient;
    }
}


// ************************************************************************* //
