/*--------------------------------*- C++ -*----------------------------------*\
  =========                 |
  \\      /  F ield         | OpenFOAM: The Open Source CFD Toolbox
   \\    /   O peration     | Website:  https://openfoam.org
    \\  /    A nd           | Version:  7
     \\/     M anipulation  |
\*---------------------------------------------------------------------------*/
FoamFile
{
    version     2.0;
    format      ascii;
    class       volScalarField;
    location    "0.00069";
    object      O;
}
// * * * * * * * * * * * * * * * * * * * * * * * * * * * * * * * * * * * * * //

dimensions      [0 0 0 0 0 0 0];

internalField   nonuniform List<scalar> 
500
(
1.57309e-47
3.74767e-47
5.92802e-47
8.103e-47
1.02712e-46
1.24338e-46
1.45929e-46
1.6751e-46
1.89105e-46
2.10738e-46
2.32429e-46
2.54194e-46
2.76044e-46
2.9799e-46
3.20035e-46
3.42185e-46
3.64445e-46
3.86822e-46
4.09326e-46
4.31973e-46
4.54786e-46
4.77793e-46
5.01032e-46
5.24552e-46
5.48406e-46
5.72662e-46
5.97393e-46
6.22682e-46
6.48619e-46
6.75299e-46
7.02821e-46
7.31284e-46
7.60785e-46
7.91413e-46
8.23247e-46
8.56352e-46
8.90772e-46
9.26527e-46
9.63609e-46
1.00198e-45
1.04156e-45
1.08225e-45
1.1239e-45
1.16633e-45
1.20932e-45
1.25264e-45
1.29602e-45
1.33917e-45
1.38182e-45
1.42365e-45
1.46439e-45
1.50377e-45
1.54153e-45
1.57745e-45
1.61135e-45
1.64308e-45
1.67253e-45
1.69964e-45
1.72439e-45
1.74678e-45
1.76688e-45
1.78477e-45
1.80054e-45
1.81435e-45
1.82632e-45
1.83662e-45
1.84541e-45
1.85284e-45
1.85907e-45
1.86426e-45
1.86854e-45
1.87205e-45
1.87489e-45
1.87719e-45
1.87902e-45
1.88047e-45
1.88162e-45
1.88251e-45
1.88321e-45
1.88375e-45
1.88416e-45
1.88447e-45
1.88471e-45
1.88489e-45
1.88502e-45
1.88512e-45
1.8852e-45
1.88526e-45
1.88531e-45
1.88535e-45
1.88538e-45
1.8854e-45
1.88543e-45
1.88545e-45
1.88547e-45
1.88549e-45
1.88551e-45
1.88553e-45
1.88556e-45
1.88558e-45
1.8856e-45
1.88563e-45
1.88566e-45
1.88569e-45
1.88572e-45
1.88575e-45
1.88578e-45
1.88581e-45
1.88585e-45
1.88589e-45
1.88593e-45
1.88597e-45
1.88601e-45
1.88606e-45
1.8861e-45
1.88615e-45
1.8862e-45
1.88625e-45
1.88631e-45
1.88635e-45
1.88639e-45
1.88637e-45
1.88621e-45
1.88563e-45
1.88381e-45
1.88117e-45
1.88125e-45
1.88134e-45
1.88143e-45
1.88153e-45
1.88163e-45
1.88174e-45
1.88187e-45
1.88202e-45
1.88219e-45
1.8824e-45
1.88263e-45
1.88291e-45
1.88322e-45
1.88357e-45
1.88395e-45
1.88437e-45
1.88481e-45
1.88526e-45
1.88573e-45
1.88619e-45
1.88664e-45
1.88707e-45
1.88748e-45
1.88785e-45
1.8882e-45
1.88851e-45
1.88878e-45
1.88903e-45
1.88924e-45
1.88944e-45
1.88961e-45
1.88976e-45
1.8899e-45
1.89002e-45
1.89014e-45
1.89026e-45
1.89038e-45
1.8905e-45
1.89062e-45
1.89074e-45
1.89087e-45
1.89101e-45
1.89115e-45
1.89131e-45
1.89147e-45
1.89164e-45
1.89181e-45
1.892e-45
1.89219e-45
1.89238e-45
1.89258e-45
1.89279e-45
1.89299e-45
1.89319e-45
1.89339e-45
1.89359e-45
1.89379e-45
1.89397e-45
1.89415e-45
1.89433e-45
1.89449e-45
1.89464e-45
1.89479e-45
1.89492e-45
1.89504e-45
1.89516e-45
1.89527e-45
1.89542e-45
1.89575e-45
1.89681e-45
1.90074e-45
1.91589e-45
1.97431e-45
2.19837e-45
3.05227e-45
6.28492e-45
1.8441e-44
6.38468e-44
2.32313e-43
8.53188e-43
3.12613e-42
1.13917e-41
4.12501e-41
1.48398e-40
5.30369e-40
1.88316e-39
6.64309e-39
2.32834e-38
8.10845e-38
2.80591e-37
9.64901e-37
3.29763e-36
1.12013e-35
3.78205e-35
1.26948e-34
4.23665e-34
1.40596e-33
4.64031e-33
1.52339e-32
4.9756e-32
1.61708e-31
5.23064e-31
1.68426e-30
5.39996e-30
1.72423e-29
5.48438e-29
1.73815e-28
5.4901e-28
1.72865e-27
5.42718e-27
1.69934e-26
5.30789e-26
1.65424e-25
5.14517e-25
1.59741e-24
4.95143e-24
1.53258e-23
4.73773e-23
1.46298e-22
4.51328e-22
1.3912e-21
4.28536e-21
1.31925e-20
4.05937e-20
1.24857e-19
3.85738e-19
1.18915e-18
3.65751e-18
1.1239e-17
3.45169e-17
1.05956e-16
3.25085e-16
9.96817e-16
3.05453e-15
9.35294e-15
2.8615e-14
8.74695e-14
2.67133e-13
8.15108e-13
2.48513e-12
7.57151e-12
2.30568e-11
7.01958e-11
2.13729e-10
6.51139e-10
1.9871e-09
6.09646e-09
1.90697e-08
6.39696e-08
2.6259e-07
1.51727e-06
1.05404e-05
5.81246e-05
0.000246136
0.000806049
0.00187052
0.003225
0.00449496
0.00544327
0.00605108
0.00634033
0.00643747
0.00641401
0.00631923
0.00618509
0.00603142
0.00587013
0.00570816
0.00554944
0.00539604
0.00524898
0.00510863
0.004975
0.0048479
0.00472702
0.00461204
0.00450259
0.00439832
0.0042989
0.00420402
0.00411338
0.00402672
0.00394379
0.00386439
0.00378831
0.00371541
0.00364766
0.00358365
0.00352177
0.00346193
0.00340401
0.00334792
0.00329358
0.00324091
0.00318983
0.00314027
0.00309218
0.00304547
0.0030001
0.002956
0.00291313
0.00287142
0.00283084
0.00279133
0.00275285
0.00271536
0.00267882
0.0026432
0.00260845
0.00257454
0.00254145
0.00250914
0.00247759
0.00244676
0.00241663
0.00238718
0.00235838
0.00233021
0.00230266
0.00227569
0.00224929
0.00222344
0.00219813
0.00217334
0.00214905
0.00212524
0.0021019
0.00207902
0.00205659
0.00203458
0.00201299
0.00199181
0.00197103
0.00195062
0.00193059
0.00191093
0.00189161
0.00187264
0.001854
0.00183569
0.0018177
0.00180002
0.00178264
0.00176556
0.00174876
0.00173225
0.00171601
0.00170005
0.00168435
0.00166891
0.00165371
0.00163873
0.00162398
0.00160946
0.00159517
0.00158111
0.00156726
0.00155363
0.0015402
0.00152698
0.00151396
0.00150114
0.00148851
0.00147606
0.0014638
0.00145172
0.00143982
0.00142809
0.00141654
0.00140514
0.00139391
0.00138284
0.00137193
0.00136117
0.00135056
0.00134009
0.00132977
0.00131959
0.00130955
0.00129964
0.00128987
0.00128022
0.0012707
0.0012613
0.00125203
0.00124287
0.00123383
0.00122491
0.00121609
0.00120738
0.00119879
0.00119029
0.0011819
0.00117361
0.00116542
0.00115732
0.00114932
0.00114141
0.0011336
0.00112587
0.00111824
0.00111068
0.00110322
0.00109584
0.00108854
0.00108132
0.00107418
0.00106711
0.00106013
0.00105322
0.00104638
0.00103961
0.00103292
0.00102629
0.00101973
0.00101324
0.00100681
0.00100044
0.00099414
0.000987894
0.000981706
0.000975573
0.000969494
0.000963466
0.000957487
0.000951555
0.000945667
0.000939821
0.000934014
0.000928244
0.000922508
0.000916802
0.000911124
0.00090547
0.000899837
0.000894221
0.000888618
0.000883022
0.000877427
0.000871784
0.00086563
0.00085877
0.000853192
0.000847514
0.000841785
0.000836017
0.000830212
0.000824366
0.000818477
0.00081254
0.000806552
0.000800508
0.000794407
0.000788244
0.000782019
0.000775728
0.000769371
0.000762946
0.000756455
0.000749897
0.000743274
0.000736588
0.000729843
0.000723045
0.000716202
0.000709325
0.000702432
0.00069555
0.000688724
0.00068203
0.000675598
0.000669664
0.000664656
0.000661379
)
;

boundaryField
{
    boundary
    {
        type            empty;
    }
    inlet
    {
        type            fixedValue;
        value           uniform 0;
    }
    outlet
    {
        type            zeroGradient;
    }
}


// ************************************************************************* //
