/*--------------------------------*- C++ -*----------------------------------*\
  =========                 |
  \\      /  F ield         | OpenFOAM: The Open Source CFD Toolbox
   \\    /   O peration     | Website:  https://openfoam.org
    \\  /    A nd           | Version:  7
     \\/     M anipulation  |
\*---------------------------------------------------------------------------*/
FoamFile
{
    version     2.0;
    format      ascii;
    class       volScalarField;
    location    "0.00069";
    object      O2;
}
// * * * * * * * * * * * * * * * * * * * * * * * * * * * * * * * * * * * * * //

dimensions      [0 0 0 0 0 0 0];

internalField   nonuniform List<scalar> 
500
(
0.226269
0.226269
0.226269
0.226269
0.226269
0.226269
0.226269
0.226269
0.226269
0.226269
0.226269
0.226269
0.226269
0.226269
0.226269
0.226269
0.226269
0.226269
0.226269
0.226269
0.226269
0.226269
0.226269
0.226269
0.226269
0.226269
0.226269
0.226269
0.226269
0.226269
0.226269
0.226269
0.226269
0.226269
0.226269
0.226269
0.226269
0.226269
0.226269
0.226269
0.226269
0.226269
0.226269
0.226269
0.226269
0.226269
0.226269
0.226269
0.226269
0.226269
0.226269
0.226269
0.226269
0.226269
0.226269
0.226269
0.226269
0.226269
0.226269
0.226269
0.226269
0.226269
0.226269
0.226269
0.226269
0.226269
0.226269
0.226269
0.226269
0.226269
0.226269
0.226269
0.226269
0.226269
0.226269
0.226269
0.226269
0.226269
0.226269
0.226269
0.226269
0.226269
0.226269
0.226269
0.226269
0.226269
0.226269
0.226269
0.226269
0.226269
0.226269
0.226269
0.226269
0.226269
0.226269
0.226269
0.226269
0.226269
0.226269
0.226269
0.226269
0.226269
0.226269
0.226269
0.226269
0.226269
0.226269
0.226269
0.226269
0.226269
0.226269
0.226269
0.226269
0.226269
0.226269
0.226269
0.226269
0.226269
0.226269
0.226269
0.226269
0.226269
0.226269
0.226269
0.226269
0.226269
0.226269
0.226269
0.226269
0.226269
0.226269
0.226269
0.226269
0.226269
0.226269
0.226269
0.226269
0.226269
0.226269
0.226269
0.226269
0.226269
0.226269
0.226269
0.226269
0.226269
0.226269
0.226269
0.226269
0.226269
0.226269
0.226269
0.226269
0.226269
0.226269
0.226269
0.226269
0.226269
0.226269
0.226269
0.226269
0.226269
0.226269
0.226269
0.226269
0.226269
0.226269
0.226269
0.226269
0.226269
0.226269
0.226269
0.226269
0.226269
0.226269
0.226269
0.226269
0.226269
0.226269
0.226269
0.226269
0.226269
0.226269
0.226269
0.226269
0.226269
0.226269
0.226269
0.226269
0.226269
0.226269
0.226269
0.226269
0.226269
0.226269
0.226269
0.226269
0.226269
0.226269
0.226269
0.226269
0.226269
0.226269
0.226269
0.226269
0.226269
0.226269
0.226269
0.226269
0.226269
0.226269
0.226269
0.226269
0.226269
0.226269
0.226269
0.226269
0.226269
0.226269
0.226269
0.226269
0.226269
0.226269
0.226269
0.226269
0.226269
0.226269
0.226269
0.226269
0.226269
0.226269
0.226269
0.226269
0.226269
0.226269
0.226269
0.226269
0.226269
0.226269
0.226269
0.226269
0.226269
0.226269
0.226269
0.226269
0.226269
0.226269
0.226269
0.226269
0.226269
0.226269
0.226269
0.226269
0.226269
0.226269
0.226269
0.226269
0.226269
0.226269
0.226269
0.226269
0.226269
0.226269
0.226269
0.226269
0.226269
0.226269
0.226269
0.22627
0.226271
0.226274
0.226277
0.226277
0.226257
0.226131
0.225598
0.223814
0.219114
0.20979
0.196688
0.180155
0.158989
0.133804
0.108392
0.0870545
0.06861
0.0569608
0.0490482
0.0437019
0.0400382
0.0374555
0.0355648
0.0341206
0.0329693
0.0320152
0.031198
0.0304794
0.0298343
0.0292462
0.0287038
0.0281991
0.0277264
0.0272813
0.0268604
0.0264611
0.0260813
0.0257191
0.0253731
0.0250421
0.024725
0.0244211
0.0241299
0.0238595
0.0236025
0.0233535
0.0231122
0.0228782
0.0226511
0.0224307
0.0222166
0.0220085
0.0218062
0.0216094
0.0214178
0.0212313
0.0210495
0.0208723
0.0206995
0.0205308
0.0203662
0.0202054
0.0200482
0.0198945
0.0197442
0.0195971
0.0194531
0.0193121
0.0191739
0.0190385
0.0189057
0.0187754
0.0186476
0.0185222
0.0183991
0.0182782
0.0181594
0.0180427
0.017928
0.0178153
0.0177044
0.0175954
0.0174881
0.0173825
0.0172787
0.0171764
0.0170757
0.0169765
0.0168788
0.0167826
0.0166878
0.0165943
0.0165022
0.0164114
0.0163219
0.0162336
0.0161465
0.0160607
0.0159759
0.0158923
0.0158098
0.0157284
0.0156481
0.0155687
0.0154905
0.0154132
0.0153369
0.0152615
0.0151871
0.0151137
0.0150411
0.0149695
0.0148987
0.0148288
0.0147597
0.0146915
0.0146242
0.0145576
0.0144918
0.0144269
0.0143627
0.0142992
0.0142365
0.0141745
0.0141133
0.0140527
0.0139929
0.0139337
0.0138752
0.0138174
0.0137602
0.0137036
0.0136476
0.0135922
0.0135374
0.0134832
0.0134295
0.0133763
0.0133237
0.0132716
0.01322
0.0131689
0.0131182
0.013068
0.0130182
0.0129688
0.0129199
0.0128713
0.0128232
0.0127754
0.0127279
0.0126808
0.0126341
0.0125876
0.0125415
0.0124957
0.0124502
0.0124049
0.0123599
0.0123152
0.0122707
0.0122264
0.0121824
0.0121385
0.0120949
0.0120515
0.0120082
0.0119651
0.0119221
0.0118792
0.0118365
0.0117939
0.0117513
0.0117088
0.0116663
0.0116239
0.0115814
0.0115389
0.0114964
0.0114537
0.011411
0.0113681
0.011325
0.0112817
0.0112381
0.0111942
0.01115
0.0111055
0.0110605
0.011015
0.010969
0.0109225
0.0108754
0.0108276
0.0107793
0.0107302
0.0106799
0.0106189
0.0105515
0.0104985
0.0104434
0.0103867
0.0103285
0.0102689
0.0102077
0.0101451
0.0100808
0.010015
0.00994743
0.0098782
0.00980724
0.00973452
0.00966005
0.0095838
0.00950579
0.00942603
0.00934454
0.00926136
0.00917656
0.00909018
0.00900232
0.00891309
0.00882264
0.00873117
0.00863896
0.00854647
0.00845446
0.00836433
0.00827876
0.0082034
0.00815082
)
;

boundaryField
{
    boundary
    {
        type            empty;
    }
    inlet
    {
        type            fixedValue;
        value           uniform 0.226269;
    }
    outlet
    {
        type            zeroGradient;
    }
}


// ************************************************************************* //
