/*--------------------------------*- C++ -*----------------------------------*\
  =========                 |
  \\      /  F ield         | OpenFOAM: The Open Source CFD Toolbox
   \\    /   O peration     | Website:  https://openfoam.org
    \\  /    A nd           | Version:  7
     \\/     M anipulation  |
\*---------------------------------------------------------------------------*/
FoamFile
{
    version     2.0;
    format      ascii;
    class       volScalarField;
    location    "0.00069";
    object      OH;
}
// * * * * * * * * * * * * * * * * * * * * * * * * * * * * * * * * * * * * * //

dimensions      [0 0 0 0 0 0 0];

internalField   nonuniform List<scalar> 
500
(
9.36684e-48
1.82294e-47
2.42579e-47
2.8306e-47
3.1008e-47
3.28043e-47
3.3995e-47
3.47837e-47
3.53076e-47
3.56594e-47
3.59014e-47
3.60751e-47
3.6208e-47
3.6318e-47
3.64165e-47
3.65107e-47
3.66049e-47
3.6702e-47
3.68035e-47
3.69107e-47
3.70247e-47
3.71466e-47
3.72777e-47
3.74198e-47
3.75748e-47
3.77452e-47
3.79338e-47
3.81436e-47
3.8378e-47
3.86407e-47
3.89356e-47
3.92666e-47
3.96377e-47
4.00529e-47
4.05159e-47
4.10301e-47
4.15984e-47
4.22232e-47
4.29061e-47
4.36479e-47
4.44483e-47
4.5306e-47
4.62185e-47
4.71819e-47
4.81913e-47
4.92405e-47
5.03221e-47
5.14277e-47
5.25484e-47
5.36742e-47
5.47952e-47
5.59013e-47
5.69827e-47
5.803e-47
5.9035e-47
5.99902e-47
6.08896e-47
6.17283e-47
6.25032e-47
6.32122e-47
6.3855e-47
6.44323e-47
6.4946e-47
6.53989e-47
6.57947e-47
6.61374e-47
6.64316e-47
6.6682e-47
6.68932e-47
6.707e-47
6.72166e-47
6.73372e-47
6.74358e-47
6.75155e-47
6.75797e-47
6.76308e-47
6.76713e-47
6.77032e-47
6.77281e-47
6.77474e-47
6.77623e-47
6.77738e-47
6.77825e-47
6.77893e-47
6.77944e-47
6.77983e-47
6.78014e-47
6.78038e-47
6.78057e-47
6.78072e-47
6.78086e-47
6.78097e-47
6.78108e-47
6.78117e-47
6.78127e-47
6.78136e-47
6.78146e-47
6.78155e-47
6.78165e-47
6.78175e-47
6.78186e-47
6.78196e-47
6.78208e-47
6.7822e-47
6.78232e-47
6.78245e-47
6.78259e-47
6.78273e-47
6.78288e-47
6.78303e-47
6.78319e-47
6.78335e-47
6.78353e-47
6.78371e-47
6.78389e-47
6.78409e-47
6.78429e-47
6.7845e-47
6.78471e-47
6.78494e-47
6.78518e-47
6.78544e-47
6.78575e-47
6.78612e-47
6.78661e-47
6.78719e-47
6.7877e-47
6.78819e-47
6.78862e-47
6.78897e-47
6.78925e-47
6.78945e-47
6.7896e-47
6.78971e-47
6.7898e-47
6.7899e-47
6.79001e-47
6.79016e-47
6.79035e-47
6.7906e-47
6.7909e-47
6.79126e-47
6.79167e-47
6.79212e-47
6.79261e-47
6.79312e-47
6.79366e-47
6.7942e-47
6.79475e-47
6.7953e-47
6.79585e-47
6.79639e-47
6.79693e-47
6.79746e-47
6.798e-47
6.79852e-47
6.79905e-47
6.79958e-47
6.8001e-47
6.80063e-47
6.80117e-47
6.8017e-47
6.80225e-47
6.80279e-47
6.80335e-47
6.80391e-47
6.80448e-47
6.80506e-47
6.80564e-47
6.80623e-47
6.80683e-47
6.80743e-47
6.80804e-47
6.80865e-47
6.80926e-47
6.80988e-47
6.81049e-47
6.8111e-47
6.81171e-47
6.8123e-47
6.81289e-47
6.81347e-47
6.81403e-47
6.81458e-47
6.81511e-47
6.81562e-47
6.81611e-47
6.81657e-47
6.81701e-47
6.81743e-47
6.81781e-47
6.81817e-47
6.8185e-47
6.8188e-47
6.8191e-47
6.81949e-47
6.82035e-47
6.82313e-47
6.83341e-47
6.87257e-47
7.02168e-47
7.58632e-47
9.7105e-47
1.7648e-46
4.71096e-46
1.5573e-45
5.53522e-45
2.00063e-44
7.23e-44
2.60024e-43
9.29476e-43
3.30122e-42
1.16492e-41
4.08427e-41
1.42281e-40
4.92514e-40
1.69419e-39
5.79177e-39
1.96791e-38
6.64642e-38
2.23155e-37
7.44935e-37
2.47275e-36
8.1632e-36
2.68058e-35
8.75715e-35
2.84672e-34
9.21011e-34
2.96629e-33
9.5124e-33
3.03806e-32
9.66579e-32
3.06425e-31
9.6821e-31
3.04995e-30
9.58118e-30
3.0025e-29
9.38926e-29
2.93112e-28
9.13881e-28
2.84738e-27
8.87187e-27
2.76704e-26
8.6498e-26
2.71486e-25
8.57574e-25
2.73496e-24
8.84216e-24
2.91248e-23
9.82926e-23
3.41818e-22
1.23701e-21
4.63368e-21
1.79836e-20
7.22203e-20
2.98805e-19
1.26673e-18
5.47239e-18
2.39765e-17
1.06131e-16
4.73226e-16
2.12103e-15
9.54168e-15
4.30388e-14
1.94517e-13
8.80496e-13
3.99076e-12
1.8108e-11
8.22448e-11
3.76871e-10
1.7481e-09
8.17512e-09
3.85366e-08
1.86075e-07
9.68247e-07
5.88673e-06
4.03002e-05
0.000221257
0.000584877
0.000813893
0.000977336
0.00137296
0.00219187
0.00339974
0.00478248
0.00622986
0.00739838
0.00834469
0.00909021
0.00967143
0.010125
0.0104815
0.0107641
0.0109903
0.0111728
0.0113208
0.0114413
0.0115396
0.0116194
0.011684
0.0117356
0.0117763
0.0118077
0.011831
0.0118472
0.0118574
0.0118623
0.0118626
0.0118588
0.0118514
0.0118408
0.0118274
0.0118122
0.0117954
0.0117769
0.0117569
0.0117355
0.0117128
0.011689
0.0116642
0.0116385
0.0116119
0.0115847
0.0115568
0.0115283
0.0114993
0.0114698
0.01144
0.0114097
0.0113792
0.0113483
0.0113173
0.011286
0.0112545
0.0112229
0.0111911
0.0111593
0.0111273
0.0110953
0.0110632
0.0110311
0.010999
0.0109669
0.0109348
0.0109026
0.0108706
0.0108385
0.0108066
0.0107746
0.0107428
0.010711
0.0106793
0.0106476
0.0106161
0.0105847
0.0105533
0.0105221
0.010491
0.01046
0.0104291
0.0103983
0.0103676
0.0103371
0.0103067
0.0102764
0.0102463
0.0102163
0.0101864
0.0101567
0.0101271
0.0100977
0.0100684
0.0100393
0.0100103
0.00998142
0.00995273
0.00992418
0.00989573
0.00986744
0.00983931
0.00981134
0.00978352
0.00975586
0.00972835
0.00970101
0.00967382
0.00964679
0.00961993
0.00959322
0.00956668
0.00954029
0.00951407
0.009488
0.0094621
0.00943635
0.00941076
0.00938533
0.00936006
0.00933494
0.00930998
0.00928517
0.00926051
0.00923601
0.00921165
0.00918743
0.00916337
0.00913944
0.00911566
0.00909202
0.00906851
0.00904514
0.0090219
0.00899879
0.00897581
0.00895296
0.00893024
0.00890763
0.00888515
0.00886279
0.00884055
0.00881842
0.00879641
0.00877451
0.00875273
0.00873106
0.0087095
0.00868804
0.0086667
0.00864546
0.00862433
0.00860331
0.00858239
0.00856157
0.00854086
0.00852024
0.00849973
0.00847931
0.00845899
0.00843876
0.00841863
0.00839858
0.00837862
0.00835875
0.00833895
0.00831923
0.00829958
0.00827999
0.00826047
0.00824099
0.00822157
0.00820218
0.00818282
0.00816349
0.00814416
0.00812484
0.00810551
0.00808615
0.00806677
0.00804733
0.00802783
0.00800825
0.00798856
0.00796876
0.00794882
0.00792874
0.00790838
0.007886
0.00786083
0.00784008
0.00781873
0.00779697
0.00777485
0.00775237
0.00772952
0.00770627
0.0076826
0.00765849
0.00763392
0.00760888
0.00758334
0.00755731
0.00753076
0.00750368
0.00747608
0.00744796
0.00741931
0.00739015
0.0073605
0.00733036
0.00729979
0.00726881
0.00723749
0.00720593
0.00717427
0.00714274
0.00711172
0.00708186
0.0070543
0.00703107
0.00701585
)
;

boundaryField
{
    boundary
    {
        type            empty;
    }
    inlet
    {
        type            fixedValue;
        value           uniform 0;
    }
    outlet
    {
        type            zeroGradient;
    }
}


// ************************************************************************* //
