/*--------------------------------*- C++ -*----------------------------------*\
  =========                 |
  \\      /  F ield         | OpenFOAM: The Open Source CFD Toolbox
   \\    /   O peration     | Website:  https://openfoam.org
    \\  /    A nd           | Version:  7
     \\/     M anipulation  |
\*---------------------------------------------------------------------------*/
FoamFile
{
    version     2.0;
    format      ascii;
    class       surfaceScalarField;
    location    "0.00069";
    object      phi;
}
// * * * * * * * * * * * * * * * * * * * * * * * * * * * * * * * * * * * * * //

dimensions      [1 0 -1 0 0 0 0];

internalField   nonuniform List<scalar> 
499
(
6.93001e-06
6.93017e-06
6.93037e-06
6.93059e-06
6.93083e-06
6.93108e-06
6.93133e-06
6.93158e-06
6.93182e-06
6.93204e-06
6.93224e-06
6.93241e-06
6.93256e-06
6.93268e-06
6.93277e-06
6.93285e-06
6.9329e-06
6.93293e-06
6.93295e-06
6.93296e-06
6.93294e-06
6.93292e-06
6.93288e-06
6.93282e-06
6.93274e-06
6.93264e-06
6.93251e-06
6.93236e-06
6.93217e-06
6.93194e-06
6.93166e-06
6.93134e-06
6.93095e-06
6.93051e-06
6.93001e-06
6.92943e-06
6.92879e-06
6.92807e-06
6.92728e-06
6.92642e-06
6.92549e-06
6.92449e-06
6.92344e-06
6.92234e-06
6.92119e-06
6.92001e-06
6.9188e-06
6.91759e-06
6.91637e-06
6.91517e-06
6.91399e-06
6.91284e-06
6.91174e-06
6.91068e-06
6.90969e-06
6.90876e-06
6.9079e-06
6.90711e-06
6.90639e-06
6.90575e-06
6.90518e-06
6.90468e-06
6.90425e-06
6.90388e-06
6.90357e-06
6.90331e-06
6.90311e-06
6.90295e-06
6.90282e-06
6.90274e-06
6.90268e-06
6.90265e-06
6.90264e-06
6.90265e-06
6.90267e-06
6.90271e-06
6.90276e-06
6.90282e-06
6.90288e-06
6.90295e-06
6.90303e-06
6.9031e-06
6.90319e-06
6.90327e-06
6.90335e-06
6.90344e-06
6.90352e-06
6.90361e-06
6.9037e-06
6.90378e-06
6.90387e-06
6.90396e-06
6.90404e-06
6.90413e-06
6.90421e-06
6.9043e-06
6.90439e-06
6.90447e-06
6.90456e-06
6.90464e-06
6.90473e-06
6.90481e-06
6.90489e-06
6.90498e-06
6.90506e-06
6.90514e-06
6.90523e-06
6.90531e-06
6.90539e-06
6.90547e-06
6.90555e-06
6.90563e-06
6.90571e-06
6.90579e-06
6.90587e-06
6.90595e-06
6.90603e-06
6.90611e-06
6.90619e-06
6.90627e-06
6.90635e-06
6.90642e-06
6.9065e-06
6.90658e-06
6.90665e-06
6.90672e-06
6.90679e-06
6.90687e-06
6.90694e-06
6.90701e-06
6.90709e-06
6.90716e-06
6.90723e-06
6.90731e-06
6.90738e-06
6.90746e-06
6.90753e-06
6.90761e-06
6.90768e-06
6.90775e-06
6.90783e-06
6.9079e-06
6.90797e-06
6.90804e-06
6.90811e-06
6.90817e-06
6.90824e-06
6.90831e-06
6.90838e-06
6.90844e-06
6.90851e-06
6.90858e-06
6.90864e-06
6.90871e-06
6.90877e-06
6.90884e-06
6.9089e-06
6.90897e-06
6.90903e-06
6.9091e-06
6.90916e-06
6.90923e-06
6.90929e-06
6.90935e-06
6.90942e-06
6.90948e-06
6.90954e-06
6.9096e-06
6.90967e-06
6.90973e-06
6.90979e-06
6.90985e-06
6.90991e-06
6.90997e-06
6.91003e-06
6.91009e-06
6.91015e-06
6.91021e-06
6.91027e-06
6.91033e-06
6.91039e-06
6.91045e-06
6.91051e-06
6.91057e-06
6.91064e-06
6.9107e-06
6.91076e-06
6.91082e-06
6.91088e-06
6.91094e-06
6.911e-06
6.91106e-06
6.91112e-06
6.91118e-06
6.91124e-06
6.91131e-06
6.91137e-06
6.91143e-06
6.91149e-06
6.91156e-06
6.91162e-06
6.91168e-06
6.91175e-06
6.91181e-06
6.91188e-06
6.91195e-06
6.91201e-06
6.91208e-06
6.91215e-06
6.91222e-06
6.91228e-06
6.91235e-06
6.91242e-06
6.91249e-06
6.91257e-06
6.91264e-06
6.91271e-06
6.91279e-06
6.91286e-06
6.91294e-06
6.91301e-06
6.91309e-06
6.91317e-06
6.91325e-06
6.91333e-06
6.91341e-06
6.9135e-06
6.91358e-06
6.91367e-06
6.91375e-06
6.91384e-06
6.91393e-06
6.91402e-06
6.91411e-06
6.9142e-06
6.9143e-06
6.91439e-06
6.91449e-06
6.91458e-06
6.91468e-06
6.91478e-06
6.91489e-06
6.91499e-06
6.91509e-06
6.9152e-06
6.91531e-06
6.91542e-06
6.91553e-06
6.91564e-06
6.91575e-06
6.91586e-06
6.91597e-06
6.91609e-06
6.9162e-06
6.91632e-06
6.91644e-06
6.91656e-06
6.91669e-06
6.91681e-06
6.91694e-06
6.91707e-06
6.9172e-06
6.91733e-06
6.91747e-06
6.9176e-06
6.91774e-06
6.91787e-06
6.91801e-06
6.91816e-06
6.91833e-06
6.9186e-06
6.91916e-06
6.92057e-06
6.92449e-06
6.93544e-06
6.96287e-06
7.01408e-06
7.07377e-06
7.11996e-06
7.14999e-06
7.16975e-06
7.18343e-06
7.19291e-06
7.19879e-06
7.20296e-06
7.20682e-06
7.21015e-06
7.21272e-06
7.21481e-06
7.21655e-06
7.21803e-06
7.21931e-06
7.22043e-06
7.22143e-06
7.22232e-06
7.22313e-06
7.22386e-06
7.22453e-06
7.22515e-06
7.22572e-06
7.22624e-06
7.22673e-06
7.22718e-06
7.2276e-06
7.22799e-06
7.22835e-06
7.22869e-06
7.229e-06
7.22929e-06
7.22956e-06
7.22982e-06
7.23005e-06
7.23026e-06
7.23045e-06
7.23064e-06
7.23082e-06
7.23098e-06
7.23114e-06
7.2313e-06
7.23145e-06
7.23159e-06
7.23174e-06
7.23187e-06
7.23201e-06
7.23214e-06
7.23227e-06
7.2324e-06
7.23253e-06
7.23265e-06
7.23278e-06
7.2329e-06
7.23302e-06
7.23313e-06
7.23325e-06
7.23336e-06
7.23347e-06
7.23358e-06
7.23368e-06
7.23379e-06
7.23389e-06
7.23398e-06
7.23408e-06
7.23417e-06
7.23426e-06
7.23435e-06
7.23444e-06
7.23452e-06
7.2346e-06
7.23468e-06
7.23476e-06
7.23484e-06
7.23491e-06
7.23498e-06
7.23505e-06
7.23512e-06
7.23519e-06
7.23526e-06
7.23532e-06
7.23539e-06
7.23545e-06
7.23551e-06
7.23557e-06
7.23563e-06
7.23569e-06
7.23575e-06
7.23581e-06
7.23587e-06
7.23593e-06
7.23598e-06
7.23604e-06
7.2361e-06
7.23615e-06
7.2362e-06
7.23626e-06
7.23631e-06
7.23636e-06
7.23641e-06
7.23646e-06
7.23651e-06
7.23655e-06
7.2366e-06
7.23664e-06
7.23669e-06
7.23673e-06
7.23677e-06
7.23682e-06
7.23686e-06
7.2369e-06
7.23694e-06
7.23697e-06
7.23701e-06
7.23704e-06
7.23708e-06
7.23711e-06
7.23714e-06
7.23717e-06
7.2372e-06
7.23722e-06
7.23725e-06
7.23727e-06
7.2373e-06
7.23732e-06
7.23734e-06
7.23736e-06
7.23738e-06
7.2374e-06
7.23741e-06
7.23743e-06
7.23744e-06
7.23746e-06
7.23747e-06
7.23748e-06
7.23749e-06
7.2375e-06
7.23751e-06
7.23752e-06
7.23753e-06
7.23754e-06
7.23755e-06
7.23756e-06
7.23756e-06
7.23757e-06
7.23758e-06
7.23758e-06
7.23758e-06
7.23759e-06
7.23759e-06
7.23759e-06
7.23759e-06
7.23759e-06
7.23758e-06
7.23758e-06
7.23757e-06
7.23756e-06
7.23755e-06
7.23754e-06
7.23752e-06
7.23751e-06
7.23749e-06
7.23746e-06
7.23744e-06
7.23741e-06
7.23738e-06
7.23735e-06
7.23732e-06
7.23728e-06
7.23724e-06
7.2372e-06
7.23716e-06
7.23711e-06
7.23707e-06
7.23703e-06
7.23698e-06
7.23694e-06
7.23689e-06
7.23685e-06
7.23682e-06
7.23678e-06
7.23676e-06
7.23673e-06
7.23672e-06
7.23671e-06
7.23671e-06
7.23675e-06
7.23667e-06
7.237e-06
7.23579e-06
7.23599e-06
7.23607e-06
7.23613e-06
7.23618e-06
7.23625e-06
7.23633e-06
7.23642e-06
7.23653e-06
7.23666e-06
7.2368e-06
7.23695e-06
7.23713e-06
7.23731e-06
7.23751e-06
7.23772e-06
7.23793e-06
7.23815e-06
7.23837e-06
7.23859e-06
7.23881e-06
7.23901e-06
7.23919e-06
7.23935e-06
7.23948e-06
7.23958e-06
7.23962e-06
7.23962e-06
7.23955e-06
7.23941e-06
7.23919e-06
7.23889e-06
7.23852e-06
)
;

boundaryField
{
    boundary
    {
        type            empty;
        value           nonuniform 0();
    }
    inlet
    {
        type            calculated;
        value           uniform -6.92986e-06;
    }
    outlet
    {
        type            calculated;
        value           uniform 7.2381e-06;
    }
}


// ************************************************************************* //
