/*--------------------------------*- C++ -*----------------------------------*\
  =========                 |
  \\      /  F ield         | OpenFOAM: The Open Source CFD Toolbox
   \\    /   O peration     | Website:  https://openfoam.org
    \\  /    A nd           | Version:  7
     \\/     M anipulation  |
\*---------------------------------------------------------------------------*/
FoamFile
{
    version     2.0;
    format      ascii;
    class       volScalarField;
    location    "0.00069";
    object      rho;
}
// * * * * * * * * * * * * * * * * * * * * * * * * * * * * * * * * * * * * * //

dimensions      [1 -3 0 0 0 0 0];

internalField   nonuniform List<scalar> 
500
(
0.864645
0.864655
0.864669
0.864685
0.864703
0.864722
0.864741
0.864759
0.864775
0.864788
0.864799
0.864806
0.86481
0.864812
0.86481
0.864805
0.864799
0.864789
0.864778
0.864766
0.864751
0.864734
0.864715
0.864694
0.864671
0.864644
0.864614
0.864579
0.86454
0.864496
0.864445
0.864388
0.864324
0.864252
0.864172
0.864083
0.863985
0.863878
0.863762
0.863638
0.863505
0.863365
0.863219
0.863066
0.862909
0.862749
0.862587
0.862424
0.862262
0.862102
0.861946
0.861794
0.861649
0.86151
0.861379
0.861257
0.861143
0.861039
0.860943
0.860857
0.860779
0.86071
0.860649
0.860595
0.860549
0.860509
0.860475
0.860446
0.860422
0.860401
0.860384
0.860371
0.860359
0.86035
0.860343
0.860337
0.860333
0.860329
0.860326
0.860324
0.860322
0.860321
0.86032
0.860319
0.860319
0.860318
0.860318
0.860318
0.860317
0.860317
0.860317
0.860317
0.860317
0.860317
0.860317
0.860317
0.860316
0.860316
0.860316
0.860316
0.860316
0.860316
0.860316
0.860316
0.860316
0.860316
0.860315
0.860315
0.860315
0.860315
0.860315
0.860315
0.860314
0.860314
0.860314
0.860314
0.860314
0.860313
0.860313
0.860313
0.860313
0.860312
0.860312
0.860312
0.860311
0.86031
0.860309
0.860308
0.860308
0.860307
0.860307
0.860307
0.860307
0.860307
0.860307
0.860307
0.860306
0.860306
0.860306
0.860306
0.860306
0.860305
0.860305
0.860305
0.860304
0.860304
0.860303
0.860303
0.860302
0.860302
0.860301
0.8603
0.8603
0.860299
0.860299
0.860298
0.860298
0.860297
0.860297
0.860296
0.860295
0.860295
0.860294
0.860294
0.860293
0.860292
0.860292
0.860291
0.86029
0.86029
0.860289
0.860288
0.860288
0.860287
0.860286
0.860286
0.860285
0.860285
0.860284
0.860283
0.860283
0.860282
0.860281
0.860281
0.86028
0.86028
0.860279
0.860279
0.860278
0.860278
0.860277
0.860277
0.860277
0.860276
0.860276
0.860276
0.860276
0.860276
0.860275
0.860275
0.860275
0.860276
0.860276
0.860276
0.860276
0.860276
0.860277
0.860277
0.860278
0.860278
0.860279
0.86028
0.860281
0.860282
0.860283
0.860284
0.860285
0.860287
0.860288
0.86029
0.860291
0.860293
0.860295
0.860297
0.860299
0.860301
0.860304
0.860306
0.860309
0.860312
0.860315
0.860318
0.860321
0.860324
0.860328
0.860332
0.860335
0.860339
0.860344
0.860348
0.860352
0.860357
0.860362
0.860367
0.860372
0.860377
0.860383
0.860388
0.860394
0.8604
0.860405
0.860411
0.860417
0.860424
0.86043
0.860437
0.860444
0.860451
0.860458
0.860466
0.860474
0.860482
0.86049
0.860499
0.860507
0.860516
0.860525
0.860531
0.860524
0.860475
0.860288
0.859677
0.857793
0.852183
0.836105
0.793634
0.70248
0.569724
0.445572
0.358831
0.302412
0.264029
0.236783
0.21754
0.203549
0.193038
0.185515
0.179931
0.175509
0.171917
0.168929
0.166393
0.164206
0.162293
0.160601
0.15909
0.15773
0.156498
0.155375
0.154345
0.153397
0.15252
0.151706
0.150948
0.15024
0.149576
0.148953
0.148366
0.147813
0.147289
0.146795
0.146326
0.145895
0.145491
0.145102
0.144729
0.144371
0.144026
0.143693
0.143373
0.143063
0.142765
0.142476
0.142197
0.141926
0.141665
0.141411
0.141165
0.140926
0.140695
0.140469
0.14025
0.140038
0.13983
0.139629
0.139432
0.139241
0.139054
0.138872
0.138694
0.138521
0.138351
0.138186
0.138024
0.137866
0.137712
0.13756
0.137412
0.137267
0.137126
0.136987
0.136851
0.136717
0.136586
0.136458
0.136333
0.136209
0.136088
0.135969
0.135853
0.135738
0.135626
0.135516
0.135407
0.135301
0.135196
0.135093
0.134992
0.134892
0.134794
0.134698
0.134603
0.13451
0.134418
0.134328
0.134239
0.134152
0.134066
0.133981
0.133897
0.133814
0.133733
0.133653
0.133574
0.133496
0.133419
0.133343
0.133268
0.133194
0.133122
0.13305
0.132979
0.132909
0.13284
0.132772
0.132704
0.132638
0.132572
0.132507
0.132443
0.13238
0.132317
0.132256
0.132194
0.132134
0.132075
0.132016
0.131957
0.1319
0.131843
0.131787
0.131731
0.131676
0.131621
0.131568
0.131514
0.131462
0.13141
0.131358
0.131307
0.131257
0.131207
0.131157
0.131108
0.13106
0.131012
0.130965
0.130918
0.130871
0.130825
0.130779
0.130734
0.130689
0.130645
0.130601
0.130557
0.130514
0.130471
0.130429
0.130387
0.130345
0.130303
0.130262
0.130221
0.130181
0.130141
0.130101
0.130062
0.130022
0.129984
0.129945
0.129907
0.129869
0.129832
0.129795
0.129758
0.129722
0.129686
0.12965
0.129615
0.12958
0.129546
0.129512
0.129479
0.129446
0.129411
0.129377
0.129334
0.129303
0.129272
0.129242
0.129212
0.129182
0.129153
0.129125
0.129097
0.129069
0.129042
0.129016
0.12899
0.128964
0.128939
0.128915
0.12889
0.128866
0.128842
0.128817
0.128793
0.128769
0.128744
0.12872
0.128694
0.128668
0.128641
0.128614
0.128586
0.128557
0.128529
0.128505
0.128489
)
;

boundaryField
{
    boundary
    {
        type            empty;
    }
    inlet
    {
        type            calculated;
        value           uniform 0.864639;
    }
    outlet
    {
        type            calculated;
        value           uniform 0.128489;
    }
}


// ************************************************************************* //
