/*--------------------------------*- C++ -*----------------------------------*\
  =========                 |
  \\      /  F ield         | OpenFOAM: The Open Source CFD Toolbox
   \\    /   O peration     | Website:  https://openfoam.org
    \\  /    A nd           | Version:  7
     \\/     M anipulation  |
\*---------------------------------------------------------------------------*/
FoamFile
{
    version     2.0;
    format      ascii;
    class       volScalarField;
    location    "0.00098";
    object      OH;
}
// * * * * * * * * * * * * * * * * * * * * * * * * * * * * * * * * * * * * * //

dimensions      [0 0 0 0 0 0 0];

internalField   nonuniform List<scalar> 
126
(
6.94017e-47
6.94029e-47
6.9404e-47
6.9405e-47
6.94062e-47
6.94075e-47
6.94091e-47
6.94109e-47
6.9413e-47
6.94152e-47
6.94177e-47
6.94204e-47
6.94232e-47
6.94263e-47
6.94295e-47
6.94329e-47
6.94365e-47
6.94402e-47
6.9444e-47
6.94479e-47
6.94518e-47
6.94557e-47
6.94595e-47
6.94633e-47
6.94669e-47
6.94704e-47
6.94738e-47
6.94771e-47
6.94803e-47
6.94835e-47
6.94865e-47
6.94896e-47
6.94927e-47
6.94959e-47
6.94991e-47
6.95025e-47
6.9506e-47
6.95097e-47
6.95136e-47
6.95176e-47
6.95218e-47
6.95262e-47
6.95307e-47
6.95354e-47
6.95402e-47
6.95452e-47
6.95502e-47
6.95553e-47
6.95605e-47
6.95658e-47
6.95711e-47
6.95765e-47
6.95819e-47
6.95873e-47
6.95928e-47
6.95983e-47
6.96039e-47
6.96094e-47
6.96151e-47
6.96207e-47
6.96264e-47
6.96322e-47
6.9638e-47
6.96438e-47
6.965e-47
6.96568e-47
6.96659e-47
6.96827e-47
6.9725e-47
6.98521e-47
7.02595e-47
7.15906e-47
7.59533e-47
9.02255e-47
1.36767e-46
2.87996e-46
7.77629e-46
2.35733e-45
7.43646e-45
2.37131e-44
7.57077e-44
2.41292e-43
7.67076e-43
2.43195e-42
7.68971e-42
2.42522e-41
7.63015e-41
2.39506e-40
7.50173e-40
2.34492e-39
7.31604e-39
2.27858e-38
7.08512e-38
2.1998e-37
6.82059e-37
2.1121e-36
6.53296e-36
2.01859e-35
6.23119e-35
1.92183e-34
5.92256e-34
1.82383e-33
5.61262e-33
1.72613e-32
5.30547e-32
1.62981e-31
5.00409e-31
1.53571e-30
4.71091e-30
1.44458e-29
4.42851e-29
1.35739e-28
4.16063e-28
1.27567e-27
3.91388e-27
1.2023e-26
3.7009e-26
1.14288e-25
3.54668e-25
1.10863e-24
3.50171e-24
1.12236e-23
3.66948e-23
1.2311e-22
4.26404e-22
1.53241e-21
)
;

boundaryField
{
    boundary
    {
        type            empty;
    }
    inlet
    {
        type            fixedValue;
        value           nonuniform 0();
    }
    outlet
    {
        type            zeroGradient;
    }
    procBoundary3to1
    {
        type            processor;
        value           uniform 5.7627e-21;
    }
    procBoundary3to2
    {
        type            processor;
        value           uniform 6.94055e-47;
    }
}


// ************************************************************************* //
