/*--------------------------------*- C++ -*----------------------------------*\
  =========                 |
  \\      /  F ield         | OpenFOAM: The Open Source CFD Toolbox
   \\    /   O peration     | Website:  https://openfoam.org
    \\  /    A nd           | Version:  7
     \\/     M anipulation  |
\*---------------------------------------------------------------------------*/
FoamFile
{
    version     2.0;
    format      ascii;
    class       volScalarField;
    location    "0.00042";
    object      H;
}
// * * * * * * * * * * * * * * * * * * * * * * * * * * * * * * * * * * * * * //

dimensions      [0 0 0 0 0 0 0];

internalField   nonuniform List<scalar> 
500
(
1.48739e-41
2.01705e-41
2.13369e-41
2.16127e-41
2.16974e-41
2.17426e-41
2.17823e-41
2.18248e-41
2.18734e-41
2.19302e-41
2.19977e-41
2.20783e-41
2.21753e-41
2.22918e-41
2.24315e-41
2.25983e-41
2.27959e-41
2.30282e-41
2.32985e-41
2.36098e-41
2.39642e-41
2.43628e-41
2.48058e-41
2.52916e-41
2.58175e-41
2.63792e-41
2.69707e-41
2.7585e-41
2.82137e-41
2.88478e-41
2.94777e-41
3.0094e-41
3.06879e-41
3.12512e-41
3.17774e-41
3.22612e-41
3.26993e-41
3.30898e-41
3.34327e-41
3.37293e-41
3.3982e-41
3.41942e-41
3.43699e-41
3.45134e-41
3.46289e-41
3.47206e-41
3.47925e-41
3.48482e-41
3.48907e-41
3.49228e-41
3.49468e-41
3.49644e-41
3.49772e-41
3.49865e-41
3.49931e-41
3.49977e-41
3.5001e-41
3.50033e-41
3.50048e-41
3.50059e-41
3.50067e-41
3.50072e-41
3.50076e-41
3.50079e-41
3.50081e-41
3.50083e-41
3.50085e-41
3.50087e-41
3.50088e-41
3.5009e-41
3.50092e-41
3.50094e-41
3.50096e-41
3.50098e-41
3.50101e-41
3.50103e-41
3.50106e-41
3.50109e-41
3.50112e-41
3.50115e-41
3.50119e-41
3.50123e-41
3.50126e-41
3.5013e-41
3.50135e-41
3.50139e-41
3.50144e-41
3.50149e-41
3.50154e-41
3.5016e-41
3.50165e-41
3.50171e-41
3.50178e-41
3.50184e-41
3.50191e-41
3.50198e-41
3.50206e-41
3.50214e-41
3.50222e-41
3.5023e-41
3.50239e-41
3.50248e-41
3.50258e-41
3.50267e-41
3.50278e-41
3.50288e-41
3.50299e-41
3.5031e-41
3.50322e-41
3.50334e-41
3.50346e-41
3.50359e-41
3.50373e-41
3.50386e-41
3.504e-41
3.50415e-41
3.5043e-41
3.50445e-41
3.50461e-41
3.50477e-41
3.50493e-41
3.5051e-41
3.50528e-41
3.50547e-41
3.5057e-41
3.50595e-41
3.5061e-41
3.50626e-41
3.50643e-41
3.5066e-41
3.50679e-41
3.50699e-41
3.50719e-41
3.5074e-41
3.50761e-41
3.50782e-41
3.50803e-41
3.50825e-41
3.50846e-41
3.50868e-41
3.50889e-41
3.50911e-41
3.50932e-41
3.50954e-41
3.50977e-41
3.50999e-41
3.51022e-41
3.51045e-41
3.51069e-41
3.51094e-41
3.51119e-41
3.51144e-41
3.5117e-41
3.51196e-41
3.51223e-41
3.5125e-41
3.51277e-41
3.51304e-41
3.51331e-41
3.51357e-41
3.51383e-41
3.51409e-41
3.51434e-41
3.51458e-41
3.51481e-41
3.51504e-41
3.51525e-41
3.51546e-41
3.51565e-41
3.51583e-41
3.51601e-41
3.51617e-41
3.51631e-41
3.51645e-41
3.51657e-41
3.51667e-41
3.51676e-41
3.51684e-41
3.51689e-41
3.51693e-41
3.51695e-41
3.51695e-41
3.51693e-41
3.51689e-41
3.51682e-41
3.51673e-41
3.51662e-41
3.51647e-41
3.51631e-41
3.51611e-41
3.51588e-41
3.51562e-41
3.51533e-41
3.51501e-41
3.51465e-41
3.51426e-41
3.51383e-41
3.51336e-41
3.51285e-41
3.5123e-41
3.51171e-41
3.51107e-41
3.51039e-41
3.50967e-41
3.50889e-41
3.50807e-41
3.50721e-41
3.50629e-41
3.50531e-41
3.50429e-41
3.50321e-41
3.50208e-41
3.5009e-41
3.49965e-41
3.49837e-41
3.49706e-41
3.49586e-41
3.49535e-41
3.49802e-41
3.51466e-41
3.59115e-41
3.9211e-41
5.31303e-41
1.1109e-40
3.49832e-40
1.32309e-39
5.25018e-39
2.09337e-38
8.29264e-38
3.25448e-37
1.26446e-36
4.86281e-36
1.85105e-35
6.97443e-35
2.60127e-34
9.60483e-34
3.51138e-33
1.27124e-32
4.5587e-32
1.61977e-31
5.70472e-31
1.99254e-30
6.90635e-30
2.37747e-29
8.13683e-29
2.7724e-28
9.42091e-28
3.20065e-27
1.09095e-26
3.74902e-26
1.30745e-25
4.64708e-25
1.6917e-24
6.32808e-24
2.44151e-23
9.72264e-23
3.98929e-22
1.68068e-21
7.23919e-21
3.17437e-20
1.41194e-19
6.3538e-19
2.88863e-18
1.32664e-17
6.16345e-17
2.9056e-16
1.3968e-15
6.89349e-15
3.5204e-14
1.87465e-13
1.08387e-12
7.45555e-12
6.55375e-11
6.22584e-10
5.81412e-09
5.42957e-08
4.88824e-07
3.94369e-06
2.51467e-05
0.000107384
0.000287217
0.000557295
0.00089583
0.00125814
0.00157381
0.00178973
0.00190184
0.00192681
0.00189861
0.00184097
0.00176958
0.0016938
0.00161879
0.00154718
0.0014801
0.00141789
0.00136046
0.00130752
0.00125869
0.00121358
0.00117183
0.00113308
0.00109703
0.00106341
0.00103197
0.00100251
0.000974834
0.000948783
0.000924214
0.000901
0.00087903
0.000858203
0.000839012
0.000821154
0.000804036
0.000787611
0.000771837
0.000756676
0.000742091
0.000728049
0.000714518
0.000701471
0.00068888
0.000676722
0.000664973
0.000653613
0.000642622
0.000631982
0.000621676
0.000611687
0.000602001
0.000592604
0.000583483
0.000574625
0.00056602
0.000557655
0.000549522
0.00054161
0.00053391
0.000526414
0.000519114
0.000512002
0.00050507
0.000498312
0.000491722
0.000485294
0.00047902
0.000472897
0.000466919
0.00046108
0.000455376
0.000449803
0.000444357
0.000439032
0.000433827
0.000428735
0.000423756
0.000418884
0.000414117
0.000409452
0.000404887
0.000400418
0.000396043
0.000391759
0.000387566
0.00038346
0.000379439
0.000375503
0.000371649
0.000367875
0.00036418
0.000360563
0.000357022
0.000353555
0.00035016
0.000346832
0.000343546
0.000340316
0.000337143
0.000334028
0.000330969
0.000327967
0.000325021
0.00032213
0.000319291
0.000316506
0.000313771
0.000311086
0.00030845
0.000305862
0.000303321
0.000300825
0.000298373
0.000295964
0.000293597
0.000291271
0.000288984
0.000286735
0.000284524
0.000282348
0.000280207
0.000278098
0.000276021
0.000273975
0.000271957
0.000269967
0.000268002
0.000266061
0.000264143
0.000262246
0.000260369
0.000258509
0.000256665
0.000254836
0.000253019
0.000251213
0.000249416
0.000247627
0.000245843
0.000244063
0.000242285
0.000240508
0.00023873
0.000236949
0.000235163
0.000233372
0.000231573
0.000229766
0.000227948
0.00022612
0.000224278
0.000222424
0.000220554
0.00021867
0.000216769
0.000214852
0.000212917
0.000210964
0.000208994
0.000207005
0.000204998
0.000202972
0.000200928
0.000198866
0.000196786
0.000194689
0.000192574
0.000190444
0.000188297
0.000186135
0.000183959
0.00018177
0.000179568
0.000177355
0.000175131
0.000172897
0.000170656
0.000168407
0.000166153
0.000163895
0.000161634
0.000159371
0.000157109
0.000154848
0.000152591
0.00015034
0.000148095
0.00014586
0.000143635
0.000141423
0.000139226
0.000137046
0.000134885
0.000132745
0.000130629
0.000128537
0.000126474
0.000124439
0.000122436
0.000120467
0.000118534
0.000116638
0.000114782
0.000112968
0.000111197
0.000109471
0.000107793
0.000106165
0.000104589
0.000103067
0.000101604
0.000100204
9.88729e-05
9.76187e-05
9.64527e-05
9.53903e-05
9.44531e-05
9.36716e-05
9.30879e-05
9.27593e-05
)
;

boundaryField
{
    boundary
    {
        type            empty;
    }
    inlet
    {
        type            fixedValue;
        value           uniform 0;
    }
    outlet
    {
        type            zeroGradient;
    }
}


// ************************************************************************* //
