/*--------------------------------*- C++ -*----------------------------------*\
  =========                 |
  \\      /  F ield         | OpenFOAM: The Open Source CFD Toolbox
   \\    /   O peration     | Website:  https://openfoam.org
    \\  /    A nd           | Version:  7
     \\/     M anipulation  |
\*---------------------------------------------------------------------------*/
FoamFile
{
    version     2.0;
    format      ascii;
    class       volScalarField;
    location    "0.00042";
    object      H2O;
}
// * * * * * * * * * * * * * * * * * * * * * * * * * * * * * * * * * * * * * //

dimensions      [0 0 0 0 0 0 0];

internalField   nonuniform List<scalar> 
500
(
7.90502e-48
2.28597e-47
4.11603e-47
6.17455e-47
8.39058e-47
1.07174e-46
1.31251e-46
1.55953e-46
1.8118e-46
2.06893e-46
2.33102e-46
2.59857e-46
2.87239e-46
3.15355e-46
3.44332e-46
3.7431e-46
4.05431e-46
4.3783e-46
4.7162e-46
5.06882e-46
5.43648e-46
5.81887e-46
6.21499e-46
6.62307e-46
7.04054e-46
7.46407e-46
7.88971e-46
8.31298e-46
8.72914e-46
9.13336e-46
9.52102e-46
9.88789e-46
1.02304e-45
1.05457e-45
1.08318e-45
1.10878e-45
1.13135e-45
1.15097e-45
1.16777e-45
1.18195e-45
1.19375e-45
1.20343e-45
1.21126e-45
1.2175e-45
1.22241e-45
1.22621e-45
1.22913e-45
1.23133e-45
1.23297e-45
1.23418e-45
1.23505e-45
1.23568e-45
1.23613e-45
1.23644e-45
1.23666e-45
1.2368e-45
1.23691e-45
1.23697e-45
1.23702e-45
1.23705e-45
1.23707e-45
1.23708e-45
1.23709e-45
1.2371e-45
1.23711e-45
1.23711e-45
1.23712e-45
1.23712e-45
1.23713e-45
1.23713e-45
1.23714e-45
1.23715e-45
1.23715e-45
1.23716e-45
1.23717e-45
1.23718e-45
1.23719e-45
1.2372e-45
1.23721e-45
1.23722e-45
1.23724e-45
1.23725e-45
1.23726e-45
1.23728e-45
1.23729e-45
1.23731e-45
1.23733e-45
1.23735e-45
1.23737e-45
1.23739e-45
1.23741e-45
1.23744e-45
1.23746e-45
1.23749e-45
1.23751e-45
1.23754e-45
1.23757e-45
1.2376e-45
1.23764e-45
1.23767e-45
1.2377e-45
1.23774e-45
1.23778e-45
1.23782e-45
1.23786e-45
1.2379e-45
1.23795e-45
1.23799e-45
1.23804e-45
1.23809e-45
1.23814e-45
1.23819e-45
1.23825e-45
1.2383e-45
1.23836e-45
1.23842e-45
1.23848e-45
1.23854e-45
1.23861e-45
1.23868e-45
1.23874e-45
1.23879e-45
1.23877e-45
1.23844e-45
1.23688e-45
1.23394e-45
1.23458e-45
1.2354e-45
1.23635e-45
1.23733e-45
1.23825e-45
1.23902e-45
1.23962e-45
1.24005e-45
1.24032e-45
1.24046e-45
1.24052e-45
1.2405e-45
1.24043e-45
1.24032e-45
1.24019e-45
1.24004e-45
1.23988e-45
1.23972e-45
1.23957e-45
1.23944e-45
1.23934e-45
1.23927e-45
1.23926e-45
1.23928e-45
1.23936e-45
1.23949e-45
1.23965e-45
1.23986e-45
1.2401e-45
1.24035e-45
1.24063e-45
1.2409e-45
1.24118e-45
1.24145e-45
1.2417e-45
1.24194e-45
1.24216e-45
1.24236e-45
1.24254e-45
1.24271e-45
1.24285e-45
1.24298e-45
1.2431e-45
1.2432e-45
1.24329e-45
1.24337e-45
1.24344e-45
1.24351e-45
1.24356e-45
1.2436e-45
1.24364e-45
1.24367e-45
1.24369e-45
1.2437e-45
1.2437e-45
1.2437e-45
1.24368e-45
1.24366e-45
1.24363e-45
1.24358e-45
1.24352e-45
1.24346e-45
1.24338e-45
1.24328e-45
1.24318e-45
1.24306e-45
1.24293e-45
1.24278e-45
1.24261e-45
1.24244e-45
1.24224e-45
1.24203e-45
1.2418e-45
1.24155e-45
1.24128e-45
1.241e-45
1.24069e-45
1.24037e-45
1.24003e-45
1.2397e-45
1.23952e-45
1.24012e-45
1.24471e-45
1.26888e-45
1.38826e-45
1.96628e-45
4.7367e-45
1.79118e-44
8.01409e-44
3.72308e-43
1.73724e-42
8.09031e-42
3.75989e-41
1.74637e-40
8.12351e-40
3.79331e-39
1.78245e-38
8.44751e-38
4.04526e-37
1.95952e-36
9.60333e-36
4.75793e-35
2.37917e-34
1.19801e-33
6.05889e-33
3.06953e-32
1.55383e-31
7.84186e-31
3.93805e-30
1.96471e-29
9.72551e-29
4.77167e-28
2.31856e-27
1.11501e-26
5.30451e-26
2.49562e-25
1.16094e-24
5.3399e-24
2.429e-23
1.09304e-22
4.86793e-22
2.14669e-21
9.37786e-21
4.05988e-20
1.7423e-19
7.50279e-19
3.18038e-18
1.33209e-17
5.53398e-17
2.28315e-16
9.36146e-16
3.81718e-15
1.5488e-14
6.2569e-14
2.51812e-13
1.01013e-12
4.04081e-12
1.61266e-11
6.42345e-11
2.55444e-10
1.0145e-09
4.02486e-09
1.59544e-08
6.31992e-08
2.50201e-07
9.89944e-07
3.9137e-06
1.54479e-05
6.07224e-05
0.000235921
0.000887226
0.00306887
0.00890833
0.0201218
0.0357386
0.0547992
0.0777355
0.103558
0.128643
0.149218
0.166565
0.177385
0.184664
0.189574
0.192961
0.195388
0.197212
0.198652
0.199845
0.200872
0.201785
0.202616
0.203384
0.204103
0.204782
0.205426
0.206041
0.206629
0.207192
0.207734
0.208255
0.208757
0.209241
0.209708
0.210158
0.210593
0.210999
0.211387
0.211764
0.212132
0.21249
0.21284
0.21318
0.213513
0.213837
0.214155
0.214465
0.214768
0.215064
0.215354
0.215638
0.215916
0.216189
0.216456
0.216718
0.216974
0.217227
0.217474
0.217717
0.217955
0.21819
0.21842
0.218646
0.218869
0.219088
0.219303
0.219515
0.219724
0.219929
0.220132
0.220331
0.220527
0.220721
0.220911
0.221099
0.221285
0.221467
0.221648
0.221826
0.222001
0.222175
0.222346
0.222515
0.222682
0.222847
0.223011
0.223172
0.223332
0.22349
0.223647
0.223802
0.223956
0.224109
0.22426
0.224411
0.224561
0.22471
0.22486
0.225011
0.225163
0.225314
0.22546
0.225606
0.225751
0.225896
0.226041
0.226186
0.226331
0.226476
0.226621
0.226766
0.226912
0.227059
0.227206
0.227354
0.227503
0.227653
0.227804
0.227956
0.228109
0.228264
0.22842
0.228578
0.228738
0.228899
0.229063
0.229228
0.229395
0.229564
0.229735
0.229907
0.230082
0.230259
0.230437
0.230617
0.230798
0.230981
0.231165
0.231351
0.231537
0.231724
0.231911
0.232099
0.232287
0.232475
0.232663
0.23285
0.233036
0.233221
0.233405
0.233587
0.233768
0.233947
0.234124
0.234298
0.23447
0.23464
0.234807
0.234971
0.235132
0.235291
0.235446
0.235598
0.235747
0.235893
0.236036
0.236176
0.236313
0.236447
0.236578
0.236706
0.236832
0.236954
0.237074
0.237191
0.237306
0.237418
0.237527
0.237635
0.23774
0.237842
0.237942
0.23804
0.238136
0.238229
0.23832
0.238409
0.238495
0.23858
0.238661
0.238741
0.238818
0.238893
0.238965
0.239034
0.239102
0.239166
0.239228
0.239287
0.239344
0.239398
0.23945
0.239499
0.239545
0.239588
0.23963
0.239668
0.239704
0.239738
0.239769
0.239798
0.239825
0.23985
0.239872
0.239893
0.239911
0.239928
0.239942
0.239955
0.239966
0.239974
0.239981
0.239985
0.239987
)
;

boundaryField
{
    boundary
    {
        type            empty;
    }
    inlet
    {
        type            fixedValue;
        value           uniform 0;
    }
    outlet
    {
        type            zeroGradient;
    }
}


// ************************************************************************* //
