/*--------------------------------*- C++ -*----------------------------------*\
  =========                 |
  \\      /  F ield         | OpenFOAM: The Open Source CFD Toolbox
   \\    /   O peration     | Website:  https://openfoam.org
    \\  /    A nd           | Version:  7
     \\/     M anipulation  |
\*---------------------------------------------------------------------------*/
FoamFile
{
    version     2.0;
    format      ascii;
    class       volScalarField;
    location    "0.00042";
    object      H2O2;
}
// * * * * * * * * * * * * * * * * * * * * * * * * * * * * * * * * * * * * * //

dimensions      [0 0 0 0 0 0 0];

internalField   nonuniform List<scalar> 
500
(
1.99986e-52
6.43068e-52
1.27967e-51
2.1108e-51
3.13776e-51
4.36238e-51
5.78718e-51
7.41559e-51
9.25226e-51
1.13033e-50
1.35765e-50
1.60818e-50
1.88309e-50
2.18375e-50
2.5117e-50
2.86854e-50
3.25585e-50
3.67506e-50
4.12722e-50
4.61285e-50
5.1317e-50
5.68257e-50
6.26311e-50
6.86973e-50
7.49759e-50
8.1406e-50
8.79166e-50
9.44284e-50
1.00858e-49
1.07121e-49
1.13137e-49
1.18833e-49
1.24147e-49
1.29031e-49
1.33453e-49
1.37394e-49
1.40855e-49
1.43848e-49
1.46396e-49
1.48533e-49
1.503e-49
1.51737e-49
1.52891e-49
1.53803e-49
1.54514e-49
1.5506e-49
1.55474e-49
1.55784e-49
1.56012e-49
1.56178e-49
1.56298e-49
1.56383e-49
1.56442e-49
1.56484e-49
1.56512e-49
1.56531e-49
1.56544e-49
1.56553e-49
1.56558e-49
1.56562e-49
1.56565e-49
1.56567e-49
1.56568e-49
1.56569e-49
1.5657e-49
1.56571e-49
1.56571e-49
1.56572e-49
1.56573e-49
1.56574e-49
1.56574e-49
1.56575e-49
1.56576e-49
1.56578e-49
1.56579e-49
1.5658e-49
1.56581e-49
1.56583e-49
1.56584e-49
1.56586e-49
1.56588e-49
1.5659e-49
1.56592e-49
1.56594e-49
1.56596e-49
1.56599e-49
1.56601e-49
1.56604e-49
1.56607e-49
1.5661e-49
1.56613e-49
1.56616e-49
1.5662e-49
1.56623e-49
1.56627e-49
1.56631e-49
1.56635e-49
1.5664e-49
1.56644e-49
1.56649e-49
1.56654e-49
1.56659e-49
1.56664e-49
1.5667e-49
1.56676e-49
1.56682e-49
1.56688e-49
1.56694e-49
1.56701e-49
1.56708e-49
1.56715e-49
1.56722e-49
1.5673e-49
1.56738e-49
1.56746e-49
1.56754e-49
1.56763e-49
1.56771e-49
1.5678e-49
1.56789e-49
1.56798e-49
1.56802e-49
1.56791e-49
1.56709e-49
1.56341e-49
1.5561e-49
1.55679e-49
1.55776e-49
1.55902e-49
1.56054e-49
1.56219e-49
1.56383e-49
1.56532e-49
1.56652e-49
1.56738e-49
1.56786e-49
1.56799e-49
1.56783e-49
1.56746e-49
1.56694e-49
1.56635e-49
1.56575e-49
1.56518e-49
1.56469e-49
1.56431e-49
1.56405e-49
1.56394e-49
1.56396e-49
1.56413e-49
1.56443e-49
1.56486e-49
1.56538e-49
1.56598e-49
1.56664e-49
1.56734e-49
1.56805e-49
1.56876e-49
1.56945e-49
1.57011e-49
1.57072e-49
1.57129e-49
1.57179e-49
1.57225e-49
1.57265e-49
1.573e-49
1.5733e-49
1.57357e-49
1.57379e-49
1.57399e-49
1.57416e-49
1.5743e-49
1.57443e-49
1.57454e-49
1.57463e-49
1.57471e-49
1.57478e-49
1.57483e-49
1.57488e-49
1.57491e-49
1.57493e-49
1.57494e-49
1.57493e-49
1.57491e-49
1.57488e-49
1.57484e-49
1.57478e-49
1.5747e-49
1.57461e-49
1.5745e-49
1.57438e-49
1.57424e-49
1.57407e-49
1.57389e-49
1.57369e-49
1.57347e-49
1.57322e-49
1.57295e-49
1.57266e-49
1.57235e-49
1.57201e-49
1.57164e-49
1.57125e-49
1.57083e-49
1.57038e-49
1.5699e-49
1.5694e-49
1.56886e-49
1.5683e-49
1.56776e-49
1.5676e-49
1.57031e-49
1.59402e-49
1.76794e-49
3.00416e-49
1.16767e-48
7.18684e-48
4.85287e-47
3.29505e-46
2.2189e-45
1.47876e-44
9.74889e-44
6.3567e-43
4.09886e-42
2.61328e-41
1.64717e-40
1.02626e-39
6.31938e-39
3.84529e-38
2.31182e-37
1.37304e-36
8.05477e-36
4.66656e-35
2.66962e-34
1.50783e-33
8.40717e-33
4.62692e-32
2.5133e-31
1.34738e-30
7.12917e-30
3.72327e-29
1.91962e-28
9.77261e-28
4.91404e-27
2.44143e-26
1.19889e-25
5.82088e-25
2.79521e-24
1.32796e-23
6.24362e-23
2.90613e-22
1.33965e-21
6.19207e-21
2.81506e-20
1.26453e-19
5.63434e-19
2.49344e-18
1.09686e-17
4.79966e-17
2.09055e-16
9.06936e-16
3.92111e-15
1.6904e-14
7.26981e-14
3.12029e-13
1.33711e-12
5.72241e-12
2.44654e-11
1.04518e-10
4.46252e-10
1.90453e-09
8.12561e-09
3.46544e-08
1.47653e-07
6.26937e-07
2.62807e-06
1.0526e-05
3.64103e-05
8.62072e-05
0.000120577
0.000115028
6.91493e-05
3.0403e-05
1.21731e-05
5.94571e-06
4.47481e-06
4.62166e-06
5.28415e-06
5.88596e-06
6.33924e-06
6.62052e-06
6.75344e-06
6.77333e-06
6.71284e-06
6.59806e-06
6.44822e-06
6.27703e-06
6.09411e-06
5.906e-06
5.71716e-06
5.5306e-06
5.34828e-06
5.17144e-06
5.00086e-06
4.83693e-06
4.67986e-06
4.52965e-06
4.38622e-06
4.24941e-06
4.11901e-06
3.9948e-06
3.87655e-06
3.76411e-06
3.66051e-06
3.56311e-06
3.46968e-06
3.38005e-06
3.29402e-06
3.21141e-06
3.13207e-06
3.05583e-06
2.98255e-06
2.91207e-06
2.84427e-06
2.77901e-06
2.71617e-06
2.65562e-06
2.59727e-06
2.54101e-06
2.48673e-06
2.43434e-06
2.38376e-06
2.3349e-06
2.28768e-06
2.24203e-06
2.19788e-06
2.15515e-06
2.1138e-06
2.07375e-06
2.03495e-06
1.99735e-06
1.9609e-06
1.92555e-06
1.89125e-06
1.85796e-06
1.82564e-06
1.79425e-06
1.76375e-06
1.73412e-06
1.7053e-06
1.67728e-06
1.65003e-06
1.6235e-06
1.59769e-06
1.57255e-06
1.54807e-06
1.52422e-06
1.50098e-06
1.47833e-06
1.45624e-06
1.4347e-06
1.41368e-06
1.39318e-06
1.37317e-06
1.35363e-06
1.33455e-06
1.31592e-06
1.29771e-06
1.27992e-06
1.26253e-06
1.24552e-06
1.22888e-06
1.21259e-06
1.19663e-06
1.18098e-06
1.16562e-06
1.15052e-06
1.13572e-06
1.12128e-06
1.10714e-06
1.09329e-06
1.07971e-06
1.06638e-06
1.05329e-06
1.04045e-06
1.02783e-06
1.01543e-06
1.00325e-06
9.91276e-07
9.79496e-07
9.67907e-07
9.56499e-07
9.45266e-07
9.34198e-07
9.23289e-07
9.12531e-07
9.01915e-07
8.91433e-07
8.81077e-07
8.70838e-07
8.60709e-07
8.50679e-07
8.40742e-07
8.30888e-07
8.21109e-07
8.11395e-07
8.01739e-07
7.92131e-07
7.82564e-07
7.7303e-07
7.63519e-07
7.54025e-07
7.4454e-07
7.35057e-07
7.25569e-07
7.16071e-07
7.06555e-07
6.97018e-07
6.87454e-07
6.77861e-07
6.68234e-07
6.58571e-07
6.48871e-07
6.39133e-07
6.29358e-07
6.19547e-07
6.09702e-07
5.99827e-07
5.89925e-07
5.80002e-07
5.70065e-07
5.60121e-07
5.50178e-07
5.40245e-07
5.30332e-07
5.2045e-07
5.10611e-07
5.00825e-07
4.91106e-07
4.81466e-07
4.71918e-07
4.62474e-07
4.53147e-07
4.4395e-07
4.34894e-07
4.25991e-07
4.17251e-07
4.08686e-07
4.00305e-07
3.92115e-07
3.84126e-07
3.76342e-07
3.68771e-07
3.61417e-07
3.54282e-07
3.47371e-07
3.40684e-07
3.34223e-07
3.27986e-07
3.21973e-07
3.16181e-07
3.10609e-07
3.05252e-07
3.00106e-07
2.95168e-07
2.90431e-07
2.8589e-07
2.81539e-07
2.77373e-07
2.73384e-07
2.69567e-07
2.65915e-07
2.62421e-07
2.59079e-07
2.55881e-07
2.52822e-07
2.49895e-07
2.47095e-07
2.44415e-07
2.41849e-07
2.39392e-07
2.37039e-07
2.34785e-07
2.32626e-07
2.30556e-07
2.28573e-07
2.26673e-07
2.24853e-07
2.2311e-07
2.21442e-07
2.1985e-07
2.18331e-07
2.16889e-07
2.15525e-07
2.14246e-07
2.13059e-07
2.11977e-07
2.11019e-07
2.10209e-07
2.09586e-07
2.09211e-07
)
;

boundaryField
{
    boundary
    {
        type            empty;
    }
    inlet
    {
        type            fixedValue;
        value           uniform 0;
    }
    outlet
    {
        type            zeroGradient;
    }
}


// ************************************************************************* //
