/*--------------------------------*- C++ -*----------------------------------*\
  =========                 |
  \\      /  F ield         | OpenFOAM: The Open Source CFD Toolbox
   \\    /   O peration     | Website:  https://openfoam.org
    \\  /    A nd           | Version:  7
     \\/     M anipulation  |
\*---------------------------------------------------------------------------*/
FoamFile
{
    version     2.0;
    format      ascii;
    class       volScalarField;
    location    "0.00042";
    object      N2;
}
// * * * * * * * * * * * * * * * * * * * * * * * * * * * * * * * * * * * * * //

dimensions      [0 0 0 0 0 0 0];

internalField   nonuniform List<scalar> 
500
(
0.745219
0.745219
0.745219
0.745219
0.745219
0.745219
0.745219
0.745219
0.745219
0.745219
0.745219
0.745219
0.745219
0.745219
0.745219
0.745219
0.745219
0.745219
0.745219
0.745219
0.745219
0.745219
0.745219
0.745219
0.745219
0.745219
0.745219
0.745219
0.74522
0.74522
0.74522
0.74522
0.74522
0.74522
0.74522
0.74522
0.74522
0.74522
0.74522
0.74522
0.74522
0.74522
0.74522
0.74522
0.74522
0.74522
0.74522
0.74522
0.74522
0.74522
0.74522
0.74522
0.74522
0.74522
0.74522
0.74522
0.74522
0.74522
0.74522
0.74522
0.74522
0.74522
0.74522
0.74522
0.74522
0.74522
0.74522
0.74522
0.74522
0.74522
0.74522
0.74522
0.74522
0.74522
0.74522
0.74522
0.74522
0.74522
0.74522
0.74522
0.74522
0.74522
0.74522
0.74522
0.74522
0.74522
0.74522
0.74522
0.74522
0.74522
0.74522
0.74522
0.74522
0.74522
0.74522
0.74522
0.74522
0.74522
0.74522
0.74522
0.74522
0.74522
0.74522
0.74522
0.74522
0.74522
0.74522
0.74522
0.74522
0.74522
0.74522
0.74522
0.74522
0.74522
0.74522
0.74522
0.74522
0.74522
0.74522
0.74522
0.74522
0.74522
0.74522
0.74522
0.74522
0.74522
0.74522
0.74522
0.74522
0.74522
0.74522
0.74522
0.74522
0.74522
0.74522
0.74522
0.74522
0.74522
0.74522
0.74522
0.74522
0.74522
0.74522
0.74522
0.74522
0.74522
0.74522
0.74522
0.74522
0.74522
0.74522
0.74522
0.74522
0.74522
0.74522
0.74522
0.74522
0.74522
0.74522
0.74522
0.74522
0.74522
0.74522
0.74522
0.74522
0.74522
0.74522
0.74522
0.74522
0.74522
0.74522
0.74522
0.74522
0.74522
0.74522
0.74522
0.74522
0.74522
0.74522
0.74522
0.74522
0.74522
0.74522
0.74522
0.74522
0.74522
0.74522
0.74522
0.74522
0.74522
0.74522
0.74522
0.74522
0.74522
0.74522
0.74522
0.74522
0.74522
0.74522
0.74522
0.74522
0.74522
0.74522
0.74522
0.74522
0.74522
0.74522
0.74522
0.74522
0.74522
0.74522
0.74522
0.74522
0.74522
0.74522
0.74522
0.74522
0.74522
0.74522
0.74522
0.74522
0.74522
0.74522
0.74522
0.74522
0.74522
0.74522
0.74522
0.74522
0.74522
0.74522
0.74522
0.74522
0.74522
0.74522
0.74522
0.74522
0.74522
0.74522
0.74522
0.74522
0.74522
0.74522
0.74522
0.74522
0.74522
0.74522
0.74522
0.74522
0.74522
0.74522
0.74522
0.74522
0.74522
0.74522
0.74522
0.74522
0.74522
0.74522
0.74522
0.74522
0.74522
0.74522
0.74522
0.74522
0.74522
0.74522
0.74522
0.745221
0.745223
0.745227
0.745235
0.745251
0.745282
0.745342
0.745442
0.74557
0.745624
0.745458
0.745106
0.744615
0.744049
0.743659
0.743645
0.743915
0.744163
0.744698
0.744936
0.745101
0.745206
0.74527
0.745307
0.745328
0.745337
0.745341
0.74534
0.745337
0.745334
0.74533
0.745325
0.745322
0.745318
0.745315
0.745312
0.74531
0.745308
0.745306
0.745305
0.745303
0.745302
0.745301
0.7453
0.745298
0.745297
0.745296
0.745294
0.745293
0.745292
0.74529
0.745289
0.745287
0.745286
0.745284
0.745283
0.745281
0.74528
0.745278
0.745277
0.745276
0.745274
0.745273
0.745272
0.745271
0.74527
0.745269
0.745268
0.745266
0.745265
0.745265
0.745264
0.745263
0.745262
0.745261
0.74526
0.745259
0.745258
0.745257
0.745257
0.745256
0.745255
0.745254
0.745253
0.745252
0.745251
0.74525
0.745249
0.745248
0.745247
0.745246
0.745245
0.745243
0.745242
0.745241
0.745239
0.745237
0.745236
0.745234
0.745232
0.745229
0.745227
0.745224
0.745221
0.745218
0.745214
0.74521
0.745205
0.745201
0.745197
0.745193
0.74519
0.745186
0.745182
0.745178
0.745174
0.74517
0.745167
0.745163
0.74516
0.745156
0.745153
0.74515
0.745147
0.745145
0.745142
0.745141
0.745139
0.745138
0.745137
0.745136
0.745136
0.745137
0.745137
0.745139
0.745141
0.745143
0.745146
0.74515
0.745154
0.745159
0.745165
0.745172
0.745179
0.745187
0.745196
0.745206
0.745217
0.745229
0.745242
0.745255
0.745269
0.745284
0.7453
0.745317
0.745333
0.745351
0.745368
0.745386
0.745404
0.745423
0.745441
0.745458
0.745476
0.745492
0.745509
0.745524
0.745538
0.745552
0.745564
0.745574
0.745583
0.745591
0.745597
0.745601
0.745604
0.745604
0.745603
0.745599
0.745594
0.745587
0.745577
0.745566
0.745554
0.745539
0.745523
0.745505
0.745486
0.745465
0.745444
0.745421
0.745398
0.745374
0.745349
0.745324
0.745299
0.745275
0.74525
0.745226
0.745202
0.745179
0.745157
0.745136
0.745115
0.745096
0.745079
0.745062
0.745047
0.745034
0.745022
0.745011
0.745002
0.744994
0.744988
0.744983
0.74498
0.744978
0.744977
0.744977
0.744979
0.744981
0.744985
0.744989
0.744993
0.744999
0.745004
0.74501
0.745015
0.74502
0.745024
0.745027
0.745028
)
;

boundaryField
{
    boundary
    {
        type            empty;
    }
    inlet
    {
        type            fixedValue;
        value           uniform 0.74522;
    }
    outlet
    {
        type            zeroGradient;
    }
}


// ************************************************************************* //
