/*--------------------------------*- C++ -*----------------------------------*\
  =========                 |
  \\      /  F ield         | OpenFOAM: The Open Source CFD Toolbox
   \\    /   O peration     | Website:  https://openfoam.org
    \\  /    A nd           | Version:  7
     \\/     M anipulation  |
\*---------------------------------------------------------------------------*/
FoamFile
{
    version     2.0;
    format      ascii;
    class       volScalarField;
    location    "0.00042";
    object      O2;
}
// * * * * * * * * * * * * * * * * * * * * * * * * * * * * * * * * * * * * * //

dimensions      [0 0 0 0 0 0 0];

internalField   nonuniform List<scalar> 
500
(
0.226269
0.226269
0.226269
0.226269
0.226269
0.226269
0.226269
0.226269
0.226269
0.226269
0.226269
0.226269
0.226269
0.226269
0.226269
0.226269
0.226269
0.226269
0.226269
0.226269
0.226269
0.226269
0.226269
0.226269
0.226269
0.226269
0.226269
0.226269
0.226269
0.226269
0.226269
0.226269
0.226269
0.226269
0.226269
0.226269
0.226269
0.226269
0.226269
0.226269
0.226269
0.226269
0.226269
0.226269
0.226269
0.226269
0.226269
0.226269
0.226269
0.226269
0.226269
0.226269
0.226269
0.226269
0.226269
0.226269
0.226269
0.226269
0.226269
0.226269
0.226269
0.226269
0.226269
0.226269
0.226269
0.226269
0.226269
0.226269
0.226269
0.226269
0.226269
0.226269
0.226269
0.226269
0.226269
0.226269
0.226269
0.226269
0.226269
0.226269
0.226269
0.226269
0.226269
0.226269
0.226269
0.226269
0.226269
0.226269
0.226269
0.226269
0.226269
0.226269
0.226269
0.226269
0.226269
0.226269
0.226269
0.226269
0.226269
0.226269
0.226269
0.226269
0.226269
0.226269
0.226269
0.226269
0.226269
0.226269
0.226269
0.226269
0.226269
0.226269
0.226269
0.226269
0.226269
0.226269
0.226269
0.226269
0.226269
0.226269
0.226269
0.226269
0.226269
0.226269
0.226269
0.226269
0.226269
0.226269
0.226269
0.226269
0.226269
0.226269
0.226269
0.226269
0.226269
0.226269
0.226269
0.226269
0.226269
0.226269
0.226269
0.226269
0.226269
0.226269
0.226269
0.226269
0.226269
0.226269
0.226269
0.226269
0.226269
0.226269
0.226269
0.226269
0.226269
0.226269
0.226269
0.226269
0.226269
0.226269
0.226269
0.226269
0.226269
0.226269
0.226269
0.226269
0.226269
0.226269
0.226269
0.226269
0.226269
0.226269
0.226269
0.226269
0.226269
0.226269
0.226269
0.226269
0.226269
0.226269
0.226269
0.226269
0.226269
0.226269
0.226269
0.226269
0.226269
0.226269
0.226269
0.226269
0.226269
0.226269
0.226269
0.226269
0.226269
0.226269
0.226269
0.226269
0.226269
0.226269
0.226269
0.226269
0.226269
0.226269
0.226269
0.226269
0.226269
0.226269
0.226269
0.226269
0.226269
0.226269
0.226269
0.226269
0.226269
0.226269
0.226269
0.226269
0.226269
0.226269
0.226269
0.226269
0.226269
0.226269
0.226269
0.226269
0.226269
0.226269
0.226269
0.226269
0.226269
0.226269
0.226269
0.226269
0.226269
0.226269
0.226269
0.226269
0.226269
0.226269
0.226269
0.226269
0.226269
0.226269
0.226269
0.226269
0.226269
0.226269
0.226269
0.226269
0.226269
0.226269
0.226269
0.226269
0.226269
0.226269
0.226269
0.226269
0.226269
0.226269
0.226269
0.226269
0.226269
0.226269
0.226269
0.226269
0.226269
0.226269
0.226269
0.22627
0.226271
0.226273
0.226277
0.226278
0.226258
0.226135
0.225605
0.22382
0.219099
0.209727
0.196571
0.17997
0.158716
0.133466
0.108065
0.0868232
0.068332
0.0567592
0.0489063
0.0436033
0.0399702
0.0374089
0.0355331
0.0340993
0.0329554
0.0320063
0.0311922
0.0304752
0.0298305
0.0292417
0.0286978
0.028191
0.0277156
0.0272675
0.0268435
0.0264411
0.0260583
0.0256934
0.0253451
0.0250123
0.024694
0.0243897
0.0241078
0.0238404
0.0235819
0.0233317
0.0230896
0.022855
0.0226276
0.0224069
0.0221926
0.0219845
0.0217821
0.0215853
0.0213936
0.0212069
0.0210249
0.0208474
0.0206742
0.0205051
0.02034
0.0201785
0.0200206
0.0198662
0.019715
0.019567
0.019422
0.0192799
0.0191406
0.0190041
0.0188701
0.0187386
0.0186095
0.0184828
0.0183583
0.0182359
0.0181157
0.0179975
0.0178812
0.0177669
0.0176543
0.0175436
0.0174345
0.0173271
0.0172213
0.017117
0.0170142
0.0169128
0.0168128
0.0167141
0.0166167
0.0165205
0.0164255
0.0163315
0.0162386
0.0161467
0.0160557
0.0159655
0.015876
0.0157872
0.0156988
0.0156108
0.0155229
0.0154349
0.0153462
0.0152562
0.0151668
0.0150806
0.0149947
0.0149089
0.0148231
0.0147372
0.0146511
0.0145648
0.0144781
0.0143909
0.0143031
0.0142146
0.0141253
0.0140352
0.013944
0.0138518
0.0137585
0.0136638
0.0135678
0.0134703
0.0133713
0.0132706
0.0131683
0.0130641
0.012958
0.01285
0.0127401
0.012628
0.012514
0.0123978
0.0122795
0.0121591
0.0120367
0.0119122
0.0117857
0.0116573
0.011527
0.011395
0.0112614
0.0111263
0.0109899
0.0108523
0.0107137
0.0105744
0.0104345
0.0102942
0.0101538
0.0100135
0.00987362
0.00973431
0.00959587
0.00945853
0.00932256
0.0091882
0.00905569
0.00892526
0.00879716
0.00867158
0.00854875
0.00842885
0.00831208
0.00819858
0.00808853
0.00798205
0.00787926
0.00778028
0.00768518
0.00759404
0.00750691
0.00742384
0.00734485
0.00726994
0.00719912
0.00713237
0.00706965
0.00701093
0.00695614
0.00690524
0.00685815
0.00681478
0.00677505
0.00673888
0.00670615
0.00667677
0.00665062
0.00662761
0.00660761
0.00659051
0.0065762
0.00656456
0.00655546
0.0065488
0.00654445
0.00654231
0.00654225
0.00654416
0.00654793
0.00655344
0.0065606
0.00656928
0.00657937
0.00659079
0.00660341
0.00661714
0.00663187
0.00664751
0.00666395
0.00668109
0.00669885
0.00671711
0.0067358
0.0067548
0.00677403
0.00679339
0.00681278
0.0068321
0.00685123
0.00687005
0.0068884
0.00690608
0.00692278
0.00693804
0.00695095
0.00695964
)
;

boundaryField
{
    boundary
    {
        type            empty;
    }
    inlet
    {
        type            fixedValue;
        value           uniform 0.226269;
    }
    outlet
    {
        type            zeroGradient;
    }
}


// ************************************************************************* //
