/*--------------------------------*- C++ -*----------------------------------*\
  =========                 |
  \\      /  F ield         | OpenFOAM: The Open Source CFD Toolbox
   \\    /   O peration     | Website:  https://openfoam.org
    \\  /    A nd           | Version:  7
     \\/     M anipulation  |
\*---------------------------------------------------------------------------*/
FoamFile
{
    version     2.0;
    format      ascii;
    class       surfaceScalarField;
    location    "0.00042";
    object      phi;
}
// * * * * * * * * * * * * * * * * * * * * * * * * * * * * * * * * * * * * * //

dimensions      [1 0 -1 0 0 0 0];

internalField   nonuniform List<scalar> 
499
(
6.93369e-06
6.93334e-06
6.933e-06
6.93266e-06
6.93233e-06
6.93199e-06
6.93164e-06
6.93128e-06
6.9309e-06
6.9305e-06
6.93007e-06
6.9296e-06
6.92909e-06
6.92851e-06
6.92787e-06
6.92715e-06
6.92634e-06
6.92543e-06
6.9244e-06
6.92326e-06
6.922e-06
6.92062e-06
6.91911e-06
6.9175e-06
6.91579e-06
6.91399e-06
6.91213e-06
6.91023e-06
6.90831e-06
6.90641e-06
6.90453e-06
6.90271e-06
6.90097e-06
6.89932e-06
6.89778e-06
6.89636e-06
6.89505e-06
6.89387e-06
6.8928e-06
6.89185e-06
6.89101e-06
6.89027e-06
6.88961e-06
6.88902e-06
6.88851e-06
6.88805e-06
6.88764e-06
6.88726e-06
6.88692e-06
6.8866e-06
6.8863e-06
6.88602e-06
6.88574e-06
6.88548e-06
6.88522e-06
6.88496e-06
6.88471e-06
6.88446e-06
6.88421e-06
6.88396e-06
6.88372e-06
6.88347e-06
6.88322e-06
6.88298e-06
6.88273e-06
6.88248e-06
6.88223e-06
6.88199e-06
6.88174e-06
6.88149e-06
6.88124e-06
6.88099e-06
6.88074e-06
6.88049e-06
6.88024e-06
6.87999e-06
6.87973e-06
6.87948e-06
6.87923e-06
6.87898e-06
6.87873e-06
6.87847e-06
6.87822e-06
6.87796e-06
6.87771e-06
6.87745e-06
6.8772e-06
6.87694e-06
6.87669e-06
6.87643e-06
6.87618e-06
6.87592e-06
6.87566e-06
6.8754e-06
6.87515e-06
6.87489e-06
6.87463e-06
6.87437e-06
6.87411e-06
6.87385e-06
6.87359e-06
6.87333e-06
6.87307e-06
6.87281e-06
6.87255e-06
6.87228e-06
6.87202e-06
6.87176e-06
6.8715e-06
6.87123e-06
6.87097e-06
6.8707e-06
6.87044e-06
6.87018e-06
6.86991e-06
6.86964e-06
6.86938e-06
6.86911e-06
6.86885e-06
6.86858e-06
6.86831e-06
6.86804e-06
6.86778e-06
6.86751e-06
6.86724e-06
6.86697e-06
6.8667e-06
6.86643e-06
6.86616e-06
6.86589e-06
6.86562e-06
6.86535e-06
6.86508e-06
6.86481e-06
6.86454e-06
6.86426e-06
6.86399e-06
6.86372e-06
6.86344e-06
6.86317e-06
6.8629e-06
6.86262e-06
6.86235e-06
6.86207e-06
6.8618e-06
6.86152e-06
6.86125e-06
6.86097e-06
6.8607e-06
6.86042e-06
6.86014e-06
6.85986e-06
6.85959e-06
6.85931e-06
6.85903e-06
6.85875e-06
6.85847e-06
6.85819e-06
6.85791e-06
6.85763e-06
6.85735e-06
6.85707e-06
6.8568e-06
6.85652e-06
6.85624e-06
6.85596e-06
6.85568e-06
6.8554e-06
6.85512e-06
6.85484e-06
6.85456e-06
6.85428e-06
6.854e-06
6.85372e-06
6.85344e-06
6.85316e-06
6.85288e-06
6.8526e-06
6.85232e-06
6.85204e-06
6.85177e-06
6.85149e-06
6.85121e-06
6.85093e-06
6.85066e-06
6.85038e-06
6.85011e-06
6.84983e-06
6.84956e-06
6.84928e-06
6.84901e-06
6.84873e-06
6.84846e-06
6.84819e-06
6.84792e-06
6.84765e-06
6.84738e-06
6.84711e-06
6.84684e-06
6.84658e-06
6.84631e-06
6.84604e-06
6.84578e-06
6.84552e-06
6.84525e-06
6.84499e-06
6.84473e-06
6.84447e-06
6.84422e-06
6.84396e-06
6.84371e-06
6.84345e-06
6.8432e-06
6.84295e-06
6.8427e-06
6.84245e-06
6.8422e-06
6.84195e-06
6.84171e-06
6.84147e-06
6.84123e-06
6.84098e-06
6.84075e-06
6.84051e-06
6.84027e-06
6.84004e-06
6.83981e-06
6.83957e-06
6.83934e-06
6.83912e-06
6.83889e-06
6.83866e-06
6.83844e-06
6.83822e-06
6.838e-06
6.83778e-06
6.83756e-06
6.83734e-06
6.83713e-06
6.83691e-06
6.8367e-06
6.83649e-06
6.83628e-06
6.83607e-06
6.83587e-06
6.83566e-06
6.83545e-06
6.83525e-06
6.83505e-06
6.83485e-06
6.83465e-06
6.83445e-06
6.83425e-06
6.83405e-06
6.83386e-06
6.83366e-06
6.83347e-06
6.83327e-06
6.83308e-06
6.83288e-06
6.83269e-06
6.8325e-06
6.83231e-06
6.83212e-06
6.83193e-06
6.83174e-06
6.83155e-06
6.83137e-06
6.83119e-06
6.83101e-06
6.83088e-06
6.83087e-06
6.83122e-06
6.83267e-06
6.83734e-06
6.85092e-06
6.88528e-06
6.94929e-06
7.02338e-06
7.08027e-06
7.11707e-06
7.14119e-06
7.15782e-06
7.1693e-06
7.1764e-06
7.18141e-06
7.186e-06
7.18993e-06
7.19296e-06
7.1954e-06
7.19741e-06
7.19911e-06
7.20057e-06
7.20184e-06
7.20296e-06
7.20395e-06
7.20484e-06
7.20563e-06
7.20635e-06
7.20699e-06
7.20758e-06
7.2081e-06
7.20857e-06
7.20899e-06
7.20937e-06
7.20971e-06
7.21001e-06
7.21028e-06
7.21052e-06
7.21074e-06
7.21093e-06
7.21111e-06
7.21126e-06
7.2114e-06
7.21153e-06
7.21165e-06
7.21177e-06
7.21188e-06
7.21199e-06
7.21209e-06
7.21219e-06
7.21229e-06
7.21238e-06
7.21247e-06
7.21256e-06
7.21265e-06
7.21273e-06
7.21281e-06
7.21288e-06
7.21296e-06
7.21303e-06
7.2131e-06
7.21316e-06
7.21322e-06
7.21328e-06
7.21333e-06
7.21338e-06
7.21343e-06
7.21348e-06
7.21352e-06
7.21355e-06
7.21359e-06
7.21362e-06
7.21365e-06
7.21368e-06
7.2137e-06
7.21372e-06
7.21374e-06
7.21375e-06
7.21376e-06
7.21377e-06
7.21378e-06
7.21378e-06
7.21378e-06
7.21377e-06
7.21377e-06
7.21375e-06
7.21374e-06
7.21372e-06
7.2137e-06
7.21367e-06
7.21364e-06
7.21361e-06
7.21357e-06
7.21353e-06
7.21348e-06
7.21344e-06
7.21338e-06
7.21333e-06
7.21327e-06
7.2132e-06
7.21314e-06
7.21307e-06
7.21299e-06
7.21291e-06
7.21282e-06
7.21273e-06
7.21263e-06
7.21254e-06
7.21245e-06
7.21237e-06
7.21229e-06
7.21223e-06
7.21217e-06
7.21213e-06
7.2121e-06
7.21208e-06
7.21208e-06
7.21211e-06
7.21215e-06
7.21222e-06
7.21232e-06
7.21244e-06
7.21259e-06
7.21278e-06
7.21299e-06
7.21324e-06
7.21352e-06
7.21384e-06
7.21418e-06
7.21456e-06
7.21497e-06
7.21541e-06
7.21588e-06
7.21636e-06
7.21687e-06
7.21739e-06
7.21792e-06
7.21846e-06
7.21899e-06
7.21951e-06
7.22001e-06
7.22048e-06
7.22092e-06
7.2213e-06
7.22162e-06
7.22186e-06
7.22201e-06
7.22206e-06
7.22198e-06
7.22177e-06
7.2214e-06
7.22087e-06
7.22014e-06
7.21921e-06
7.21805e-06
7.21665e-06
7.215e-06
7.21307e-06
7.21084e-06
7.20832e-06
7.20548e-06
7.20231e-06
7.19881e-06
7.19496e-06
7.19077e-06
7.18622e-06
7.18133e-06
7.17609e-06
7.1705e-06
7.16459e-06
7.15836e-06
7.15182e-06
7.14499e-06
7.1379e-06
7.13056e-06
7.123e-06
7.11526e-06
7.10735e-06
7.0993e-06
7.09117e-06
7.08296e-06
7.07473e-06
7.0665e-06
7.05832e-06
7.05021e-06
7.04221e-06
7.03435e-06
7.02667e-06
7.0192e-06
7.01197e-06
7.00499e-06
6.99831e-06
6.99193e-06
6.98589e-06
6.98019e-06
6.97486e-06
6.96989e-06
6.96531e-06
6.96111e-06
6.95731e-06
6.95389e-06
6.95086e-06
6.94821e-06
6.94594e-06
6.94402e-06
6.94246e-06
6.94124e-06
6.94034e-06
6.93975e-06
6.93945e-06
6.93941e-06
6.93962e-06
6.94006e-06
6.94071e-06
6.94154e-06
6.94254e-06
6.94369e-06
6.94497e-06
6.94635e-06
6.94782e-06
6.94937e-06
6.95097e-06
6.95262e-06
6.9543e-06
6.956e-06
6.95771e-06
6.95943e-06
6.96115e-06
)
;

boundaryField
{
    boundary
    {
        type            empty;
        value           nonuniform 0();
    }
    inlet
    {
        type            calculated;
        value           uniform -6.93403e-06;
    }
    outlet
    {
        type            calculated;
        value           uniform 6.96288e-06;
    }
}


// ************************************************************************* //
