/*--------------------------------*- C++ -*----------------------------------*\
  =========                 |
  \\      /  F ield         | OpenFOAM: The Open Source CFD Toolbox
   \\    /   O peration     | Website:  https://openfoam.org
    \\  /    A nd           | Version:  7
     \\/     M anipulation  |
\*---------------------------------------------------------------------------*/
FoamFile
{
    version     2.0;
    format      ascii;
    class       volScalarField;
    location    "0.00042";
    object      Qdot;
}
// * * * * * * * * * * * * * * * * * * * * * * * * * * * * * * * * * * * * * //

dimensions      [1 -1 -3 0 0 0 0];

internalField   nonuniform List<scalar> 
500
(
-2.4557e-27
-1.86837e-27
-1.74363e-27
-1.71857e-27
-1.71505e-27
-1.71632e-27
-1.71884e-27
-1.72194e-27
-1.72558e-27
-1.72986e-27
-1.73495e-27
-1.74104e-27
-1.74837e-27
-1.75719e-27
-1.76778e-27
-1.78043e-27
-1.79544e-27
-1.81308e-27
-1.83363e-27
-1.85729e-27
-1.88423e-27
-1.91454e-27
-1.9482e-27
-1.98511e-27
-2.02503e-27
-2.06763e-27
-2.11246e-27
-2.15895e-27
-2.20647e-27
-2.25431e-27
-2.30176e-27
-2.34809e-27
-2.39263e-27
-2.43479e-27
-2.47405e-27
-2.51006e-27
-2.54256e-27
-2.57144e-27
-2.59672e-27
-2.6185e-27
-2.637e-27
-2.65248e-27
-2.66524e-27
-2.67562e-27
-2.68394e-27
-2.69053e-27
-2.69567e-27
-2.69963e-27
-2.70265e-27
-2.70491e-27
-2.7066e-27
-2.70783e-27
-2.70872e-27
-2.70937e-27
-2.70982e-27
-2.71014e-27
-2.71036e-27
-2.71052e-27
-2.71062e-27
-2.7107e-27
-2.71075e-27
-2.71078e-27
-2.71081e-27
-2.71083e-27
-2.71085e-27
-2.71086e-27
-2.71087e-27
-2.71089e-27
-2.7109e-27
-2.71091e-27
-2.71093e-27
-2.71094e-27
-2.71096e-27
-2.71097e-27
-2.71099e-27
-2.71101e-27
-2.71103e-27
-2.71105e-27
-2.71108e-27
-2.7111e-27
-2.71113e-27
-2.71115e-27
-2.71118e-27
-2.71121e-27
-2.71124e-27
-2.71128e-27
-2.71131e-27
-2.71135e-27
-2.71139e-27
-2.71143e-27
-2.71147e-27
-2.71152e-27
-2.71156e-27
-2.71161e-27
-2.71167e-27
-2.71172e-27
-2.71177e-27
-2.71183e-27
-2.71189e-27
-2.71196e-27
-2.71202e-27
-2.71209e-27
-2.71216e-27
-2.71223e-27
-2.71231e-27
-2.71239e-27
-2.71247e-27
-2.71255e-27
-2.71264e-27
-2.71273e-27
-2.71282e-27
-2.71292e-27
-2.71302e-27
-2.71312e-27
-2.71322e-27
-2.71333e-27
-2.71344e-27
-2.71356e-27
-2.71367e-27
-2.71379e-27
-2.71392e-27
-2.71404e-27
-2.71417e-27
-2.71431e-27
-2.71446e-27
-2.71466e-27
-2.71478e-27
-2.7149e-27
-2.71502e-27
-2.71516e-27
-2.7153e-27
-2.71545e-27
-2.7156e-27
-2.71575e-27
-2.71591e-27
-2.71606e-27
-2.71622e-27
-2.71638e-27
-2.71654e-27
-2.7167e-27
-2.71686e-27
-2.71702e-27
-2.71718e-27
-2.71734e-27
-2.71751e-27
-2.71768e-27
-2.71785e-27
-2.71802e-27
-2.7182e-27
-2.71838e-27
-2.71856e-27
-2.71875e-27
-2.71894e-27
-2.71914e-27
-2.71934e-27
-2.71954e-27
-2.71974e-27
-2.71994e-27
-2.72014e-27
-2.72033e-27
-2.72053e-27
-2.72072e-27
-2.7209e-27
-2.72108e-27
-2.72125e-27
-2.72142e-27
-2.72158e-27
-2.72173e-27
-2.72187e-27
-2.72201e-27
-2.72213e-27
-2.72225e-27
-2.72236e-27
-2.72246e-27
-2.72254e-27
-2.72262e-27
-2.72269e-27
-2.72274e-27
-2.72278e-27
-2.72281e-27
-2.72282e-27
-2.72282e-27
-2.7228e-27
-2.72277e-27
-2.72272e-27
-2.72265e-27
-2.72256e-27
-2.72245e-27
-2.72232e-27
-2.72218e-27
-2.722e-27
-2.72181e-27
-2.72159e-27
-2.72135e-27
-2.72108e-27
-2.72078e-27
-2.72046e-27
-2.72011e-27
-2.71973e-27
-2.71932e-27
-2.71887e-27
-2.7184e-27
-2.71789e-27
-2.71735e-27
-2.71677e-27
-2.71616e-27
-2.71551e-27
-2.71482e-27
-2.71409e-27
-2.71333e-27
-2.71252e-27
-2.71168e-27
-2.71079e-27
-2.70985e-27
-2.70883e-27
-2.7076e-27
-2.70557e-27
-2.7001e-27
-2.6797e-27
-2.59429e-27
-2.22846e-27
-6.64601e-28
5.96619e-27
3.38086e-26
1.49536e-25
6.25633e-25
2.56405e-24
1.03743e-23
4.1516e-23
1.64389e-22
6.44126e-22
2.49757e-21
9.58347e-21
3.63911e-20
1.3676e-19
5.0868e-19
1.87284e-18
6.82643e-18
2.46382e-17
8.80771e-17
3.11965e-16
1.09529e-15
3.81402e-15
1.31817e-14
4.52561e-14
1.54521e-13
5.25425e-13
1.78261e-12
6.04972e-12
2.0614e-11
7.0899e-11
2.49243e-10
8.9203e-10
3.26874e-09
1.23342e-08
4.80386e-08
1.93068e-07
7.98703e-07
3.38759e-06
1.46636e-05
6.44979e-05
0.000287148
0.00129049
0.00584271
0.0266222
0.122069
0.563761
2.6281
12.4116
62.0694
339.969
2194.61
16177.7
131134
1.18819e+06
1.13273e+07
1.05523e+08
8.29609e+08
4.0084e+09
9.74262e+09
1.32085e+10
1.38838e+10
1.39316e+10
1.38407e+10
1.31013e+10
1.14875e+10
9.47982e+09
7.72094e+09
6.3523e+09
5.30045e+09
4.50063e+09
3.88606e+09
3.40527e+09
3.02157e+09
2.70933e+09
2.45072e+09
2.23319e+09
2.04775e+09
1.88783e+09
1.74856e+09
1.62622e+09
1.51797e+09
1.42155e+09
1.33517e+09
1.2574e+09
1.18705e+09
1.12316e+09
1.06491e+09
1.01163e+09
9.62753e+08
9.17805e+08
8.76449e+08
8.3931e+08
8.05384e+08
7.73545e+08
7.43705e+08
7.15684e+08
6.89318e+08
6.64479e+08
6.41031e+08
6.18873e+08
5.97909e+08
5.78048e+08
5.59211e+08
5.41324e+08
5.24323e+08
5.08146e+08
4.92738e+08
4.78049e+08
4.64033e+08
4.50647e+08
4.37852e+08
4.25613e+08
4.13896e+08
4.0267e+08
3.91907e+08
3.81582e+08
3.71669e+08
3.62146e+08
3.52992e+08
3.44187e+08
3.35714e+08
3.27554e+08
3.19692e+08
3.12114e+08
3.04804e+08
2.97751e+08
2.90941e+08
2.84364e+08
2.78009e+08
2.71865e+08
2.65923e+08
2.60173e+08
2.54608e+08
2.49219e+08
2.43999e+08
2.38941e+08
2.34037e+08
2.29282e+08
2.24669e+08
2.20194e+08
2.1585e+08
2.11631e+08
2.07535e+08
2.03555e+08
1.99688e+08
1.9593e+08
1.92276e+08
1.88723e+08
1.85268e+08
1.81907e+08
1.78637e+08
1.75456e+08
1.72363e+08
1.6936e+08
1.66453e+08
1.63591e+08
1.60718e+08
1.57944e+08
1.55248e+08
1.52623e+08
1.50063e+08
1.47565e+08
1.45125e+08
1.4274e+08
1.4041e+08
1.38131e+08
1.35903e+08
1.33723e+08
1.3159e+08
1.29501e+08
1.27456e+08
1.25452e+08
1.23488e+08
1.21563e+08
1.19675e+08
1.17821e+08
1.16002e+08
1.14215e+08
1.12458e+08
1.10731e+08
1.09031e+08
1.07358e+08
1.05709e+08
1.04083e+08
1.02478e+08
1.00894e+08
9.93289e+07
9.77809e+07
9.62485e+07
9.47309e+07
9.32266e+07
9.17343e+07
9.02526e+07
8.87806e+07
8.73169e+07
8.58606e+07
8.44105e+07
8.29658e+07
8.15254e+07
8.00893e+07
7.86554e+07
7.72239e+07
7.5794e+07
7.43654e+07
7.29376e+07
7.15104e+07
7.00836e+07
6.86569e+07
6.72306e+07
6.58045e+07
6.4379e+07
6.29544e+07
6.15309e+07
6.0109e+07
5.86894e+07
5.72713e+07
5.58578e+07
5.4448e+07
5.30428e+07
5.1643e+07
5.02493e+07
4.88625e+07
4.74834e+07
4.61129e+07
4.47517e+07
4.34008e+07
4.20608e+07
4.07327e+07
3.94173e+07
3.81151e+07
3.68275e+07
3.55551e+07
3.42987e+07
3.30592e+07
3.18375e+07
3.06343e+07
2.94507e+07
2.82874e+07
2.71454e+07
2.60255e+07
2.49285e+07
2.38553e+07
2.28066e+07
2.17833e+07
2.07859e+07
1.98152e+07
1.88716e+07
1.79557e+07
1.70679e+07
1.62085e+07
1.53777e+07
1.45756e+07
1.38022e+07
1.30575e+07
1.23413e+07
1.16534e+07
1.09933e+07
1.03607e+07
9.75496e+06
9.17563e+06
8.62201e+06
8.09339e+06
7.58901e+06
7.10844e+06
6.65015e+06
6.21364e+06
5.79793e+06
5.40196e+06
5.02458e+06
4.6645e+06
4.32024e+06
3.98993e+06
3.67175e+06
3.36281e+06
3.05981e+06
2.75968e+06
2.46069e+06
2.16976e+06
1.93675e+06
)
;

boundaryField
{
    boundary
    {
        type            empty;
    }
    inlet
    {
        type            calculated;
        value           uniform 0;
    }
    outlet
    {
        type            calculated;
        value           uniform 0;
    }
}


// ************************************************************************* //
