/*--------------------------------*- C++ -*----------------------------------*\
  =========                 |
  \\      /  F ield         | OpenFOAM: The Open Source CFD Toolbox
   \\    /   O peration     | Website:  https://openfoam.org
    \\  /    A nd           | Version:  7
     \\/     M anipulation  |
\*---------------------------------------------------------------------------*/
FoamFile
{
    version     2.0;
    format      ascii;
    class       volScalarField;
    location    "0.00042";
    object      rho;
}
// * * * * * * * * * * * * * * * * * * * * * * * * * * * * * * * * * * * * * //

dimensions      [1 -3 0 0 0 0 0];

internalField   nonuniform List<scalar> 
500
(
0.865149
0.865135
0.865122
0.865109
0.865095
0.865081
0.865065
0.865047
0.865027
0.865003
0.864975
0.864941
0.864901
0.864853
0.864796
0.864727
0.864647
0.864554
0.864446
0.864324
0.864187
0.864035
0.863868
0.863689
0.863499
0.8633
0.863095
0.862887
0.862679
0.862473
0.862274
0.862082
0.861902
0.861734
0.861579
0.86144
0.861315
0.861206
0.861111
0.861029
0.86096
0.860903
0.860856
0.860818
0.860787
0.860763
0.860744
0.860729
0.860718
0.860709
0.860703
0.860698
0.860695
0.860693
0.860691
0.86069
0.860689
0.860688
0.860688
0.860687
0.860687
0.860687
0.860687
0.860687
0.860687
0.860687
0.860687
0.860686
0.860686
0.860686
0.860686
0.860686
0.860686
0.860686
0.860686
0.860686
0.860686
0.860685
0.860685
0.860685
0.860685
0.860685
0.860685
0.860685
0.860684
0.860684
0.860684
0.860684
0.860684
0.860684
0.860683
0.860683
0.860683
0.860683
0.860683
0.860682
0.860682
0.860682
0.860682
0.860681
0.860681
0.860681
0.86068
0.86068
0.86068
0.860679
0.860679
0.860679
0.860678
0.860678
0.860678
0.860677
0.860677
0.860676
0.860676
0.860676
0.860675
0.860675
0.860674
0.860674
0.860673
0.860673
0.860672
0.860672
0.860671
0.86067
0.86067
0.860669
0.860669
0.860668
0.860668
0.860667
0.860667
0.860666
0.860666
0.860665
0.860664
0.860664
0.860663
0.860662
0.860662
0.860661
0.860661
0.86066
0.860659
0.860659
0.860658
0.860657
0.860657
0.860656
0.860655
0.860655
0.860654
0.860653
0.860652
0.860652
0.860651
0.86065
0.860649
0.860649
0.860648
0.860647
0.860646
0.860646
0.860645
0.860644
0.860644
0.860643
0.860643
0.860642
0.860642
0.860641
0.860641
0.86064
0.86064
0.860639
0.860639
0.860639
0.860639
0.860639
0.860638
0.860638
0.860638
0.860639
0.860639
0.860639
0.860639
0.860639
0.86064
0.86064
0.860641
0.860641
0.860642
0.860643
0.860644
0.860645
0.860646
0.860647
0.860648
0.86065
0.860651
0.860653
0.860655
0.860656
0.860658
0.860661
0.860663
0.860665
0.860668
0.86067
0.860673
0.860676
0.860679
0.860682
0.860686
0.860689
0.860693
0.860697
0.860701
0.860705
0.860709
0.860714
0.860718
0.860723
0.860728
0.860733
0.860739
0.860744
0.86075
0.860756
0.860762
0.860768
0.860774
0.860781
0.860787
0.860794
0.860801
0.860808
0.860815
0.860822
0.86083
0.860838
0.860845
0.860853
0.860861
0.860869
0.860877
0.860886
0.860894
0.860903
0.860911
0.860919
0.860928
0.860937
0.860946
0.860955
0.860965
0.860974
0.860983
0.860992
0.861002
0.861011
0.861021
0.86103
0.86104
0.86105
0.861061
0.861071
0.861079
0.861076
0.861032
0.860856
0.860269
0.858435
0.85292
0.836975
0.794535
0.702991
0.569585
0.445142
0.358427
0.302092
0.263779
0.236599
0.217433
0.203486
0.19298
0.185476
0.179915
0.175508
0.171927
0.168947
0.166417
0.164233
0.162324
0.160634
0.159126
0.157768
0.156537
0.155414
0.154385
0.153437
0.15256
0.151746
0.150988
0.15028
0.149616
0.148992
0.148405
0.147852
0.147329
0.146836
0.146381
0.145957
0.145549
0.145158
0.144783
0.144422
0.144075
0.143741
0.143419
0.143108
0.142808
0.142518
0.142238
0.141966
0.141703
0.141449
0.141202
0.140962
0.140729
0.140503
0.140283
0.14007
0.139862
0.139659
0.139462
0.139269
0.139082
0.138899
0.138721
0.138547
0.138377
0.13821
0.138048
0.137889
0.137734
0.137582
0.137434
0.137288
0.137145
0.137006
0.136869
0.136735
0.136603
0.136474
0.136348
0.136223
0.136101
0.135982
0.135864
0.135748
0.135635
0.135523
0.135413
0.135305
0.135198
0.135094
0.134991
0.134889
0.134789
0.134691
0.134593
0.134497
0.134402
0.134308
0.134216
0.134126
0.134037
0.133951
0.133865
0.133781
0.133698
0.133617
0.133537
0.133459
0.133382
0.133306
0.133232
0.133159
0.133088
0.133019
0.13295
0.132884
0.132819
0.132755
0.132693
0.132632
0.132573
0.132515
0.132459
0.132404
0.13235
0.132298
0.132246
0.132196
0.132146
0.132098
0.13205
0.132002
0.131955
0.131909
0.131862
0.131815
0.131768
0.13172
0.131671
0.131621
0.13157
0.131517
0.131462
0.131405
0.131345
0.131282
0.131216
0.131146
0.131073
0.130996
0.130914
0.130828
0.130737
0.130641
0.13054
0.130433
0.130322
0.130204
0.130082
0.129955
0.129822
0.129684
0.129541
0.129394
0.129243
0.129088
0.128929
0.128768
0.128604
0.128438
0.12827
0.128102
0.127933
0.127765
0.127597
0.127431
0.127268
0.127106
0.126949
0.126795
0.126645
0.126501
0.126361
0.126228
0.1261
0.125979
0.125865
0.125758
0.125658
0.125565
0.125479
0.125401
0.12533
0.125267
0.125211
0.125161
0.125119
0.125083
0.125054
0.12503
0.125013
0.125
0.124993
0.124991
0.124993
0.124998
0.125008
0.12502
0.125036
0.125054
0.125074
0.125095
0.125118
0.125142
0.125167
0.125191
0.125216
0.125239
0.125261
0.125281
0.125296
0.125306
)
;

boundaryField
{
    boundary
    {
        type            empty;
    }
    inlet
    {
        type            calculated;
        value           uniform 0.86516;
    }
    outlet
    {
        type            calculated;
        value           uniform 0.125306;
    }
}


// ************************************************************************* //
