/*--------------------------------*- C++ -*----------------------------------*\
  =========                 |
  \\      /  F ield         | OpenFOAM: The Open Source CFD Toolbox
   \\    /   O peration     | Website:  https://openfoam.org
    \\  /    A nd           | Version:  7
     \\/     M anipulation  |
\*---------------------------------------------------------------------------*/
FoamFile
{
    version     2.0;
    format      ascii;
    class       volScalarField;
    location    "0.00042";
    object      T;
}
// * * * * * * * * * * * * * * * * * * * * * * * * * * * * * * * * * * * * * //

dimensions      [0 0 0 1 0 0 0];

internalField   nonuniform List<scalar> 
500
(
300.004
300.008
300.013
300.018
300.022
300.027
300.033
300.039
300.046
300.054
300.064
300.076
300.09
300.106
300.126
300.15
300.178
300.21
300.247
300.29
300.338
300.391
300.448
300.511
300.577
300.646
300.717
300.79
300.863
300.934
301.004
301.071
301.134
301.193
301.247
301.295
301.339
301.377
301.411
301.439
301.463
301.483
301.5
301.513
301.524
301.532
301.539
301.544
301.548
301.551
301.553
301.555
301.556
301.557
301.557
301.558
301.558
301.558
301.558
301.558
301.559
301.559
301.559
301.559
301.559
301.559
301.559
301.559
301.559
301.559
301.559
301.559
301.559
301.559
301.559
301.559
301.559
301.559
301.559
301.559
301.559
301.559
301.559
301.559
301.559
301.559
301.559
301.559
301.559
301.559
301.559
301.56
301.56
301.56
301.56
301.56
301.56
301.56
301.56
301.56
301.56
301.56
301.56
301.56
301.56
301.561
301.561
301.561
301.561
301.561
301.561
301.561
301.561
301.562
301.562
301.562
301.562
301.562
301.562
301.562
301.562
301.563
301.563
301.563
301.563
301.563
301.564
301.564
301.564
301.564
301.564
301.564
301.565
301.565
301.565
301.565
301.565
301.566
301.566
301.566
301.566
301.566
301.567
301.567
301.567
301.567
301.567
301.568
301.568
301.568
301.568
301.568
301.569
301.569
301.569
301.569
301.57
301.57
301.57
301.57
301.571
301.571
301.571
301.571
301.572
301.572
301.572
301.572
301.572
301.573
301.573
301.573
301.573
301.573
301.573
301.573
301.573
301.573
301.573
301.574
301.574
301.574
301.574
301.573
301.573
301.573
301.573
301.573
301.573
301.573
301.573
301.572
301.572
301.572
301.571
301.571
301.571
301.57
301.57
301.569
301.569
301.568
301.568
301.567
301.566
301.565
301.565
301.564
301.563
301.562
301.561
301.56
301.559
301.558
301.556
301.555
301.554
301.552
301.551
301.55
301.548
301.546
301.545
301.543
301.541
301.54
301.538
301.536
301.534
301.532
301.53
301.527
301.525
301.523
301.521
301.518
301.516
301.513
301.511
301.508
301.505
301.503
301.5
301.497
301.495
301.492
301.489
301.486
301.483
301.48
301.477
301.474
301.471
301.468
301.465
301.461
301.458
301.455
301.452
301.448
301.445
301.442
301.439
301.435
301.432
301.429
301.426
301.424
301.425
301.433
301.464
301.557
301.829
302.612
304.854
311.249
329.069
374.289
466.301
603.524
758.699
910.9
1054.26
1185.34
1297.84
1393.13
1473.21
1536.77
1587.8
1630.91
1667.88
1700.11
1728.59
1754.03
1776.99
1797.86
1816.96
1834.54
1850.8
1865.91
1880
1893.18
1905.56
1917.2
1928.19
1938.59
1948.44
1957.79
1966.68
1975.15
1983.23
1990.92
1998.07
2004.78
2011.28
2017.56
2023.62
2029.49
2035.18
2040.68
2046.02
2051.21
2056.24
2061.12
2065.88
2070.5
2075
2079.38
2083.65
2087.81
2091.87
2095.83
2099.69
2103.46
2107.15
2110.75
2114.27
2117.72
2121.09
2124.38
2127.61
2130.77
2133.87
2136.91
2139.88
2142.8
2145.66
2148.47
2151.22
2153.92
2156.58
2159.18
2161.74
2164.26
2166.73
2169.16
2171.55
2173.9
2176.21
2178.48
2180.72
2182.92
2185.08
2187.21
2189.31
2191.38
2193.41
2195.42
2197.39
2199.33
2201.25
2203.13
2204.99
2206.82
2208.63
2210.41
2212.16
2213.89
2215.58
2217.24
2218.88
2220.49
2222.07
2223.62
2225.14
2226.64
2228.1
2229.53
2230.94
2232.31
2233.65
2234.96
2236.23
2237.48
2238.69
2239.87
2241.01
2242.12
2243.2
2244.25
2245.27
2246.25
2247.2
2248.13
2249.03
2249.9
2250.74
2251.57
2252.37
2253.16
2253.93
2254.69
2255.44
2256.19
2256.94
2257.7
2258.46
2259.25
2260.05
2260.87
2261.73
2262.63
2263.57
2264.56
2265.61
2266.72
2267.9
2269.15
2270.49
2271.91
2273.42
2275.03
2276.73
2278.54
2280.45
2282.47
2284.6
2286.83
2289.18
2291.63
2294.18
2296.84
2299.59
2302.43
2305.36
2308.37
2311.45
2314.59
2317.78
2321.02
2324.29
2327.58
2330.89
2334.2
2337.49
2340.77
2344.01
2347.2
2350.35
2353.43
2356.43
2359.35
2362.19
2364.92
2367.55
2370.06
2372.46
2374.75
2376.9
2378.94
2380.85
2382.63
2384.28
2385.81
2387.22
2388.51
2389.68
2390.73
2391.68
2392.53
2393.28
2393.94
2394.51
2394.99
2395.41
2395.75
2396.03
2396.26
2396.43
2396.56
2396.64
2396.69
2396.71
2396.71
2396.68
2396.63
2396.57
2396.5
2396.43
2396.37
)
;

boundaryField
{
    boundary
    {
        type            empty;
    }
    inlet
    {
        type            fixedValue;
        value           uniform 300;
    }
    outlet
    {
        type            zeroGradient;
    }
}


// ************************************************************************* //
