/*--------------------------------*- C++ -*----------------------------------*\
  =========                 |
  \\      /  F ield         | OpenFOAM: The Open Source CFD Toolbox
   \\    /   O peration     | Website:  https://openfoam.org
    \\  /    A nd           | Version:  7
     \\/     M anipulation  |
\*---------------------------------------------------------------------------*/
FoamFile
{
    version     2.0;
    format      ascii;
    class       volScalarField;
    location    "0.00051";
    object      H;
}
// * * * * * * * * * * * * * * * * * * * * * * * * * * * * * * * * * * * * * //

dimensions      [0 0 0 0 0 0 0];

internalField   nonuniform List<scalar> 
124
(
0.000340416
0.000337122
0.000333886
0.000330707
0.000327583
0.000324513
0.000321497
0.000318532
0.000315618
0.000312754
0.000309939
0.000307172
0.000304451
0.000301777
0.000299147
0.000296562
0.00029402
0.00029152
0.000289063
0.000286646
0.00028427
0.000281934
0.000279637
0.000277378
0.000275156
0.000272973
0.000270825
0.000268714
0.000266638
0.000264598
0.000262591
0.000260618
0.000258677
0.000256765
0.000254874
0.000252978
0.000251011
0.000249226
0.000247472
0.000245746
0.000244049
0.000242379
0.000240735
0.000239117
0.000237524
0.000235955
0.00023441
0.000232888
0.000231388
0.00022991
0.000228452
0.000227015
0.000225598
0.000224198
0.000222817
0.000221453
0.000220104
0.000218771
0.000217451
0.000216145
0.000214851
0.000213568
0.000212295
0.000211031
0.000209774
0.000208524
0.00020728
0.00020604
0.000204804
0.000203569
0.000202336
0.000201102
0.000199867
0.000198629
0.000197389
0.000196143
0.000194893
0.000193635
0.000192371
0.000191098
0.000189817
0.000188526
0.000187224
0.000185911
0.000184587
0.000183251
0.000181903
0.000180541
0.000179167
0.00017778
0.000176379
0.000174964
0.000173537
0.000172096
0.000170641
0.000169174
0.000167693
0.0001662
0.000164694
0.000163176
0.000161647
0.000160106
0.000158555
0.000156993
0.000155422
0.000153842
0.000152254
0.00015066
0.000149061
0.000147459
0.000145856
0.000144255
0.000142659
0.000141074
0.000139506
0.000137963
0.000136457
0.000135001
0.000133615
0.000132325
0.000131165
0.000130181
0.000129436
0.000129012
)
;

boundaryField
{
    boundary
    {
        type            empty;
    }
    inlet
    {
        type            fixedValue;
        value           nonuniform 0();
    }
    outlet
    {
        type            zeroGradient;
    }
    procBoundary0to1
    {
        type            processor;
        value           uniform 0.000343757;
    }
}


// ************************************************************************* //
