/*--------------------------------*- C++ -*----------------------------------*\
  =========                 |
  \\      /  F ield         | OpenFOAM: The Open Source CFD Toolbox
   \\    /   O peration     | Website:  https://openfoam.org
    \\  /    A nd           | Version:  7
     \\/     M anipulation  |
\*---------------------------------------------------------------------------*/
FoamFile
{
    version     2.0;
    format      ascii;
    class       volVectorField;
    location    "0.00051";
    object      U;
}
// * * * * * * * * * * * * * * * * * * * * * * * * * * * * * * * * * * * * * //

dimensions      [0 1 -1 0 0 0 0];

internalField   nonuniform List<vector> 
124
(
(15.7813 0 0)
(15.7917 0 0)
(15.8018 0 0)
(15.8119 0 0)
(15.8218 0 0)
(15.8316 0 0)
(15.8413 0 0)
(15.8508 0 0)
(15.8602 0 0)
(15.8695 0 0)
(15.8787 0 0)
(15.8878 0 0)
(15.8967 0 0)
(15.9055 0 0)
(15.9143 0 0)
(15.9229 0 0)
(15.9314 0 0)
(15.9398 0 0)
(15.9481 0 0)
(15.9563 0 0)
(15.9644 0 0)
(15.9724 0 0)
(15.9804 0 0)
(15.9882 0 0)
(15.9959 0 0)
(16.0036 0 0)
(16.0111 0 0)
(16.0186 0 0)
(16.026 0 0)
(16.0333 0 0)
(16.0405 0 0)
(16.0477 0 0)
(16.0547 0 0)
(16.0617 0 0)
(16.069 0 0)
(16.0752 0 0)
(16.0812 0 0)
(16.0887 0 0)
(16.0955 0 0)
(16.102 0 0)
(16.1085 0 0)
(16.1149 0 0)
(16.1213 0 0)
(16.1275 0 0)
(16.1337 0 0)
(16.1399 0 0)
(16.1459 0 0)
(16.152 0 0)
(16.1579 0 0)
(16.1638 0 0)
(16.1696 0 0)
(16.1754 0 0)
(16.1811 0 0)
(16.1867 0 0)
(16.1923 0 0)
(16.1979 0 0)
(16.2034 0 0)
(16.2089 0 0)
(16.2143 0 0)
(16.2197 0 0)
(16.225 0 0)
(16.2303 0 0)
(16.2356 0 0)
(16.2408 0 0)
(16.246 0 0)
(16.2512 0 0)
(16.2564 0 0)
(16.2615 0 0)
(16.2666 0 0)
(16.2717 0 0)
(16.2768 0 0)
(16.2819 0 0)
(16.2869 0 0)
(16.2919 0 0)
(16.2969 0 0)
(16.3018 0 0)
(16.3068 0 0)
(16.3117 0 0)
(16.3166 0 0)
(16.3214 0 0)
(16.3262 0 0)
(16.3309 0 0)
(16.3357 0 0)
(16.3403 0 0)
(16.3449 0 0)
(16.3494 0 0)
(16.3539 0 0)
(16.3582 0 0)
(16.3625 0 0)
(16.3667 0 0)
(16.3708 0 0)
(16.3748 0 0)
(16.3786 0 0)
(16.3823 0 0)
(16.3859 0 0)
(16.3894 0 0)
(16.3927 0 0)
(16.3958 0 0)
(16.3988 0 0)
(16.4016 0 0)
(16.4043 0 0)
(16.4068 0 0)
(16.4091 0 0)
(16.4113 0 0)
(16.4133 0 0)
(16.4151 0 0)
(16.4168 0 0)
(16.4183 0 0)
(16.4197 0 0)
(16.4209 0 0)
(16.422 0 0)
(16.423 0 0)
(16.4238 0 0)
(16.4246 0 0)
(16.4254 0 0)
(16.426 0 0)
(16.4267 0 0)
(16.4274 0 0)
(16.4281 0 0)
(16.4289 0 0)
(16.4298 0 0)
(16.4305 0 0)
(16.43 0 0)
(16.4269 0 0)
)
;

boundaryField
{
    boundary
    {
        type            empty;
    }
    inlet
    {
        type            fixedValue;
        value           nonuniform 0();
    }
    outlet
    {
        type            zeroGradient;
    }
    procBoundary0to1
    {
        type            processor;
        value           uniform (15.7709 0 0);
    }
}


// ************************************************************************* //
