/*--------------------------------*- C++ -*----------------------------------*\
  =========                 |
  \\      /  F ield         | OpenFOAM: The Open Source CFD Toolbox
   \\    /   O peration     | Website:  https://openfoam.org
    \\  /    A nd           | Version:  7
     \\/     M anipulation  |
\*---------------------------------------------------------------------------*/
FoamFile
{
    version     2.0;
    format      ascii;
    class       volScalarField;
    location    "0.00024";
    object      cellCpuTimes;
}
// * * * * * * * * * * * * * * * * * * * * * * * * * * * * * * * * * * * * * //

dimensions      [0 0 0 0 0 0 0];

internalField   nonuniform List<scalar> 
500
(
8.7e-05
5.2e-05
4.9e-05
5e-05
4.9e-05
4.9e-05
4.9e-05
4.9e-05
4.9e-05
4.9e-05
4.8e-05
4.9e-05
4.9e-05
4.8e-05
4.8e-05
4.8e-05
4.9e-05
4.9e-05
4.8e-05
4.9e-05
4.8e-05
4.8e-05
4.8e-05
4.9e-05
4.9e-05
4.9e-05
4.8e-05
4.8e-05
4.8e-05
4.9e-05
4.9e-05
4.9e-05
4.9e-05
4.8e-05
4.8e-05
4.8e-05
4.9e-05
4.8e-05
4.8e-05
4.8e-05
4.8e-05
4.9e-05
4.8e-05
4.9e-05
4.8e-05
4.8e-05
4.9e-05
4.8e-05
4.8e-05
4.9e-05
4.9e-05
4.8e-05
4.8e-05
4.8e-05
4.9e-05
4.8e-05
4.8e-05
4.8e-05
4.8e-05
4.8e-05
4.8e-05
4.8e-05
4.8e-05
4.8e-05
4.9e-05
4.8e-05
4.8e-05
4.8e-05
4.8e-05
6.3e-05
4.8e-05
4.8e-05
4.9e-05
4.8e-05
4.9e-05
4.8e-05
4.9e-05
4.9e-05
4.9e-05
4.9e-05
4.8e-05
4.8e-05
4.9e-05
4.8e-05
4.7e-05
4.8e-05
4.8e-05
4.8e-05
4.8e-05
4.8e-05
4.8e-05
4.8e-05
4.8e-05
4.8e-05
4.8e-05
4.8e-05
4.8e-05
4.8e-05
4.9e-05
4.7e-05
4.8e-05
4.7e-05
4.8e-05
4.8e-05
4.8e-05
4.8e-05
4.9e-05
4.8e-05
4.8e-05
4.8e-05
4.9e-05
4.9e-05
4.8e-05
4.8e-05
4.8e-05
4.7e-05
4.8e-05
4.8e-05
4.8e-05
4.8e-05
4.8e-05
4.8e-05
4.8e-05
4.8e-05
4.8e-05
8.6e-05
5.6e-05
4.9e-05
4.8e-05
4.7e-05
4.7e-05
4.7e-05
4.7e-05
4.7e-05
4.7e-05
4.7e-05
4.7e-05
4.7e-05
4.6e-05
4.7e-05
4.6e-05
4.7e-05
4.7e-05
4.7e-05
4.7e-05
4.7e-05
4.6e-05
4.6e-05
4.7e-05
4.7e-05
4.7e-05
4.7e-05
4.6e-05
4.7e-05
4.7e-05
4.7e-05
4.7e-05
4.7e-05
4.7e-05
4.6e-05
4.7e-05
4.7e-05
4.7e-05
4.6e-05
4.7e-05
4.7e-05
4.7e-05
4.7e-05
4.7e-05
4.7e-05
4.7e-05
4.6e-05
4.7e-05
4.7e-05
4.7e-05
4.7e-05
4.6e-05
4.7e-05
4.7e-05
4.7e-05
4.7e-05
4.6e-05
4.7e-05
4.6e-05
4.7e-05
4.7e-05
4.7e-05
4.7e-05
4.7e-05
4.7e-05
4.8e-05
4.7e-05
4.7e-05
4.6e-05
4.7e-05
4.7e-05
5.1e-05
4.7e-05
4.6e-05
4.7e-05
4.6e-05
4.7e-05
4.6e-05
4.7e-05
4.7e-05
4.7e-05
4.6e-05
4.7e-05
4.8e-05
4.7e-05
4.6e-05
4.7e-05
4.6e-05
4.7e-05
4.6e-05
4.7e-05
4.7e-05
4.7e-05
4.7e-05
4.7e-05
4.6e-05
4.7e-05
4.7e-05
4.7e-05
4.6e-05
4.7e-05
4.6e-05
4.7e-05
4.7e-05
4.7e-05
4.7e-05
4.6e-05
4.7e-05
4.6e-05
4.7e-05
4.6e-05
4.7e-05
4.7e-05
4.7e-05
4.7e-05
4.7e-05
4.6e-05
4.7e-05
4.7e-05
4.6e-05
4.7e-05
4.6e-05
4.7e-05
4.6e-05
4.7e-05
4.7e-05
4.6e-05
4.7e-05
4.7e-05
4.6e-05
4.7e-05
4.7e-05
4.7e-05
4.6e-05
4.7e-05
4.6e-05
4.7e-05
4.6e-05
4.6e-05
4.6e-05
4.7e-05
4.6e-05
4.7e-05
4.6e-05
4.6e-05
4.7e-05
4.6e-05
5.8e-05
6.5e-05
7.5e-05
0.00011
0.000146
0.000143
0.000168
0.000162
0.000174
0.000178
0.000242
0.000256
0.000275
0.00027
0.000243
0.00023
0.000229
0.000221
0.000207
0.000204
0.000196
0.000178
0.000171
0.000168
0.000201
0.000152
0.000149
0.000146
0.000146
0.000145
0.000146
0.000141
0.000137
0.000145
0.000145
0.000145
0.000144
0.000138
0.000139
0.00013
0.000126
0.000126
0.000126
0.000128
0.000125
0.000125
0.000124
0.00013
0.000131
0.000131
0.000127
0.000126
0.000122
0.000121
0.000122
0.000122
0.000122
0.00012
0.000125
0.000126
0.000122
0.000121
0.000123
0.000123
0.000123
0.000119
0.000118
0.000118
0.000119
0.000119
0.000119
0.000117
0.000116
0.000117
0.000116
0.000116
0.000117
0.000118
0.000116
0.000112
0.000111
0.000118
0.000112
0.000112
0.000112
0.000112
0.000112
0.000112
0.000112
0.000107
0.000108
0.000107
0.000112
0.000111
0.00011
0.000111
0.000111
0.000111
0.000111
0.000111
0.000107
0.000107
0.000106
0.00011
0.000111
0.00011
0.000112
0.000109
0.00011
0.000109
0.000111
0.00011
0.000109
0.00011
0.000111
0.000111
0.00011
0.00011
0.000155
0.000116
0.000112
0.000112
0.000111
0.000111
0.000112
0.000111
0.000112
0.000112
0.000111
0.000111
0.00011
0.000111
0.000112
0.00011
0.000111
0.000111
0.00011
0.000111
0.000112
0.000111
0.00011
0.000112
0.000108
0.000108
0.000109
0.000109
0.000108
0.000108
0.000108
0.000112
0.000109
0.000108
0.000108
0.000105
0.000108
0.000105
0.000106
0.000105
0.000105
0.000105
0.000105
0.000105
0.000102
0.000101
0.000101
9.7e-05
9.7e-05
9.4e-05
9.6e-05
9.4e-05
9.5e-05
9.5e-05
9.1e-05
9.2e-05
8.8e-05
8.9e-05
8.8e-05
8.4e-05
8.8e-05
8.9e-05
8.9e-05
8.8e-05
8.7e-05
8.6e-05
8.6e-05
8.2e-05
8.6e-05
8.3e-05
8.4e-05
8.3e-05
9.6e-05
7.7e-05
7.8e-05
7.8e-05
7.2e-05
7.7e-05
7.1e-05
7.1e-05
7e-05
6.6e-05
6.3e-05
6.3e-05
6.9e-05
6.9e-05
6.8e-05
6.5e-05
6.2e-05
6.3e-05
6.2e-05
6.1e-05
6.1e-05
6e-05
6.4e-05
6.4e-05
5.8e-05
5.7e-05
5.7e-05
5.7e-05
5.7e-05
5.5e-05
5.5e-05
5.7e-05
5.2e-05
5.2e-05
5.2e-05
5.3e-05
5.2e-05
5.2e-05
)
;

boundaryField
{
    boundary
    {
        type            empty;
    }
    inlet
    {
        type            calculated;
        value           uniform 0;
    }
    outlet
    {
        type            calculated;
        value           uniform 0;
    }
}


// ************************************************************************* //
