/*--------------------------------*- C++ -*----------------------------------*\
  =========                 |
  \\      /  F ield         | OpenFOAM: The Open Source CFD Toolbox
   \\    /   O peration     | Website:  https://openfoam.org
    \\  /    A nd           | Version:  7
     \\/     M anipulation  |
\*---------------------------------------------------------------------------*/
FoamFile
{
    version     2.0;
    format      ascii;
    class       volScalarField;
    location    "0.00024";
    object      H2;
}
// * * * * * * * * * * * * * * * * * * * * * * * * * * * * * * * * * * * * * //

dimensions      [0 0 0 0 0 0 0];

internalField   nonuniform List<scalar> 
500
(
0.0285116
0.0285116
0.0285116
0.0285116
0.0285116
0.0285116
0.0285116
0.0285116
0.0285116
0.0285116
0.0285116
0.0285116
0.0285116
0.0285116
0.0285116
0.0285116
0.0285116
0.0285116
0.0285116
0.0285116
0.0285116
0.0285116
0.0285116
0.0285116
0.0285116
0.0285116
0.0285116
0.0285116
0.0285116
0.0285116
0.0285116
0.0285116
0.0285116
0.0285116
0.0285116
0.0285116
0.0285116
0.0285116
0.0285116
0.0285116
0.0285116
0.0285116
0.0285116
0.0285116
0.0285116
0.0285116
0.0285116
0.0285116
0.0285116
0.0285116
0.0285116
0.0285116
0.0285116
0.0285116
0.0285116
0.0285116
0.0285116
0.0285116
0.0285116
0.0285116
0.0285116
0.0285116
0.0285116
0.0285116
0.0285116
0.0285116
0.0285116
0.0285116
0.0285116
0.0285116
0.0285116
0.0285116
0.0285116
0.0285116
0.0285116
0.0285116
0.0285116
0.0285116
0.0285116
0.0285116
0.0285116
0.0285116
0.0285116
0.0285116
0.0285116
0.0285116
0.0285116
0.0285116
0.0285116
0.0285116
0.0285116
0.0285116
0.0285116
0.0285116
0.0285116
0.0285116
0.0285116
0.0285116
0.0285116
0.0285116
0.0285116
0.0285116
0.0285116
0.0285116
0.0285116
0.0285116
0.0285116
0.0285116
0.0285116
0.0285116
0.0285116
0.0285116
0.0285116
0.0285116
0.0285116
0.0285116
0.0285116
0.0285116
0.0285116
0.0285116
0.0285116
0.0285116
0.0285116
0.0285116
0.0285116
0.0285116
0.0285116
0.0285116
0.0285116
0.0285116
0.0285116
0.0285116
0.0285116
0.0285116
0.0285116
0.0285116
0.0285116
0.0285116
0.0285116
0.0285116
0.0285116
0.0285116
0.0285116
0.0285116
0.0285116
0.0285116
0.0285116
0.0285116
0.0285116
0.0285116
0.0285116
0.0285116
0.0285116
0.0285116
0.0285116
0.0285116
0.0285116
0.0285116
0.0285116
0.0285116
0.0285116
0.0285116
0.0285116
0.0285116
0.0285116
0.0285116
0.0285116
0.0285116
0.0285116
0.0285116
0.0285116
0.0285116
0.0285116
0.0285116
0.0285116
0.0285116
0.0285116
0.0285116
0.0285116
0.0285116
0.0285116
0.0285116
0.0285116
0.0285116
0.0285116
0.0285116
0.0285116
0.0285116
0.0285116
0.0285116
0.0285116
0.0285116
0.0285116
0.0285116
0.0285116
0.0285116
0.0285116
0.0285116
0.0285116
0.0285116
0.0285116
0.0285116
0.0285116
0.0285116
0.0285116
0.0285116
0.0285116
0.0285116
0.0285116
0.0285116
0.0285116
0.0285116
0.0285116
0.0285116
0.0285116
0.0285116
0.0285116
0.0285116
0.0285116
0.0285116
0.0285116
0.0285116
0.0285116
0.0285116
0.0285116
0.0285116
0.0285116
0.0285116
0.0285116
0.0285116
0.0285116
0.0285116
0.0285116
0.0285116
0.0285116
0.0285116
0.0285116
0.0285116
0.0285116
0.0285116
0.0285116
0.0285116
0.0285116
0.0285116
0.0285116
0.0285116
0.0285116
0.0285116
0.0285116
0.0285116
0.0285116
0.0285116
0.0285116
0.0285116
0.0285116
0.0285116
0.0285116
0.0285116
0.0285116
0.0285116
0.0285116
0.0285116
0.0285116
0.0285116
0.0285115
0.0285115
0.0285114
0.0285111
0.0285105
0.0285093
0.0285066
0.028501
0.0284891
0.0284641
0.0284116
0.0283023
0.0280776
0.0276295
0.0267949
0.0254051
0.0234046
0.0209424
0.0181512
0.0151235
0.0121048
0.00946802
0.00746133
0.00597847
0.00508896
0.00453439
0.00419298
0.00398201
0.00384895
0.00376174
0.0037012
0.00365604
0.0036197
0.00358838
0.00355991
0.0035331
0.00350728
0.00348209
0.00345736
0.00343302
0.00340905
0.00338543
0.0033622
0.00333937
0.00331696
0.00329498
0.00327345
0.00325238
0.00323242
0.00321335
0.00319467
0.00317637
0.00315846
0.00314094
0.00312381
0.00310707
0.00309074
0.0030748
0.00305926
0.00304413
0.0030294
0.00301508
0.00300117
0.00298768
0.0029746
0.00296194
0.0029497
0.00293788
0.00292649
0.00291553
0.00290501
0.00289492
0.00288527
0.00287607
0.0028673
0.00285899
0.00285113
0.00284371
0.00283674
0.00283022
0.00282414
0.0028185
0.0028133
0.00280853
0.00280417
0.00280023
0.00279668
0.00279351
0.00279071
0.00278825
0.00278612
0.00278428
0.00278272
0.0027814
0.00278028
0.00277934
0.00277853
0.00277782
0.00277716
0.00277651
0.00277581
0.00277503
0.00277411
0.00277299
0.00277164
0.00276999
0.00276801
0.00276566
0.00276289
0.00275968
0.00275602
0.00275189
0.00274636
0.00274002
0.00273291
0.00272496
0.00271615
0.00270643
0.00269577
0.00268417
0.00267159
0.00265801
0.00264343
0.00262783
0.00261121
0.00259356
0.00257489
0.0025552
0.00253452
0.00251286
0.00249024
0.0024667
0.00244227
0.00241699
0.00239091
0.00236406
0.00233652
0.00230833
0.00227954
0.00225023
0.00222046
0.0021903
0.00215981
0.00212907
0.00209814
0.0020671
0.00203602
0.00200497
0.00197402
0.00194325
0.00191271
0.00188249
0.00185263
0.00182321
0.00179427
0.00176589
0.0017381
0.00171095
0.0016845
0.00165877
0.0016338
0.00160963
0.00158628
0.00156377
0.00154212
0.00152135
0.00150145
0.00148243
0.00146431
0.00144706
0.00143069
0.00141518
0.00140053
0.0013867
0.0013737
0.00136148
0.00135004
0.00133934
0.00132936
0.00132007
0.00131144
0.00130344
0.00129605
0.00128922
0.00128294
0.00127717
0.00127188
0.00126704
0.00126262
0.0012586
0.00125494
0.00125163
0.00124863
0.00124593
0.00124349
0.0012413
0.00123934
0.00123759
0.00123602
0.00123463
0.00123339
0.00123229
0.00123132
0.00123047
0.00122972
0.00122906
0.00122848
0.00122798
0.00122754
0.00122716
0.00122683
0.00122654
0.0012263
0.00122609
0.00122591
0.00122575
0.00122562
0.00122551
0.00122542
0.00122534
0.00122528
0.00122522
0.00122518
0.00122514
0.00122511
0.00122509
0.00122507
0.00122506
0.00122505
0.00122504
0.00122503
0.00122503
0.00122502
0.00122502
0.00122502
0.00122502
)
;

boundaryField
{
    boundary
    {
        type            empty;
    }
    inlet
    {
        type            fixedValue;
        value           uniform 0.0285116;
    }
    outlet
    {
        type            zeroGradient;
    }
}


// ************************************************************************* //
