/*--------------------------------*- C++ -*----------------------------------*\
  =========                 |
  \\      /  F ield         | OpenFOAM: The Open Source CFD Toolbox
   \\    /   O peration     | Website:  https://openfoam.org
    \\  /    A nd           | Version:  7
     \\/     M anipulation  |
\*---------------------------------------------------------------------------*/
FoamFile
{
    version     2.0;
    format      ascii;
    class       volScalarField;
    location    "0.00024";
    object      H2O;
}
// * * * * * * * * * * * * * * * * * * * * * * * * * * * * * * * * * * * * * //

dimensions      [0 0 0 0 0 0 0];

internalField   nonuniform List<scalar> 
500
(
7.96621e-48
2.31277e-47
4.18477e-47
6.31771e-47
8.65457e-47
1.11642e-46
1.38317e-46
1.66511e-46
1.96192e-46
2.27299e-46
2.59704e-46
2.93175e-46
3.27359e-46
3.61784e-46
3.95878e-46
4.29008e-46
4.60539e-46
4.89884e-46
5.16564e-46
5.4024e-46
5.60741e-46
5.78055e-46
5.9232e-46
6.03785e-46
6.12777e-46
6.19661e-46
6.24808e-46
6.28569e-46
6.31254e-46
6.33129e-46
6.34411e-46
6.35268e-46
6.3583e-46
6.36191e-46
6.36418e-46
6.36557e-46
6.36642e-46
6.36692e-46
6.3672e-46
6.36736e-46
6.36745e-46
6.36749e-46
6.36751e-46
6.36752e-46
6.36752e-46
6.36751e-46
6.36751e-46
6.3675e-46
6.36749e-46
6.36749e-46
6.36749e-46
6.36748e-46
6.36748e-46
6.36749e-46
6.36749e-46
6.36749e-46
6.3675e-46
6.36751e-46
6.36752e-46
6.36754e-46
6.36756e-46
6.36758e-46
6.3676e-46
6.36762e-46
6.36765e-46
6.36769e-46
6.36772e-46
6.36776e-46
6.36781e-46
6.36786e-46
6.36791e-46
6.36797e-46
6.36803e-46
6.3681e-46
6.36817e-46
6.36824e-46
6.36833e-46
6.36841e-46
6.36851e-46
6.3686e-46
6.36871e-46
6.36882e-46
6.36894e-46
6.36906e-46
6.36919e-46
6.36932e-46
6.36947e-46
6.36962e-46
6.36977e-46
6.36994e-46
6.37011e-46
6.37029e-46
6.37048e-46
6.37067e-46
6.37087e-46
6.37108e-46
6.3713e-46
6.37153e-46
6.37177e-46
6.37201e-46
6.37226e-46
6.37252e-46
6.37279e-46
6.37307e-46
6.37336e-46
6.37365e-46
6.37396e-46
6.37427e-46
6.37459e-46
6.37492e-46
6.37526e-46
6.37561e-46
6.37596e-46
6.37633e-46
6.3767e-46
6.37708e-46
6.37747e-46
6.37787e-46
6.37827e-46
6.37868e-46
6.37909e-46
6.37951e-46
6.37998e-46
6.38078e-46
6.38317e-46
6.38876e-46
6.38701e-46
6.38445e-46
6.38132e-46
6.37788e-46
6.37427e-46
6.37061e-46
6.36701e-46
6.36369e-46
6.36094e-46
6.35903e-46
6.35818e-46
6.35848e-46
6.35987e-46
6.3622e-46
6.36522e-46
6.36866e-46
6.37226e-46
6.37581e-46
6.37914e-46
6.38214e-46
6.38477e-46
6.387e-46
6.38886e-46
6.39039e-46
6.39164e-46
6.39266e-46
6.39349e-46
6.39417e-46
6.39475e-46
6.39524e-46
6.39567e-46
6.39605e-46
6.39638e-46
6.39667e-46
6.39693e-46
6.39716e-46
6.39735e-46
6.39751e-46
6.39764e-46
6.39772e-46
6.39777e-46
6.39778e-46
6.39774e-46
6.39766e-46
6.39753e-46
6.39735e-46
6.39712e-46
6.39684e-46
6.39649e-46
6.39609e-46
6.39562e-46
6.39508e-46
6.39448e-46
6.39381e-46
6.39306e-46
6.39224e-46
6.39133e-46
6.39035e-46
6.38927e-46
6.38811e-46
6.38686e-46
6.38551e-46
6.38407e-46
6.38253e-46
6.38088e-46
6.37913e-46
6.37727e-46
6.3753e-46
6.37321e-46
6.37101e-46
6.36869e-46
6.36624e-46
6.36368e-46
6.36098e-46
6.35816e-46
6.35521e-46
6.35212e-46
6.3489e-46
6.34555e-46
6.34206e-46
6.33843e-46
6.33466e-46
6.33075e-46
6.3267e-46
6.3225e-46
6.31817e-46
6.31369e-46
6.30909e-46
6.30447e-46
6.30054e-46
6.30207e-46
6.34136e-46
6.63407e-46
8.61097e-46
2.16952e-45
1.07538e-44
6.67073e-44
4.2942e-43
2.76995e-42
1.78203e-41
1.14376e-40
7.33207e-40
4.7007e-39
3.01791e-38
1.94249e-37
1.25462e-36
8.1357e-36
5.29719e-35
3.46176e-34
2.26877e-33
1.48939e-32
9.77964e-32
6.41263e-31
4.19201e-30
2.72742e-29
1.76323e-28
1.1308e-27
7.18289e-27
4.51222e-26
2.79924e-25
1.71275e-24
1.03248e-23
6.12688e-23
3.57672e-22
2.05312e-21
1.1482e-20
6.36086e-20
3.46469e-19
1.85281e-18
9.72312e-18
5.00554e-17
2.52737e-16
1.25141e-15
6.07615e-15
2.89337e-14
1.35156e-13
6.196e-13
2.78937e-12
1.2342e-11
5.37288e-11
2.30416e-10
9.74786e-10
4.07427e-09
1.685e-08
6.90556e-08
2.80826e-07
1.13455e-06
4.55744e-06
1.82034e-05
7.2145e-05
0.00028144
0.00105547
0.00359568
0.0101222
0.0220524
0.0381411
0.0576786
0.0810793
0.106973
0.131515
0.151134
0.16836
0.178627
0.185528
0.190196
0.193434
0.195771
0.197541
0.198949
0.200122
0.201137
0.202041
0.202865
0.203627
0.20434
0.205014
0.205652
0.206261
0.206843
0.207402
0.207938
0.208455
0.208953
0.209435
0.2099
0.210351
0.210774
0.211179
0.211575
0.211963
0.212344
0.212717
0.213084
0.213445
0.213801
0.214151
0.214497
0.214839
0.215177
0.215512
0.215844
0.216173
0.216499
0.216824
0.217147
0.217468
0.217789
0.218109
0.218428
0.218747
0.219065
0.219384
0.219704
0.220024
0.220344
0.220665
0.220987
0.22131
0.221634
0.221959
0.222284
0.222611
0.222937
0.223265
0.223592
0.22392
0.224247
0.224574
0.2249
0.225226
0.225549
0.225871
0.226191
0.226508
0.226822
0.227134
0.227441
0.227745
0.228045
0.228341
0.228632
0.228918
0.2292
0.229477
0.22975
0.230017
0.230281
0.230541
0.230799
0.231056
0.231297
0.231536
0.23177
0.232001
0.232228
0.232452
0.232674
0.232892
0.233109
0.233323
0.233535
0.233746
0.233955
0.234162
0.234368
0.234572
0.234775
0.234976
0.235175
0.235373
0.235569
0.235763
0.235954
0.236143
0.23633
0.236514
0.236694
0.236871
0.237044
0.237213
0.237378
0.237539
0.237695
0.237845
0.237991
0.238131
0.238266
0.238395
0.238518
0.238635
0.238747
0.238853
0.238952
0.239047
0.239135
0.239218
0.239295
0.239368
0.239435
0.239497
0.239554
0.239607
0.239656
0.239701
0.239742
0.239779
0.239813
0.239844
0.239872
0.239898
0.239921
0.239942
0.239961
0.239978
0.239993
0.240007
0.240019
0.24003
0.24004
0.240049
0.240057
0.240064
0.24007
0.240076
0.240081
0.240086
0.24009
0.240094
0.240097
0.2401
0.240102
0.240105
0.240107
0.240109
0.24011
0.240112
0.240113
0.240114
0.240115
0.240116
0.240117
0.240117
0.240118
0.240118
0.240119
0.240119
0.240119
0.24012
0.24012
0.24012
0.24012
0.24012
0.24012
0.24012
0.24012
0.24012
0.24012
0.24012
0.24012
0.24012
0.24012
0.24012
0.24012
0.24012
0.24012
0.24012
0.24012
0.24012
0.24012
0.240119
0.240119
0.240119
0.240119
0.240119
)
;

boundaryField
{
    boundary
    {
        type            empty;
    }
    inlet
    {
        type            fixedValue;
        value           uniform 0;
    }
    outlet
    {
        type            zeroGradient;
    }
}


// ************************************************************************* //
