/*--------------------------------*- C++ -*----------------------------------*\
  =========                 |
  \\      /  F ield         | OpenFOAM: The Open Source CFD Toolbox
   \\    /   O peration     | Website:  https://openfoam.org
    \\  /    A nd           | Version:  7
     \\/     M anipulation  |
\*---------------------------------------------------------------------------*/
FoamFile
{
    version     2.0;
    format      ascii;
    class       volScalarField;
    location    "0.00024";
    object      H2O2;
}
// * * * * * * * * * * * * * * * * * * * * * * * * * * * * * * * * * * * * * //

dimensions      [0 0 0 0 0 0 0];

internalField   nonuniform List<scalar> 
500
(
2.01711e-52
6.51265e-52
1.30247e-51
2.16179e-51
3.23747e-51
4.53905e-51
6.0761e-51
7.85626e-51
9.88274e-51
1.21513e-50
1.46476e-50
1.73442e-50
2.02002e-50
2.31609e-50
2.61609e-50
2.91281e-50
3.19898e-50
3.46788e-50
3.71393e-50
3.93308e-50
4.12307e-50
4.2834e-50
4.41512e-50
4.52053e-50
4.60273e-50
4.66522e-50
4.71156e-50
4.74511e-50
4.76884e-50
4.78523e-50
4.79632e-50
4.80365e-50
4.80839e-50
4.8114e-50
4.81327e-50
4.81441e-50
4.81509e-50
4.81549e-50
4.81572e-50
4.81584e-50
4.81591e-50
4.81595e-50
4.81597e-50
4.81598e-50
4.81598e-50
4.81598e-50
4.81599e-50
4.81599e-50
4.81599e-50
4.81599e-50
4.816e-50
4.816e-50
4.81601e-50
4.81602e-50
4.81603e-50
4.81604e-50
4.81606e-50
4.81607e-50
4.81609e-50
4.81611e-50
4.81614e-50
4.81616e-50
4.81619e-50
4.81622e-50
4.81625e-50
4.81629e-50
4.81633e-50
4.81638e-50
4.81642e-50
4.81647e-50
4.81653e-50
4.81658e-50
4.81665e-50
4.81671e-50
4.81678e-50
4.81686e-50
4.81693e-50
4.81702e-50
4.81711e-50
4.8172e-50
4.8173e-50
4.8174e-50
4.81751e-50
4.81762e-50
4.81774e-50
4.81787e-50
4.818e-50
4.81813e-50
4.81828e-50
4.81842e-50
4.81858e-50
4.81874e-50
4.81891e-50
4.81908e-50
4.81926e-50
4.81945e-50
4.81964e-50
4.81984e-50
4.82005e-50
4.82027e-50
4.82049e-50
4.82072e-50
4.82095e-50
4.8212e-50
4.82145e-50
4.82171e-50
4.82197e-50
4.82224e-50
4.82252e-50
4.82281e-50
4.82311e-50
4.82341e-50
4.82372e-50
4.82403e-50
4.82436e-50
4.82469e-50
4.82502e-50
4.82537e-50
4.82572e-50
4.82606e-50
4.82639e-50
4.82667e-50
4.82677e-50
4.82647e-50
4.82526e-50
4.82239e-50
4.8196e-50
4.81558e-50
4.81103e-50
4.80641e-50
4.80198e-50
4.79791e-50
4.79433e-50
4.79145e-50
4.78951e-50
4.78871e-50
4.78918e-50
4.79095e-50
4.7939e-50
4.79781e-50
4.80238e-50
4.8073e-50
4.81227e-50
4.81703e-50
4.8214e-50
4.82526e-50
4.82855e-50
4.83129e-50
4.83351e-50
4.83529e-50
4.83669e-50
4.83779e-50
4.83866e-50
4.83936e-50
4.83992e-50
4.8404e-50
4.8408e-50
4.84115e-50
4.84146e-50
4.84173e-50
4.84197e-50
4.84219e-50
4.84238e-50
4.84254e-50
4.84267e-50
4.84277e-50
4.84284e-50
4.84288e-50
4.84288e-50
4.84284e-50
4.84277e-50
4.84265e-50
4.84249e-50
4.84229e-50
4.84204e-50
4.84174e-50
4.84138e-50
4.84098e-50
4.84052e-50
4.84e-50
4.83941e-50
4.83877e-50
4.83806e-50
4.83728e-50
4.83644e-50
4.83552e-50
4.83452e-50
4.83345e-50
4.8323e-50
4.83106e-50
4.82974e-50
4.82834e-50
4.82684e-50
4.82526e-50
4.82358e-50
4.8218e-50
4.81992e-50
4.81795e-50
4.81587e-50
4.81369e-50
4.81141e-50
4.80901e-50
4.80651e-50
4.80389e-50
4.80117e-50
4.79833e-50
4.79538e-50
4.79231e-50
4.78912e-50
4.78582e-50
4.7824e-50
4.77887e-50
4.77522e-50
4.77145e-50
4.76756e-50
4.76356e-50
4.75952e-50
4.75608e-50
4.75985e-50
4.83671e-50
5.63797e-50
1.35279e-49
8.9972e-49
8.21597e-48
7.74015e-47
7.23747e-46
6.68803e-45
6.10394e-44
5.50068e-43
4.89352e-42
4.29666e-41
3.72256e-40
3.18165e-39
2.68195e-38
2.2291e-37
1.82632e-36
1.4746e-35
1.17304e-34
9.19129e-34
7.09164e-33
5.38644e-32
4.02638e-31
2.96104e-30
2.14161e-29
1.52277e-28
1.06402e-27
7.30284e-27
4.92114e-26
3.25438e-25
2.11098e-24
1.3421e-23
8.37906e-23
5.11736e-22
3.06025e-21
1.79152e-20
1.02638e-19
5.75318e-19
3.15461e-18
1.69195e-17
8.87694e-17
4.55687e-16
2.28971e-15
1.1269e-14
5.43729e-14
2.57503e-13
1.19872e-12
5.49433e-12
2.48415e-11
1.11004e-10
4.91139e-10
2.15539e-09
9.39627e-09
4.07372e-08
1.75709e-07
7.52424e-07
3.16571e-06
1.2597e-05
4.22164e-05
9.29283e-05
0.000123374
0.000110271
6.27706e-05
2.68602e-05
1.08377e-05
5.56495e-06
4.431e-06
4.67803e-06
5.37717e-06
5.95825e-06
6.3838e-06
6.63982e-06
6.75277e-06
6.758e-06
6.68736e-06
6.56582e-06
6.41173e-06
6.23811e-06
6.05405e-06
5.86574e-06
5.67736e-06
5.49174e-06
5.31068e-06
5.13535e-06
4.96642e-06
4.80425e-06
4.64897e-06
4.50057e-06
4.35892e-06
4.22384e-06
4.09512e-06
3.97254e-06
3.85592e-06
3.74842e-06
3.64732e-06
3.5503e-06
3.45717e-06
3.36774e-06
3.28183e-06
3.19926e-06
3.11987e-06
3.04351e-06
2.97004e-06
2.89931e-06
2.83119e-06
2.76555e-06
2.70227e-06
2.64123e-06
2.58233e-06
2.52546e-06
2.47052e-06
2.41741e-06
2.36604e-06
2.31633e-06
2.26818e-06
2.22152e-06
2.17628e-06
2.13236e-06
2.0897e-06
2.04823e-06
2.00788e-06
1.96858e-06
1.93027e-06
1.89288e-06
1.85635e-06
1.82062e-06
1.78563e-06
1.75133e-06
1.71765e-06
1.68455e-06
1.65198e-06
1.61987e-06
1.58819e-06
1.55689e-06
1.52592e-06
1.49524e-06
1.46482e-06
1.43461e-06
1.40459e-06
1.37473e-06
1.345e-06
1.31539e-06
1.28587e-06
1.25644e-06
1.22709e-06
1.19781e-06
1.16862e-06
1.13952e-06
1.11052e-06
1.08163e-06
1.05289e-06
1.0243e-06
9.95895e-07
9.67696e-07
9.39729e-07
9.12034e-07
8.84749e-07
8.57538e-07
8.31208e-07
8.05292e-07
7.79856e-07
7.54945e-07
7.30597e-07
7.06843e-07
6.83711e-07
6.61225e-07
6.39404e-07
6.18266e-07
5.97824e-07
5.78087e-07
5.59061e-07
5.40748e-07
5.23147e-07
5.06252e-07
4.90056e-07
4.74548e-07
4.59717e-07
4.45545e-07
4.32018e-07
4.19117e-07
4.06821e-07
3.95112e-07
3.83967e-07
3.73366e-07
3.63286e-07
3.53706e-07
3.44604e-07
3.35959e-07
3.2775e-07
3.19956e-07
3.12558e-07
3.05536e-07
2.98872e-07
2.92547e-07
2.86546e-07
2.80851e-07
2.75448e-07
2.70321e-07
2.65457e-07
2.60844e-07
2.56468e-07
2.52318e-07
2.48384e-07
2.44654e-07
2.41121e-07
2.37774e-07
2.34605e-07
2.31607e-07
2.28771e-07
2.26092e-07
2.23562e-07
2.21174e-07
2.18924e-07
2.16805e-07
2.14811e-07
2.12938e-07
2.1118e-07
2.09533e-07
2.07991e-07
2.06549e-07
2.05204e-07
2.0395e-07
2.02784e-07
2.017e-07
2.00696e-07
1.99766e-07
1.98906e-07
1.98113e-07
1.97383e-07
1.96713e-07
1.96097e-07
1.95534e-07
1.95019e-07
1.94549e-07
1.94122e-07
1.93734e-07
1.93382e-07
1.93063e-07
1.92776e-07
1.92517e-07
1.92284e-07
1.92075e-07
1.91887e-07
1.9172e-07
1.91571e-07
1.91438e-07
1.9132e-07
1.91215e-07
1.91122e-07
1.9104e-07
1.90968e-07
1.90904e-07
1.90849e-07
1.908e-07
1.90757e-07
1.90719e-07
1.90686e-07
1.90658e-07
1.90633e-07
1.90611e-07
1.90592e-07
1.90576e-07
1.90561e-07
1.90548e-07
1.90538e-07
1.90528e-07
1.9052e-07
1.90512e-07
1.90506e-07
1.905e-07
1.90495e-07
1.9049e-07
1.90486e-07
1.90482e-07
1.90479e-07
1.90476e-07
1.90473e-07
1.9047e-07
1.90468e-07
1.90466e-07
1.90464e-07
)
;

boundaryField
{
    boundary
    {
        type            empty;
    }
    inlet
    {
        type            fixedValue;
        value           uniform 0;
    }
    outlet
    {
        type            zeroGradient;
    }
}


// ************************************************************************* //
