/*--------------------------------*- C++ -*----------------------------------*\
  =========                 |
  \\      /  F ield         | OpenFOAM: The Open Source CFD Toolbox
   \\    /   O peration     | Website:  https://openfoam.org
    \\  /    A nd           | Version:  7
     \\/     M anipulation  |
\*---------------------------------------------------------------------------*/
FoamFile
{
    version     2.0;
    format      ascii;
    class       volScalarField;
    location    "0.00024";
    object      HO2;
}
// * * * * * * * * * * * * * * * * * * * * * * * * * * * * * * * * * * * * * //

dimensions      [0 0 0 0 0 0 0];

internalField   nonuniform List<scalar> 
500
(
5.61688e-38
1.28251e-37
2.0121e-37
2.75107e-37
3.50246e-37
4.27012e-37
5.05791e-37
5.86905e-37
6.70543e-37
7.56691e-37
8.45072e-37
9.35097e-37
1.02585e-36
1.11611e-36
1.20444e-36
1.28928e-36
1.36912e-36
1.44259e-36
1.50865e-36
1.56663e-36
1.6163e-36
1.6578e-36
1.69163e-36
1.71852e-36
1.7394e-36
1.75522e-36
1.76692e-36
1.77539e-36
1.78137e-36
1.78551e-36
1.78831e-36
1.79017e-36
1.79137e-36
1.79214e-36
1.79262e-36
1.79291e-36
1.79308e-36
1.79319e-36
1.79325e-36
1.79328e-36
1.7933e-36
1.79331e-36
1.79331e-36
1.79331e-36
1.79332e-36
1.79332e-36
1.79332e-36
1.79332e-36
1.79332e-36
1.79332e-36
1.79332e-36
1.79332e-36
1.79332e-36
1.79332e-36
1.79333e-36
1.79333e-36
1.79333e-36
1.79334e-36
1.79334e-36
1.79335e-36
1.79335e-36
1.79336e-36
1.79337e-36
1.79337e-36
1.79338e-36
1.79339e-36
1.7934e-36
1.79341e-36
1.79342e-36
1.79344e-36
1.79345e-36
1.79346e-36
1.79348e-36
1.7935e-36
1.79351e-36
1.79353e-36
1.79355e-36
1.79357e-36
1.7936e-36
1.79362e-36
1.79364e-36
1.79367e-36
1.7937e-36
1.79373e-36
1.79376e-36
1.79379e-36
1.79382e-36
1.79386e-36
1.79389e-36
1.79393e-36
1.79397e-36
1.79401e-36
1.79405e-36
1.7941e-36
1.79414e-36
1.79419e-36
1.79424e-36
1.79429e-36
1.79435e-36
1.7944e-36
1.79446e-36
1.79452e-36
1.79458e-36
1.79464e-36
1.7947e-36
1.79477e-36
1.79484e-36
1.79491e-36
1.79498e-36
1.79505e-36
1.79513e-36
1.79521e-36
1.79529e-36
1.79537e-36
1.79545e-36
1.79554e-36
1.79562e-36
1.79571e-36
1.7958e-36
1.79589e-36
1.79597e-36
1.79602e-36
1.79598e-36
1.79576e-36
1.79536e-36
1.79503e-36
1.79276e-36
1.79024e-36
1.78797e-36
1.78626e-36
1.78521e-36
1.78475e-36
1.78472e-36
1.78501e-36
1.78553e-36
1.78623e-36
1.78708e-36
1.78807e-36
1.78915e-36
1.7903e-36
1.79147e-36
1.79262e-36
1.79372e-36
1.79474e-36
1.79564e-36
1.79643e-36
1.7971e-36
1.79766e-36
1.79811e-36
1.79847e-36
1.79877e-36
1.799e-36
1.79919e-36
1.79934e-36
1.79947e-36
1.79958e-36
1.79968e-36
1.79976e-36
1.79984e-36
1.7999e-36
1.79996e-36
1.80002e-36
1.80006e-36
1.8001e-36
1.80013e-36
1.80015e-36
1.80017e-36
1.80017e-36
1.80017e-36
1.80016e-36
1.80013e-36
1.8001e-36
1.80005e-36
1.79999e-36
1.79992e-36
1.79984e-36
1.79974e-36
1.79963e-36
1.79951e-36
1.79937e-36
1.79921e-36
1.79904e-36
1.79885e-36
1.79864e-36
1.79841e-36
1.79817e-36
1.7979e-36
1.79762e-36
1.79731e-36
1.79698e-36
1.79663e-36
1.79626e-36
1.79586e-36
1.79544e-36
1.795e-36
1.79453e-36
1.79403e-36
1.79351e-36
1.79296e-36
1.79239e-36
1.79178e-36
1.79115e-36
1.79049e-36
1.7898e-36
1.78908e-36
1.78834e-36
1.78756e-36
1.78675e-36
1.78591e-36
1.78504e-36
1.78414e-36
1.78321e-36
1.78225e-36
1.78125e-36
1.78023e-36
1.77918e-36
1.77809e-36
1.77698e-36
1.77583e-36
1.77466e-36
1.77345e-36
1.77222e-36
1.77096e-36
1.76967e-36
1.76836e-36
1.76708e-36
1.76603e-36
1.76653e-36
1.77619e-36
1.83896e-36
2.20714e-36
4.31964e-36
1.63328e-35
8.42216e-35
4.6585e-34
2.60151e-33
1.45099e-32
8.07377e-32
4.48502e-31
2.48997e-30
1.38311e-29
7.69515e-29
4.29187e-28
2.40087e-27
1.34698e-26
7.57327e-26
4.26018e-25
2.39205e-24
1.33695e-23
7.41883e-23
4.0788e-22
2.20687e-21
1.1855e-20
6.29288e-20
3.29549e-19
1.70087e-18
8.64496e-18
4.32463e-17
2.1286e-16
1.0308e-15
4.91234e-15
2.30491e-14
1.06564e-13
4.8596e-13
2.18857e-12
9.74717e-12
4.29892e-11
1.88007e-10
8.16271e-10
3.52171e-09
1.51093e-08
6.44694e-08
2.73355e-07
1.14799e-06
4.73385e-06
1.88395e-05
6.93156e-05
0.000213568
0.000443775
0.000520141
0.000450626
0.000338213
0.000239925
0.000168228
0.000117735
8.25379e-05
5.89046e-05
4.07479e-05
3.06669e-05
2.42037e-05
1.99721e-05
1.71099e-05
1.5094e-05
1.36117e-05
1.24756e-05
1.15721e-05
1.08309e-05
1.02071e-05
9.67145e-06
9.20407e-06
8.79102e-06
8.42224e-06
8.09022e-06
7.78922e-06
7.51473e-06
7.26315e-06
7.03156e-06
6.81754e-06
6.61908e-06
6.43451e-06
6.26243e-06
6.10173e-06
5.95599e-06
5.82063e-06
5.69222e-06
5.57019e-06
5.45402e-06
5.34327e-06
5.23752e-06
5.13639e-06
5.03956e-06
4.94671e-06
4.85757e-06
4.77187e-06
4.68937e-06
4.60987e-06
4.53315e-06
4.45902e-06
4.3873e-06
4.31783e-06
4.25044e-06
4.18499e-06
4.12134e-06
4.05935e-06
3.99888e-06
3.93983e-06
3.88207e-06
3.82548e-06
3.76998e-06
3.71545e-06
3.6618e-06
3.60893e-06
3.55677e-06
3.50524e-06
3.45425e-06
3.40374e-06
3.35365e-06
3.30392e-06
3.2545e-06
3.20535e-06
3.15642e-06
3.10768e-06
3.05912e-06
3.01072e-06
2.96247e-06
2.91436e-06
2.8664e-06
2.81861e-06
2.77101e-06
2.72363e-06
2.6765e-06
2.62967e-06
2.58318e-06
2.5371e-06
2.49149e-06
2.44641e-06
2.40193e-06
2.35814e-06
2.3151e-06
2.2729e-06
2.23162e-06
2.19131e-06
2.15204e-06
2.11382e-06
2.07661e-06
2.04016e-06
2.00659e-06
1.97425e-06
1.94344e-06
1.91422e-06
1.88663e-06
1.8607e-06
1.83646e-06
1.8139e-06
1.79305e-06
1.7739e-06
1.75642e-06
1.74061e-06
1.72641e-06
1.7138e-06
1.70272e-06
1.6931e-06
1.68487e-06
1.67795e-06
1.67226e-06
1.6677e-06
1.66418e-06
1.66161e-06
1.65989e-06
1.65891e-06
1.6586e-06
1.65885e-06
1.65958e-06
1.66071e-06
1.66216e-06
1.66387e-06
1.66577e-06
1.66782e-06
1.66996e-06
1.67217e-06
1.6744e-06
1.67663e-06
1.67884e-06
1.68102e-06
1.68315e-06
1.68525e-06
1.68729e-06
1.68929e-06
1.69124e-06
1.69315e-06
1.69502e-06
1.69686e-06
1.69867e-06
1.70046e-06
1.70223e-06
1.70399e-06
1.70573e-06
1.70746e-06
1.70918e-06
1.71088e-06
1.71257e-06
1.71425e-06
1.7159e-06
1.71753e-06
1.71913e-06
1.7207e-06
1.72224e-06
1.72373e-06
1.72518e-06
1.72659e-06
1.72795e-06
1.72925e-06
1.7305e-06
1.73169e-06
1.73283e-06
1.7339e-06
1.73492e-06
1.73588e-06
1.73678e-06
1.73762e-06
1.73841e-06
1.73914e-06
1.73982e-06
1.74045e-06
1.74103e-06
1.74157e-06
1.74206e-06
1.74251e-06
1.74293e-06
1.74331e-06
1.74365e-06
1.74397e-06
1.74425e-06
1.74452e-06
1.74475e-06
1.74497e-06
1.74517e-06
1.74535e-06
1.74551e-06
1.74566e-06
1.7458e-06
1.74592e-06
1.74604e-06
1.74614e-06
1.74624e-06
1.74633e-06
1.74642e-06
1.74649e-06
1.74657e-06
1.74664e-06
1.7467e-06
1.74676e-06
1.74682e-06
1.74688e-06
1.74693e-06
1.74698e-06
1.74703e-06
1.74708e-06
1.74713e-06
1.74718e-06
1.74722e-06
1.74726e-06
1.7473e-06
1.74735e-06
1.74739e-06
1.74742e-06
1.74746e-06
1.74749e-06
1.74752e-06
1.74754e-06
)
;

boundaryField
{
    boundary
    {
        type            empty;
    }
    inlet
    {
        type            fixedValue;
        value           uniform 0;
    }
    outlet
    {
        type            zeroGradient;
    }
}


// ************************************************************************* //
