/*--------------------------------*- C++ -*----------------------------------*\
  =========                 |
  \\      /  F ield         | OpenFOAM: The Open Source CFD Toolbox
   \\    /   O peration     | Website:  https://openfoam.org
    \\  /    A nd           | Version:  7
     \\/     M anipulation  |
\*---------------------------------------------------------------------------*/
FoamFile
{
    version     2.0;
    format      ascii;
    class       volScalarField;
    location    "0.00024";
    object      N2;
}
// * * * * * * * * * * * * * * * * * * * * * * * * * * * * * * * * * * * * * //

dimensions      [0 0 0 0 0 0 0];

internalField   nonuniform List<scalar> 
500
(
0.745219
0.745219
0.745219
0.745219
0.745219
0.745219
0.745219
0.745219
0.745219
0.745219
0.745219
0.745219
0.745219
0.745219
0.745219
0.745219
0.74522
0.74522
0.74522
0.74522
0.74522
0.74522
0.74522
0.74522
0.74522
0.74522
0.74522
0.74522
0.74522
0.74522
0.74522
0.74522
0.74522
0.74522
0.74522
0.74522
0.74522
0.74522
0.74522
0.74522
0.74522
0.74522
0.74522
0.74522
0.74522
0.74522
0.74522
0.74522
0.74522
0.74522
0.74522
0.74522
0.74522
0.74522
0.74522
0.74522
0.74522
0.74522
0.74522
0.74522
0.74522
0.74522
0.74522
0.74522
0.74522
0.74522
0.74522
0.74522
0.74522
0.74522
0.74522
0.74522
0.74522
0.74522
0.74522
0.74522
0.74522
0.74522
0.74522
0.74522
0.74522
0.74522
0.74522
0.74522
0.74522
0.74522
0.74522
0.74522
0.74522
0.74522
0.74522
0.74522
0.74522
0.74522
0.74522
0.74522
0.74522
0.74522
0.74522
0.74522
0.74522
0.74522
0.74522
0.74522
0.74522
0.74522
0.74522
0.74522
0.74522
0.74522
0.74522
0.74522
0.74522
0.74522
0.74522
0.74522
0.74522
0.74522
0.74522
0.74522
0.74522
0.74522
0.74522
0.74522
0.74522
0.74522
0.74522
0.74522
0.74522
0.74522
0.74522
0.74522
0.74522
0.74522
0.74522
0.74522
0.74522
0.74522
0.74522
0.74522
0.74522
0.74522
0.74522
0.74522
0.74522
0.74522
0.74522
0.74522
0.74522
0.74522
0.74522
0.74522
0.74522
0.74522
0.74522
0.74522
0.74522
0.74522
0.74522
0.74522
0.74522
0.74522
0.74522
0.74522
0.74522
0.74522
0.74522
0.74522
0.74522
0.74522
0.74522
0.74522
0.74522
0.74522
0.74522
0.74522
0.74522
0.74522
0.74522
0.74522
0.74522
0.74522
0.74522
0.74522
0.74522
0.74522
0.74522
0.74522
0.74522
0.74522
0.74522
0.74522
0.74522
0.74522
0.74522
0.74522
0.74522
0.74522
0.74522
0.74522
0.74522
0.74522
0.74522
0.74522
0.74522
0.74522
0.74522
0.74522
0.74522
0.74522
0.74522
0.74522
0.74522
0.74522
0.74522
0.74522
0.74522
0.74522
0.74522
0.74522
0.74522
0.74522
0.74522
0.74522
0.74522
0.74522
0.74522
0.74522
0.74522
0.74522
0.74522
0.74522
0.74522
0.74522
0.74522
0.74522
0.74522
0.74522
0.74522
0.74522
0.74522
0.74522
0.74522
0.74522
0.74522
0.74522
0.74522
0.74522
0.74522
0.74522
0.74522
0.74522
0.74522
0.74522
0.74522
0.74522
0.74522
0.74522
0.74522
0.74522
0.74522
0.74522
0.74522
0.74522
0.74522
0.74522
0.74522
0.74522
0.74522
0.745221
0.745223
0.745227
0.745236
0.745253
0.745287
0.745352
0.745458
0.745586
0.745616
0.745417
0.745046
0.744538
0.74398
0.743635
0.743669
0.743942
0.744121
0.74473
0.744956
0.745115
0.745217
0.74528
0.745317
0.745338
0.745349
0.745353
0.745353
0.745351
0.745347
0.745342
0.745336
0.74533
0.745323
0.745316
0.74531
0.745303
0.745296
0.745289
0.745283
0.745276
0.74527
0.745263
0.745257
0.745251
0.745245
0.74524
0.745234
0.745228
0.745223
0.745217
0.745212
0.745206
0.745201
0.745195
0.74519
0.745184
0.745179
0.745173
0.745168
0.745163
0.745158
0.745153
0.745148
0.745144
0.74514
0.745136
0.745133
0.74513
0.745129
0.745128
0.745127
0.745128
0.74513
0.745133
0.745137
0.745143
0.74515
0.745158
0.745168
0.74518
0.745193
0.745208
0.745224
0.745242
0.745262
0.745283
0.745305
0.745329
0.745355
0.745381
0.745408
0.745437
0.745466
0.745495
0.745524
0.745553
0.745582
0.745611
0.745638
0.745664
0.745689
0.745712
0.745733
0.745751
0.745766
0.745777
0.745789
0.745798
0.745803
0.745805
0.745805
0.7458
0.745793
0.745782
0.745768
0.745751
0.745731
0.745708
0.745682
0.745654
0.745624
0.745592
0.745558
0.745523
0.745487
0.745449
0.745412
0.745374
0.745336
0.745298
0.745261
0.745225
0.745189
0.745155
0.745123
0.745092
0.745063
0.745036
0.745011
0.744989
0.744968
0.74495
0.744935
0.744921
0.74491
0.744901
0.744895
0.74489
0.744888
0.744887
0.744888
0.744891
0.744896
0.744902
0.744909
0.744917
0.744926
0.744936
0.744947
0.744958
0.74497
0.744982
0.744994
0.745006
0.745018
0.745031
0.745043
0.745054
0.745066
0.745077
0.745087
0.745097
0.745107
0.745116
0.745125
0.745133
0.745141
0.745148
0.745155
0.745161
0.745167
0.745172
0.745177
0.745181
0.745185
0.745189
0.745192
0.745196
0.745198
0.745201
0.745203
0.745205
0.745207
0.745208
0.74521
0.745211
0.745212
0.745213
0.745214
0.745215
0.745215
0.745216
0.745216
0.745217
0.745217
0.745218
0.745218
0.745218
0.745218
0.745219
0.745219
0.745219
0.745219
0.745219
0.745219
0.745219
0.745219
0.745219
0.745219
0.745219
0.745219
0.745219
0.745219
0.745219
0.745219
0.745219
0.745219
0.745219
0.745219
0.745219
)
;

boundaryField
{
    boundary
    {
        type            empty;
    }
    inlet
    {
        type            fixedValue;
        value           uniform 0.74522;
    }
    outlet
    {
        type            zeroGradient;
    }
}


// ************************************************************************* //
