/*--------------------------------*- C++ -*----------------------------------*\
  =========                 |
  \\      /  F ield         | OpenFOAM: The Open Source CFD Toolbox
   \\    /   O peration     | Website:  https://openfoam.org
    \\  /    A nd           | Version:  7
     \\/     M anipulation  |
\*---------------------------------------------------------------------------*/
FoamFile
{
    version     2.0;
    format      ascii;
    class       volScalarField;
    location    "0.00024";
    object      O;
}
// * * * * * * * * * * * * * * * * * * * * * * * * * * * * * * * * * * * * * //

dimensions      [0 0 0 0 0 0 0];

internalField   nonuniform List<scalar> 
500
(
1.59101e-47
3.81587e-47
6.08171e-47
8.38841e-47
1.07474e-46
1.31737e-46
1.56823e-46
1.82865e-46
2.09949e-46
2.38096e-46
2.67247e-46
2.97239e-46
3.27803e-46
3.58571e-46
3.89085e-46
4.18833e-46
4.47291e-46
4.73962e-46
4.98423e-46
5.20357e-46
5.39578e-46
5.56032e-46
5.6979e-46
5.81027e-46
5.89993e-46
5.96985e-46
6.02316e-46
6.0629e-46
6.09189e-46
6.11259e-46
6.12707e-46
6.13699e-46
6.14365e-46
6.14804e-46
6.15087e-46
6.15267e-46
6.15378e-46
6.15446e-46
6.15486e-46
6.1551e-46
6.15523e-46
6.15531e-46
6.15534e-46
6.15536e-46
6.15537e-46
6.15537e-46
6.15537e-46
6.15537e-46
6.15537e-46
6.15537e-46
6.15537e-46
6.15537e-46
6.15537e-46
6.15537e-46
6.15538e-46
6.15539e-46
6.1554e-46
6.15541e-46
6.15543e-46
6.15544e-46
6.15546e-46
6.15549e-46
6.15551e-46
6.15554e-46
6.15557e-46
6.15561e-46
6.15565e-46
6.15569e-46
6.15574e-46
6.15579e-46
6.15584e-46
6.1559e-46
6.15596e-46
6.15603e-46
6.1561e-46
6.15618e-46
6.15626e-46
6.15635e-46
6.15644e-46
6.15654e-46
6.15665e-46
6.15676e-46
6.15687e-46
6.157e-46
6.15713e-46
6.15726e-46
6.1574e-46
6.15755e-46
6.15771e-46
6.15787e-46
6.15804e-46
6.15822e-46
6.1584e-46
6.15859e-46
6.15879e-46
6.159e-46
6.15922e-46
6.15944e-46
6.15967e-46
6.15991e-46
6.16016e-46
6.16041e-46
6.16068e-46
6.16095e-46
6.16123e-46
6.16152e-46
6.16182e-46
6.16212e-46
6.16244e-46
6.16276e-46
6.16309e-46
6.16343e-46
6.16378e-46
6.16414e-46
6.1645e-46
6.16487e-46
6.16525e-46
6.16564e-46
6.16603e-46
6.16643e-46
6.16681e-46
6.16717e-46
6.16746e-46
6.16757e-46
6.16721e-46
6.16628e-46
6.16632e-46
6.16623e-46
6.16599e-46
6.16556e-46
6.16493e-46
6.16414e-46
6.16321e-46
6.16224e-46
6.16132e-46
6.16057e-46
6.16012e-46
6.16004e-46
6.16039e-46
6.16119e-46
6.1624e-46
6.16396e-46
6.16578e-46
6.16774e-46
6.16974e-46
6.17169e-46
6.17352e-46
6.17518e-46
6.17666e-46
6.17795e-46
6.17905e-46
6.17998e-46
6.18077e-46
6.18144e-46
6.18202e-46
6.18251e-46
6.18294e-46
6.18332e-46
6.18365e-46
6.18395e-46
6.18421e-46
6.18443e-46
6.18463e-46
6.18478e-46
6.18491e-46
6.185e-46
6.18505e-46
6.18506e-46
6.18503e-46
6.18495e-46
6.18483e-46
6.18466e-46
6.18444e-46
6.18417e-46
6.18384e-46
6.18345e-46
6.183e-46
6.18249e-46
6.18191e-46
6.18127e-46
6.18055e-46
6.17976e-46
6.17889e-46
6.17794e-46
6.17691e-46
6.1758e-46
6.17459e-46
6.1733e-46
6.17191e-46
6.17043e-46
6.16885e-46
6.16716e-46
6.16537e-46
6.16348e-46
6.16147e-46
6.15935e-46
6.15712e-46
6.15477e-46
6.1523e-46
6.14971e-46
6.147e-46
6.14416e-46
6.1412e-46
6.1381e-46
6.13488e-46
6.13152e-46
6.12803e-46
6.12441e-46
6.12065e-46
6.11676e-46
6.11277e-46
6.10884e-46
6.10614e-46
6.11258e-46
6.18072e-46
6.65706e-46
9.80193e-46
3.02021e-45
1.60976e-44
9.90056e-44
6.18816e-43
3.84139e-42
2.35925e-41
1.43248e-40
8.59622e-40
5.0973e-39
2.98606e-38
1.72779e-37
9.87251e-37
5.56947e-36
3.10137e-35
1.70431e-34
9.24062e-34
4.94206e-33
2.60657e-32
1.35544e-31
6.94759e-31
3.50937e-30
1.74646e-29
8.56087e-29
4.13238e-28
1.96382e-27
9.18583e-27
4.22815e-26
1.91469e-25
8.52845e-25
3.73571e-24
1.60888e-23
6.81149e-23
2.83441e-22
1.15911e-21
4.66356e-21
1.84182e-20
7.14534e-20
2.72375e-19
1.02035e-18
3.75719e-18
1.36029e-17
4.84432e-17
1.69783e-16
5.86006e-16
1.99345e-15
6.68968e-15
2.21696e-14
7.26363e-14
2.35558e-13
7.5699e-13
2.41325e-12
7.63954e-12
2.40368e-11
7.5232e-11
2.34434e-10
7.28086e-10
2.25757e-09
7.02159e-09
2.22802e-08
7.65193e-08
3.28717e-07
1.99423e-06
1.37734e-05
7.25965e-05
0.00029856
0.000931934
0.0020605
0.00342587
0.00465944
0.00555801
0.00611849
0.00636594
0.00643532
0.00639446
0.00628919
0.00614901
0.00599208
0.00582927
0.00566687
0.00550837
0.00535562
0.00520946
0.00507019
0.00493775
0.00481191
0.00469235
0.00457871
0.00447061
0.00436769
0.0042696
0.004176
0.00408659
0.00400108
0.00391924
0.00384087
0.00376804
0.0036992
0.00363262
0.00356816
0.00350567
0.00344505
0.00338618
0.00332898
0.00327333
0.00321916
0.00316639
0.00311494
0.00306472
0.00301568
0.00296775
0.00292085
0.00287494
0.00282994
0.0027858
0.00274248
0.0026999
0.00265803
0.00261682
0.00257621
0.00253617
0.00249665
0.00245762
0.00241903
0.00238086
0.00234306
0.00230562
0.0022685
0.00223169
0.00219516
0.00215891
0.0021229
0.00208715
0.00205164
0.00201636
0.00198133
0.00194654
0.001912
0.00187772
0.00184372
0.00181
0.00177658
0.00174349
0.00171075
0.00167836
0.00164637
0.00161478
0.00158362
0.00155292
0.00152268
0.00149294
0.0014637
0.00143499
0.00140681
0.00137917
0.00135208
0.00132552
0.00129948
0.00127396
0.00124898
0.00122467
0.00120096
0.00117782
0.00115523
0.00113315
0.00111158
0.00109047
0.00106983
0.00104962
0.00102983
0.00101044
0.000991441
0.000972806
0.000954524
0.00093658
0.000918962
0.000901656
0.000884654
0.000867945
0.000851522
0.00083538
0.000819514
0.000803922
0.000788603
0.000773556
0.000758783
0.000744287
0.000730072
0.000716141
0.0007025
0.000689154
0.000676108
0.000663369
0.000650942
0.000638832
0.000627044
0.000615584
0.000604455
0.00059366
0.000583204
0.000573088
0.000563315
0.000553883
0.000544795
0.00053605
0.000527645
0.000519579
0.00051185
0.000504453
0.000497384
0.00049064
0.000484214
0.000478101
0.000472295
0.000466789
0.000461575
0.000456646
0.000451995
0.000447612
0.00044349
0.000439619
0.00043599
0.000432595
0.000429424
0.000426467
0.000423715
0.000421159
0.00041879
0.000416597
0.000414571
0.000412705
0.000410987
0.00040941
0.000407965
0.000406644
0.000405439
0.000404341
0.000403344
0.000402439
0.000401621
0.000400882
0.000400216
0.000399617
0.000399081
0.000398601
0.000398172
0.00039779
0.000397451
0.000397151
0.000396885
0.00039665
0.000396444
0.000396263
0.000396105
0.000395967
0.000395848
0.000395744
0.000395654
0.000395577
0.000395511
0.000395454
0.000395406
0.000395366
0.000395331
0.000395303
0.000395279
0.00039526
0.000395244
0.000395231
0.000395221
0.000395213
0.000395207
0.000395203
0.0003952
0.000395199
0.000395198
0.000395198
0.000395199
0.0003952
0.000395201
0.000395203
0.000395205
0.000395206
0.000395207
)
;

boundaryField
{
    boundary
    {
        type            empty;
    }
    inlet
    {
        type            fixedValue;
        value           uniform 0;
    }
    outlet
    {
        type            zeroGradient;
    }
}


// ************************************************************************* //
