/*--------------------------------*- C++ -*----------------------------------*\
  =========                 |
  \\      /  F ield         | OpenFOAM: The Open Source CFD Toolbox
   \\    /   O peration     | Website:  https://openfoam.org
    \\  /    A nd           | Version:  7
     \\/     M anipulation  |
\*---------------------------------------------------------------------------*/
FoamFile
{
    version     2.0;
    format      ascii;
    class       volScalarField;
    location    "0.00024";
    object      O2;
}
// * * * * * * * * * * * * * * * * * * * * * * * * * * * * * * * * * * * * * //

dimensions      [0 0 0 0 0 0 0];

internalField   nonuniform List<scalar> 
500
(
0.226269
0.226269
0.226269
0.226269
0.226269
0.226269
0.226269
0.226269
0.226269
0.226269
0.226269
0.226269
0.226269
0.226269
0.226269
0.226269
0.226269
0.226269
0.226269
0.226269
0.226269
0.226269
0.226269
0.226269
0.226269
0.226269
0.226269
0.226269
0.226269
0.226269
0.226269
0.226269
0.226269
0.226269
0.226269
0.226269
0.226269
0.226269
0.226269
0.226269
0.226269
0.226269
0.226269
0.226269
0.226269
0.226269
0.226269
0.226269
0.226269
0.226269
0.226269
0.226269
0.226269
0.226269
0.226269
0.226269
0.226269
0.226269
0.226269
0.226269
0.226269
0.226269
0.226269
0.226269
0.226269
0.226269
0.226269
0.226269
0.226269
0.226269
0.226269
0.226269
0.226269
0.226269
0.226269
0.226269
0.226269
0.226269
0.226269
0.226269
0.226269
0.226269
0.226269
0.226269
0.226269
0.226269
0.226269
0.226269
0.226269
0.226269
0.226269
0.226269
0.226269
0.226269
0.226269
0.226269
0.226269
0.226269
0.226269
0.226269
0.226269
0.226269
0.226269
0.226269
0.226269
0.226269
0.226269
0.226269
0.226269
0.226269
0.226269
0.226269
0.226269
0.226269
0.226269
0.226269
0.226269
0.226269
0.226269
0.226269
0.226269
0.226269
0.226269
0.226269
0.226269
0.226269
0.226269
0.226269
0.226269
0.226269
0.226269
0.226269
0.226269
0.226269
0.226269
0.226269
0.226269
0.226269
0.226269
0.226269
0.226269
0.226269
0.226269
0.226269
0.226269
0.226269
0.226269
0.226269
0.226269
0.226269
0.226269
0.226269
0.226269
0.226269
0.226269
0.226269
0.226269
0.226269
0.226269
0.226269
0.226269
0.226269
0.226269
0.226269
0.226269
0.226269
0.226269
0.226269
0.226269
0.226269
0.226269
0.226269
0.226269
0.226269
0.226269
0.226269
0.226269
0.226269
0.226269
0.226269
0.226269
0.226269
0.226269
0.226269
0.226269
0.226269
0.226269
0.226269
0.226269
0.226269
0.226269
0.226269
0.226269
0.226269
0.226269
0.226269
0.226269
0.226269
0.226269
0.226269
0.226269
0.226269
0.226269
0.226269
0.226269
0.226269
0.226269
0.226269
0.226269
0.226269
0.226269
0.226269
0.226269
0.226269
0.226269
0.226269
0.226269
0.226269
0.226269
0.226269
0.226269
0.226269
0.226269
0.226269
0.226269
0.226269
0.226269
0.226269
0.226269
0.226269
0.226269
0.226269
0.226269
0.226269
0.226269
0.226269
0.226269
0.226269
0.226269
0.226269
0.226269
0.226269
0.226269
0.226269
0.226269
0.226269
0.226269
0.226269
0.226269
0.226269
0.226269
0.226269
0.226269
0.226269
0.226269
0.226269
0.226269
0.226269
0.226269
0.226269
0.226269
0.226269
0.226269
0.226269
0.226269
0.226269
0.226269
0.226269
0.226269
0.226269
0.22627
0.226271
0.226274
0.226277
0.226277
0.226251
0.226099
0.225465
0.223396
0.218098
0.208106
0.194525
0.177378
0.155514
0.130054
0.105129
0.0848803
0.0664219
0.0554308
0.0479844
0.0429465
0.0394804
0.0370224
0.0352102
0.0338158
0.0326969
0.0317643
0.0309621
0.0302543
0.0296178
0.0290369
0.0285008
0.0280021
0.027535
0.0270952
0.0266795
0.0262851
0.0259098
0.0255516
0.0252089
0.0248806
0.0245658
0.0242727
0.0239934
0.0237217
0.023457
0.0231987
0.0229464
0.0226994
0.0224574
0.0222199
0.0219864
0.0217567
0.0215303
0.0213069
0.0210861
0.0208676
0.0206512
0.0204364
0.020223
0.0200107
0.0197993
0.0195883
0.0193776
0.019167
0.018956
0.0187446
0.0185324
0.0183193
0.018105
0.0178894
0.0176724
0.0174537
0.0172333
0.0170112
0.0167871
0.0165613
0.0163335
0.0161039
0.0158726
0.0156397
0.0154053
0.0151696
0.0149328
0.0146951
0.0144568
0.0142183
0.0139798
0.0137416
0.0135042
0.0132679
0.0130331
0.0128001
0.0125694
0.0123414
0.0121164
0.0118948
0.0116769
0.011463
0.0112535
0.0110486
0.0108483
0.0106529
0.010462
0.0102751
0.0100906
0.00992032
0.00975472
0.00959501
0.00944122
0.00929327
0.00915108
0.00901456
0.00888359
0.00875808
0.0086379
0.00852296
0.00841312
0.00830828
0.0082083
0.00811306
0.00802242
0.00793627
0.00785445
0.00777686
0.00770335
0.00763381
0.00756812
0.00750617
0.00744787
0.00739311
0.0073418
0.00729385
0.0072492
0.00720776
0.00716945
0.00713422
0.00710199
0.00707269
0.00704625
0.00702261
0.00700168
0.00698339
0.00696766
0.0069544
0.00694351
0.00693489
0.00692845
0.00692407
0.00692163
0.00692101
0.00692209
0.00692473
0.00692881
0.00693419
0.00694073
0.00694829
0.00695675
0.00696596
0.00697581
0.00698616
0.00699691
0.00700792
0.0070191
0.00703036
0.00704159
0.00705272
0.00706367
0.00707438
0.00708479
0.00709486
0.00710455
0.00711382
0.00712265
0.00713103
0.00713894
0.00714637
0.00715334
0.00715984
0.00716588
0.00717147
0.00717664
0.00718139
0.00718574
0.00718972
0.00719335
0.00719665
0.00719963
0.00720232
0.00720475
0.00720693
0.00720888
0.00721063
0.00721219
0.00721357
0.0072148
0.00721588
0.00721685
0.00721769
0.00721844
0.00721909
0.00721967
0.00722017
0.00722061
0.007221
0.00722133
0.00722163
0.00722188
0.00722211
0.0072223
0.00722247
0.00722262
0.00722276
0.00722287
0.00722297
0.00722306
0.00722314
0.00722322
0.00722328
0.00722334
0.00722339
0.00722344
0.00722348
0.00722352
0.00722356
0.00722359
0.00722363
0.00722366
0.00722368
0.0072237
)
;

boundaryField
{
    boundary
    {
        type            empty;
    }
    inlet
    {
        type            fixedValue;
        value           uniform 0.226269;
    }
    outlet
    {
        type            zeroGradient;
    }
}


// ************************************************************************* //
