/*--------------------------------*- C++ -*----------------------------------*\
  =========                 |
  \\      /  F ield         | OpenFOAM: The Open Source CFD Toolbox
   \\    /   O peration     | Website:  https://openfoam.org
    \\  /    A nd           | Version:  7
     \\/     M anipulation  |
\*---------------------------------------------------------------------------*/
FoamFile
{
    version     2.0;
    format      ascii;
    class       volScalarField;
    location    "0.00024";
    object      Qdot;
}
// * * * * * * * * * * * * * * * * * * * * * * * * * * * * * * * * * * * * * //

dimensions      [1 -1 -3 0 0 0 0];

internalField   nonuniform List<scalar> 
500
(
-2.45527e-27
-1.87135e-27
-1.75139e-27
-1.7329e-27
-1.73829e-27
-1.75154e-27
-1.76985e-27
-1.79319e-27
-1.82202e-27
-1.85668e-27
-1.89734e-27
-1.94389e-27
-1.99588e-27
-2.05254e-27
-2.11273e-27
-2.175e-27
-2.23769e-27
-2.29908e-27
-2.35751e-27
-2.41155e-27
-2.4601e-27
-2.50251e-27
-2.53852e-27
-2.56828e-27
-2.59222e-27
-2.61099e-27
-2.62535e-27
-2.63607e-27
-2.6439e-27
-2.64948e-27
-2.65338e-27
-2.65605e-27
-2.65784e-27
-2.65901e-27
-2.65977e-27
-2.66025e-27
-2.66055e-27
-2.66073e-27
-2.66084e-27
-2.66091e-27
-2.66095e-27
-2.66097e-27
-2.66098e-27
-2.66099e-27
-2.661e-27
-2.661e-27
-2.66101e-27
-2.66101e-27
-2.66102e-27
-2.66103e-27
-2.66103e-27
-2.66104e-27
-2.66105e-27
-2.66105e-27
-2.66106e-27
-2.66107e-27
-2.66108e-27
-2.66109e-27
-2.66111e-27
-2.66112e-27
-2.66113e-27
-2.66115e-27
-2.66116e-27
-2.66118e-27
-2.6612e-27
-2.66122e-27
-2.66124e-27
-2.66126e-27
-2.66129e-27
-2.66131e-27
-2.66134e-27
-2.66137e-27
-2.6614e-27
-2.66143e-27
-2.66146e-27
-2.6615e-27
-2.66153e-27
-2.66157e-27
-2.66161e-27
-2.66165e-27
-2.6617e-27
-2.66174e-27
-2.66179e-27
-2.66184e-27
-2.6619e-27
-2.66195e-27
-2.66201e-27
-2.66207e-27
-2.66213e-27
-2.6622e-27
-2.66227e-27
-2.66234e-27
-2.66241e-27
-2.66249e-27
-2.66256e-27
-2.66265e-27
-2.66273e-27
-2.66282e-27
-2.66291e-27
-2.663e-27
-2.66309e-27
-2.66319e-27
-2.66329e-27
-2.6634e-27
-2.66351e-27
-2.66362e-27
-2.66373e-27
-2.66385e-27
-2.66397e-27
-2.66409e-27
-2.66421e-27
-2.66434e-27
-2.66447e-27
-2.66461e-27
-2.66475e-27
-2.66489e-27
-2.66503e-27
-2.66518e-27
-2.66533e-27
-2.66548e-27
-2.66563e-27
-2.66579e-27
-2.66594e-27
-2.6661e-27
-2.66628e-27
-2.66644e-27
-2.66656e-27
-2.66671e-27
-2.66686e-27
-2.667e-27
-2.66715e-27
-2.66729e-27
-2.66743e-27
-2.66758e-27
-2.66773e-27
-2.66788e-27
-2.66805e-27
-2.66822e-27
-2.66841e-27
-2.6686e-27
-2.6688e-27
-2.66901e-27
-2.66922e-27
-2.66944e-27
-2.66965e-27
-2.66986e-27
-2.67007e-27
-2.67026e-27
-2.67046e-27
-2.67064e-27
-2.67082e-27
-2.67099e-27
-2.67115e-27
-2.6713e-27
-2.67145e-27
-2.67159e-27
-2.67172e-27
-2.67185e-27
-2.67196e-27
-2.67207e-27
-2.67217e-27
-2.67226e-27
-2.67234e-27
-2.67241e-27
-2.67246e-27
-2.67251e-27
-2.67254e-27
-2.67256e-27
-2.67256e-27
-2.67255e-27
-2.67253e-27
-2.67248e-27
-2.67242e-27
-2.67234e-27
-2.67225e-27
-2.67213e-27
-2.67199e-27
-2.67183e-27
-2.67165e-27
-2.67145e-27
-2.67122e-27
-2.67096e-27
-2.67068e-27
-2.67037e-27
-2.67004e-27
-2.66967e-27
-2.66928e-27
-2.66885e-27
-2.6684e-27
-2.66791e-27
-2.66739e-27
-2.66683e-27
-2.66624e-27
-2.66561e-27
-2.66494e-27
-2.66424e-27
-2.6635e-27
-2.66271e-27
-2.66189e-27
-2.66103e-27
-2.66012e-27
-2.65918e-27
-2.65819e-27
-2.65715e-27
-2.65608e-27
-2.65495e-27
-2.65379e-27
-2.65257e-27
-2.65132e-27
-2.65001e-27
-2.64867e-27
-2.64727e-27
-2.64583e-27
-2.64434e-27
-2.64281e-27
-2.64123e-27
-2.63961e-27
-2.63794e-27
-2.63623e-27
-2.63448e-27
-2.63268e-27
-2.63083e-27
-2.6289e-27
-2.62667e-27
-2.6229e-27
-2.61026e-27
-2.54605e-27
-2.18509e-27
-1.35291e-28
1.14136e-26
7.57513e-26
4.29893e-25
2.35547e-24
1.26962e-23
6.75355e-23
3.54706e-22
1.83949e-21
9.41899e-21
4.76195e-20
2.37711e-19
1.17174e-18
5.70417e-18
2.74296e-17
1.30328e-16
6.12101e-16
2.8431e-15
1.30684e-14
5.94917e-14
2.68474e-13
1.20237e-12
5.35073e-12
2.3752e-11
1.04933e-10
4.6285e-10
2.04216e-09
9.02706e-09
4.003e-08
1.78251e-07
7.97515e-07
3.58573e-06
1.61983e-05
7.34927e-05
0.000334665
0.00152904
0.00700747
0.0322192
0.148739
0.690522
3.23221
15.3126
77.4667
428.58
2781.92
21707.1
176523
1.61477e+06
1.54334e+07
1.42191e+08
1.06818e+09
4.71637e+09
1.04268e+10
1.33767e+10
1.38626e+10
1.39024e+10
1.37631e+10
1.2937e+10
1.12505e+10
9.21511e+09
7.48196e+09
6.16564e+09
5.15578e+09
4.38769e+09
3.79639e+09
3.33269e+09
2.96167e+09
2.65904e+09
2.40788e+09
2.19625e+09
2.01558e+09
1.85959e+09
1.72362e+09
1.6041e+09
1.49827e+09
1.40396e+09
1.31944e+09
1.24331e+09
1.17443e+09
1.11185e+09
1.05478e+09
1.00256e+09
9.54655e+08
9.10673e+08
8.71249e+08
8.35302e+08
8.01614e+08
7.70089e+08
7.40509e+08
7.12715e+08
6.8655e+08
6.61886e+08
6.38593e+08
6.16573e+08
5.95728e+08
5.75971e+08
5.57223e+08
5.39414e+08
5.22478e+08
5.06353e+08
4.90987e+08
4.76327e+08
4.62329e+08
4.48948e+08
4.36146e+08
4.23884e+08
4.1213e+08
4.0085e+08
3.90016e+08
3.796e+08
3.69574e+08
3.59916e+08
3.50601e+08
3.41608e+08
3.32917e+08
3.24509e+08
3.16364e+08
3.08467e+08
3.008e+08
2.93349e+08
2.86098e+08
2.79033e+08
2.72143e+08
2.65414e+08
2.58835e+08
2.52394e+08
2.46083e+08
2.3989e+08
2.33808e+08
2.27829e+08
2.21945e+08
2.16149e+08
2.10435e+08
2.04799e+08
1.99236e+08
1.93742e+08
1.88314e+08
1.8295e+08
1.77648e+08
1.72407e+08
1.67226e+08
1.62107e+08
1.5705e+08
1.52056e+08
1.47129e+08
1.42274e+08
1.37497e+08
1.32878e+08
1.28132e+08
1.23484e+08
1.18935e+08
1.14482e+08
1.1012e+08
1.05846e+08
1.01661e+08
9.75653e+07
9.35599e+07
8.96457e+07
8.58241e+07
8.20957e+07
7.84612e+07
7.49212e+07
7.14763e+07
6.81267e+07
6.48727e+07
6.17145e+07
5.86523e+07
5.56859e+07
5.28155e+07
5.00409e+07
4.73618e+07
4.47784e+07
4.22898e+07
3.98957e+07
3.75955e+07
3.53884e+07
3.32737e+07
3.12501e+07
2.93164e+07
2.74712e+07
2.57128e+07
2.40396e+07
2.24494e+07
2.09403e+07
1.951e+07
1.8156e+07
1.68758e+07
1.5667e+07
1.45265e+07
1.34515e+07
1.24407e+07
1.14915e+07
1.05997e+07
9.76303e+06
8.97881e+06
8.24455e+06
7.55776e+06
6.916e+06
6.31695e+06
5.75829e+06
5.23781e+06
4.75339e+06
4.30302e+06
3.88473e+06
3.49666e+06
3.13705e+06
2.80398e+06
2.49624e+06
2.21202e+06
1.95e+06
1.7086e+06
1.48645e+06
1.28231e+06
1.09519e+06
923945
767180
624078
493658
374917
267106
169357
80931.6
673.108
-71444.6
-136404
-194806
-247203
-294109
-335470
-373486
-405464
-436177
-462331
-485487
-506025
-522924
-540044
-553984
-566357
-577019
-586595
-594923
-602228
-608608
-614204
-619135
-623735
-627371
-630635
-633502
-636550
-638996
-640900
-642758
-644479
-645989
-647721
-649138
-650256
-651519
-652677
-653764
-654801
-655805
-656510
-657524
-658405
-659231
-660037
-660829
-661564
-662122
)
;

boundaryField
{
    boundary
    {
        type            empty;
    }
    inlet
    {
        type            calculated;
        value           uniform 0;
    }
    outlet
    {
        type            calculated;
        value           uniform 0;
    }
}


// ************************************************************************* //
