/*--------------------------------*- C++ -*----------------------------------*\
  =========                 |
  \\      /  F ield         | OpenFOAM: The Open Source CFD Toolbox
   \\    /   O peration     | Website:  https://openfoam.org
    \\  /    A nd           | Version:  7
     \\/     M anipulation  |
\*---------------------------------------------------------------------------*/
FoamFile
{
    version     2.0;
    format      ascii;
    class       volScalarField;
    location    "0.00024";
    object      rho;
}
// * * * * * * * * * * * * * * * * * * * * * * * * * * * * * * * * * * * * * //

dimensions      [1 -3 0 0 0 0 0];

internalField   nonuniform List<scalar> 
500
(
0.864559
0.864526
0.864485
0.864435
0.864372
0.864292
0.864191
0.864066
0.863914
0.863735
0.863529
0.863299
0.863048
0.862782
0.862507
0.86223
0.861958
0.8617
0.861459
0.861241
0.861048
0.860883
0.860744
0.86063
0.860538
0.860467
0.860412
0.860372
0.860342
0.86032
0.860305
0.860295
0.860288
0.860283
0.86028
0.860278
0.860277
0.860276
0.860276
0.860276
0.860275
0.860275
0.860275
0.860275
0.860275
0.860275
0.860275
0.860275
0.860275
0.860275
0.860275
0.860275
0.860274
0.860274
0.860274
0.860274
0.860274
0.860274
0.860274
0.860274
0.860274
0.860274
0.860273
0.860273
0.860273
0.860273
0.860273
0.860273
0.860273
0.860272
0.860272
0.860272
0.860272
0.860272
0.860271
0.860271
0.860271
0.860271
0.860271
0.86027
0.86027
0.86027
0.86027
0.860269
0.860269
0.860269
0.860269
0.860268
0.860268
0.860268
0.860267
0.860267
0.860267
0.860266
0.860266
0.860265
0.860265
0.860265
0.860264
0.860264
0.860263
0.860263
0.860262
0.860262
0.860261
0.860261
0.86026
0.86026
0.860259
0.860259
0.860258
0.860258
0.860257
0.860257
0.860256
0.860255
0.860255
0.860254
0.860253
0.860253
0.860252
0.860251
0.860251
0.86025
0.860249
0.860249
0.860248
0.860248
0.860247
0.860246
0.860246
0.860245
0.860244
0.860244
0.860243
0.860242
0.860242
0.860241
0.86024
0.860239
0.860238
0.860238
0.860237
0.860236
0.860235
0.860234
0.860233
0.860232
0.860232
0.860231
0.86023
0.860229
0.860229
0.860228
0.860227
0.860227
0.860226
0.860225
0.860225
0.860224
0.860224
0.860223
0.860223
0.860223
0.860222
0.860222
0.860222
0.860222
0.860221
0.860221
0.860221
0.860221
0.860221
0.860221
0.860222
0.860222
0.860222
0.860223
0.860223
0.860224
0.860225
0.860225
0.860226
0.860227
0.860228
0.860229
0.860231
0.860232
0.860233
0.860235
0.860237
0.860239
0.860241
0.860243
0.860245
0.860247
0.86025
0.860253
0.860255
0.860258
0.860261
0.860265
0.860268
0.860272
0.860275
0.860279
0.860283
0.860288
0.860292
0.860296
0.860301
0.860306
0.860311
0.860316
0.860322
0.860327
0.860333
0.860339
0.860345
0.860351
0.860358
0.860364
0.860371
0.860378
0.860385
0.860392
0.860399
0.860406
0.860414
0.860422
0.860429
0.860437
0.860445
0.860454
0.860462
0.86047
0.860479
0.860487
0.860496
0.860505
0.860513
0.860522
0.860531
0.86054
0.860549
0.860558
0.860567
0.860577
0.860586
0.860595
0.860605
0.860614
0.860624
0.860633
0.860643
0.860652
0.860662
0.860672
0.860682
0.860692
0.860702
0.860713
0.860723
0.860733
0.860744
0.860755
0.860766
0.860778
0.860789
0.860798
0.860795
0.860747
0.86055
0.859882
0.857781
0.851438
0.833133
0.785174
0.686043
0.550515
0.43069
0.349029
0.295849
0.259407
0.233509
0.21536
0.201964
0.191741
0.18444
0.179084
0.174814
0.171332
0.168427
0.165954
0.163816
0.161943
0.160284
0.158801
0.157464
0.156252
0.155145
0.15413
0.153194
0.152328
0.151524
0.150774
0.150073
0.149416
0.148799
0.148218
0.14767
0.147154
0.146679
0.146236
0.145811
0.145404
0.145014
0.144639
0.144279
0.143933
0.1436
0.14328
0.142971
0.142673
0.142386
0.142108
0.141841
0.141583
0.141333
0.141092
0.140859
0.140634
0.140417
0.140207
0.140004
0.139808
0.139618
0.139435
0.139258
0.139087
0.138921
0.138761
0.138606
0.138456
0.13831
0.138169
0.138031
0.137896
0.137765
0.137636
0.137509
0.137384
0.13726
0.137136
0.137012
0.136887
0.13676
0.136632
0.1365
0.136365
0.136226
0.136082
0.135932
0.135775
0.135612
0.135442
0.135263
0.135076
0.13488
0.134674
0.13446
0.134235
0.134001
0.133757
0.133502
0.133239
0.13297
0.132693
0.132409
0.132119
0.131823
0.131523
0.131219
0.130912
0.130604
0.130296
0.129989
0.129683
0.129381
0.129084
0.128791
0.128505
0.128227
0.127957
0.127696
0.127446
0.127206
0.126978
0.126761
0.126557
0.126365
0.126187
0.126021
0.125868
0.125728
0.125601
0.125487
0.125384
0.125294
0.125215
0.125147
0.125089
0.125042
0.125003
0.124973
0.124951
0.124937
0.124929
0.124928
0.124931
0.12494
0.124953
0.124969
0.124989
0.125011
0.125035
0.125061
0.125088
0.125116
0.125145
0.125174
0.125203
0.125231
0.125259
0.125286
0.125313
0.125338
0.125363
0.125386
0.125408
0.125429
0.125449
0.125468
0.125485
0.125501
0.125516
0.12553
0.125543
0.125555
0.125565
0.125575
0.125584
0.125592
0.125599
0.125606
0.125612
0.125617
0.125622
0.125626
0.125629
0.125633
0.125635
0.125638
0.12564
0.125642
0.125643
0.125644
0.125646
0.125646
0.125647
0.125648
0.125648
0.125648
0.125648
0.125649
0.125649
0.125649
0.125648
0.125648
0.125648
0.125648
0.125647
0.125647
0.125647
0.125646
0.125646
0.125646
0.125645
0.125645
0.125644
0.125644
0.125644
0.125643
0.125643
0.125642
0.125642
0.125642
0.125641
0.125641
0.125641
)
;

boundaryField
{
    boundary
    {
        type            empty;
    }
    inlet
    {
        type            calculated;
        value           uniform 0.864579;
    }
    outlet
    {
        type            calculated;
        value           uniform 0.125641;
    }
}


// ************************************************************************* //
