/*--------------------------------*- C++ -*----------------------------------*\
  =========                 |
  \\      /  F ield         | OpenFOAM: The Open Source CFD Toolbox
   \\    /   O peration     | Website:  https://openfoam.org
    \\  /    A nd           | Version:  7
     \\/     M anipulation  |
\*---------------------------------------------------------------------------*/
FoamFile
{
    version     2.0;
    format      ascii;
    class       volScalarField;
    location    "0.00024";
    object      T;
}
// * * * * * * * * * * * * * * * * * * * * * * * * * * * * * * * * * * * * * //

dimensions      [0 0 0 1 0 0 0];

internalField   nonuniform List<scalar> 
500
(
300.007
300.018
300.033
300.05
300.072
300.099
300.135
300.178
300.231
300.293
300.365
300.445
300.532
300.625
300.721
300.817
300.912
301.002
301.086
301.163
301.23
301.288
301.337
301.377
301.409
301.434
301.453
301.467
301.477
301.485
301.49
301.494
301.496
301.498
301.499
301.499
301.5
301.5
301.5
301.5
301.5
301.5
301.501
301.501
301.501
301.501
301.501
301.501
301.501
301.501
301.501
301.501
301.501
301.501
301.501
301.501
301.501
301.501
301.501
301.501
301.501
301.501
301.501
301.501
301.501
301.501
301.501
301.501
301.501
301.501
301.501
301.501
301.501
301.501
301.501
301.501
301.501
301.501
301.501
301.501
301.501
301.502
301.502
301.502
301.502
301.502
301.502
301.502
301.502
301.502
301.502
301.502
301.502
301.502
301.503
301.503
301.503
301.503
301.503
301.503
301.503
301.503
301.504
301.504
301.504
301.504
301.504
301.504
301.504
301.505
301.505
301.505
301.505
301.505
301.505
301.506
301.506
301.506
301.506
301.506
301.506
301.507
301.507
301.507
301.507
301.507
301.508
301.508
301.508
301.508
301.508
301.509
301.509
301.509
301.509
301.509
301.51
301.51
301.51
301.51
301.51
301.511
301.511
301.511
301.512
301.512
301.512
301.512
301.513
301.513
301.513
301.513
301.513
301.514
301.514
301.514
301.514
301.514
301.514
301.515
301.515
301.515
301.515
301.515
301.515
301.515
301.515
301.515
301.515
301.515
301.515
301.515
301.515
301.515
301.515
301.515
301.515
301.514
301.514
301.514
301.514
301.513
301.513
301.513
301.512
301.512
301.511
301.511
301.51
301.509
301.509
301.508
301.507
301.507
301.506
301.505
301.504
301.503
301.502
301.501
301.5
301.498
301.497
301.496
301.495
301.493
301.492
301.49
301.489
301.487
301.485
301.483
301.482
301.48
301.478
301.476
301.474
301.472
301.469
301.467
301.465
301.462
301.46
301.458
301.455
301.453
301.45
301.447
301.445
301.442
301.439
301.436
301.433
301.43
301.427
301.424
301.421
301.418
301.415
301.412
301.409
301.406
301.403
301.399
301.396
301.393
301.39
301.386
301.383
301.38
301.376
301.373
301.37
301.366
301.363
301.359
301.356
301.352
301.349
301.345
301.342
301.338
301.334
301.331
301.327
301.323
301.319
301.316
301.314
301.314
301.323
301.356
301.459
301.766
302.656
305.225
312.579
332.988
383.697
482.836
624.378
779.883
930.904
1072.67
1201.37
1310.42
1403.6
1482.31
1544.83
1594.49
1636.61
1672.82
1704.43
1732.41
1757.45
1780.05
1800.63
1819.47
1836.83
1852.9
1867.83
1881.77
1894.82
1907.08
1918.61
1929.5
1939.8
1949.57
1958.84
1967.65
1976.03
1984.01
1991.41
1998.35
2005.05
2011.51
2017.74
2023.75
2029.56
2035.18
2040.61
2045.86
2050.94
2055.85
2060.61
2065.22
2069.68
2074
2078.18
2082.23
2086.15
2089.95
2093.62
2097.16
2100.6
2103.92
2107.12
2110.22
2113.22
2116.11
2118.9
2121.6
2124.2
2126.72
2129.16
2131.52
2133.81
2136.04
2138.21
2140.32
2142.4
2144.44
2146.46
2148.46
2150.46
2152.46
2154.49
2156.55
2158.65
2160.8
2163.03
2165.34
2167.74
2170.26
2172.89
2175.65
2178.56
2181.62
2184.85
2188.24
2191.81
2195.56
2199.51
2203.64
2207.97
2212.48
2217.14
2221.98
2226.99
2232.15
2237.45
2242.89
2248.43
2254.07
2259.79
2265.57
2271.39
2277.23
2283.07
2288.89
2294.66
2300.38
2306.01
2311.55
2316.96
2322.24
2327.37
2332.34
2337.12
2341.72
2346.11
2350.3
2354.28
2358.04
2361.58
2364.9
2368
2370.89
2373.56
2376.02
2378.28
2380.34
2382.22
2383.92
2385.45
2386.81
2388.03
2389.11
2390.06
2390.89
2391.61
2392.23
2392.77
2393.22
2393.6
2393.91
2394.17
2394.38
2394.55
2394.68
2394.78
2394.85
2394.9
2394.93
2394.95
2394.95
2394.95
2394.94
2394.92
2394.9
2394.88
2394.86
2394.83
2394.81
2394.79
2394.77
2394.75
2394.74
2394.72
2394.71
2394.7
2394.69
2394.69
2394.68
2394.68
2394.68
2394.68
2394.68
2394.68
2394.68
2394.69
2394.69
2394.7
2394.71
2394.71
2394.72
2394.73
2394.74
2394.74
2394.75
2394.76
2394.77
2394.78
2394.79
2394.79
2394.8
2394.81
2394.82
2394.83
2394.84
2394.85
2394.85
2394.86
2394.87
2394.88
2394.89
2394.9
2394.9
2394.91
2394.92
2394.93
2394.93
2394.94
2394.95
2394.96
2394.96
2394.97
2394.98
2394.98
2394.98
)
;

boundaryField
{
    boundary
    {
        type            empty;
    }
    inlet
    {
        type            fixedValue;
        value           uniform 300;
    }
    outlet
    {
        type            zeroGradient;
    }
}


// ************************************************************************* //
