/*--------------------------------*- C++ -*----------------------------------*\
  =========                 |
  \\      /  F ield         | OpenFOAM: The Open Source CFD Toolbox
   \\    /   O peration     | Website:  https://openfoam.org
    \\  /    A nd           | Version:  7
     \\/     M anipulation  |
\*---------------------------------------------------------------------------*/
FoamFile
{
    version     2.0;
    format      ascii;
    class       volVectorField;
    location    "0.00035";
    object      U;
}
// * * * * * * * * * * * * * * * * * * * * * * * * * * * * * * * * * * * * * //

dimensions      [0 1 -1 0 0 0 0];

internalField   nonuniform List<vector> 
124
(
(15.7538 0 0)
(15.7639 0 0)
(15.7741 0 0)
(15.7842 0 0)
(15.7942 0 0)
(15.804 0 0)
(15.8137 0 0)
(15.8233 0 0)
(15.8327 0 0)
(15.842 0 0)
(15.8513 0 0)
(15.8604 0 0)
(15.8694 0 0)
(15.8783 0 0)
(15.8871 0 0)
(15.8959 0 0)
(15.9046 0 0)
(15.9132 0 0)
(15.9217 0 0)
(15.9301 0 0)
(15.9385 0 0)
(15.9469 0 0)
(15.9551 0 0)
(15.9633 0 0)
(15.9714 0 0)
(15.9795 0 0)
(15.9875 0 0)
(15.9954 0 0)
(16.0033 0 0)
(16.011 0 0)
(16.0187 0 0)
(16.0262 0 0)
(16.0337 0 0)
(16.0411 0 0)
(16.0483 0 0)
(16.0554 0 0)
(16.0623 0 0)
(16.0691 0 0)
(16.0757 0 0)
(16.0821 0 0)
(16.0884 0 0)
(16.0944 0 0)
(16.1002 0 0)
(16.1058 0 0)
(16.1111 0 0)
(16.1162 0 0)
(16.121 0 0)
(16.1256 0 0)
(16.1299 0 0)
(16.1339 0 0)
(16.1377 0 0)
(16.1411 0 0)
(16.1443 0 0)
(16.1472 0 0)
(16.1498 0 0)
(16.1522 0 0)
(16.1543 0 0)
(16.1561 0 0)
(16.1577 0 0)
(16.1591 0 0)
(16.1602 0 0)
(16.1611 0 0)
(16.1619 0 0)
(16.1624 0 0)
(16.1628 0 0)
(16.1631 0 0)
(16.1632 0 0)
(16.1632 0 0)
(16.1632 0 0)
(16.163 0 0)
(16.1628 0 0)
(16.1625 0 0)
(16.1622 0 0)
(16.1619 0 0)
(16.1616 0 0)
(16.1612 0 0)
(16.1609 0 0)
(16.1607 0 0)
(16.1604 0 0)
(16.1602 0 0)
(16.1601 0 0)
(16.1599 0 0)
(16.1599 0 0)
(16.1599 0 0)
(16.1599 0 0)
(16.16 0 0)
(16.1602 0 0)
(16.1604 0 0)
(16.1607 0 0)
(16.161 0 0)
(16.1613 0 0)
(16.1617 0 0)
(16.1621 0 0)
(16.1626 0 0)
(16.163 0 0)
(16.1635 0 0)
(16.164 0 0)
(16.1646 0 0)
(16.1651 0 0)
(16.1656 0 0)
(16.1662 0 0)
(16.1667 0 0)
(16.1672 0 0)
(16.1677 0 0)
(16.1682 0 0)
(16.1686 0 0)
(16.1691 0 0)
(16.1695 0 0)
(16.1699 0 0)
(16.1703 0 0)
(16.1707 0 0)
(16.171 0 0)
(16.1713 0 0)
(16.1716 0 0)
(16.1718 0 0)
(16.172 0 0)
(16.1723 0 0)
(16.1725 0 0)
(16.1727 0 0)
(16.1729 0 0)
(16.1731 0 0)
(16.1733 0 0)
(16.1737 0 0)
(16.1744 0 0)
)
;

boundaryField
{
    boundary
    {
        type            empty;
    }
    inlet
    {
        type            fixedValue;
        value           nonuniform 0();
    }
    outlet
    {
        type            zeroGradient;
    }
    procBoundary0to1
    {
        type            processor;
        value           uniform (15.7436 0 0);
    }
}


// ************************************************************************* //
