/*--------------------------------*- C++ -*----------------------------------*\
  =========                 |
  \\      /  F ield         | OpenFOAM: The Open Source CFD Toolbox
   \\    /   O peration     | Website:  https://openfoam.org
    \\  /    A nd           | Version:  7
     \\/     M anipulation  |
\*---------------------------------------------------------------------------*/
FoamFile
{
    version     2.0;
    format      ascii;
    class       volScalarField;
    location    "0.00037";
    object      H2O2;
}
// * * * * * * * * * * * * * * * * * * * * * * * * * * * * * * * * * * * * * //

dimensions      [0 0 0 0 0 0 0];

internalField   nonuniform List<scalar> 
124
(
1.13194e-06
1.11692e-06
1.10225e-06
1.08786e-06
1.07371e-06
1.0598e-06
1.04609e-06
1.03257e-06
1.01923e-06
1.00605e-06
9.93009e-07
9.80101e-07
9.67312e-07
9.54627e-07
9.42034e-07
9.29521e-07
9.17077e-07
9.04691e-07
8.92353e-07
8.80053e-07
8.67781e-07
8.55528e-07
8.43286e-07
8.31048e-07
8.18806e-07
8.06553e-07
7.94285e-07
7.81995e-07
7.6968e-07
7.57337e-07
7.44964e-07
7.3256e-07
7.20127e-07
7.07665e-07
6.95178e-07
6.82671e-07
6.70149e-07
6.5762e-07
6.45092e-07
6.32576e-07
6.20082e-07
6.07622e-07
5.9521e-07
5.8286e-07
5.70587e-07
5.58406e-07
5.46332e-07
5.34381e-07
5.2257e-07
5.10914e-07
4.99429e-07
4.88129e-07
4.77028e-07
4.66141e-07
4.55479e-07
4.45054e-07
4.34876e-07
4.24955e-07
4.15298e-07
4.05912e-07
3.96802e-07
3.87972e-07
3.79424e-07
3.7116e-07
3.6318e-07
3.55484e-07
3.48068e-07
3.4093e-07
3.34067e-07
3.27472e-07
3.21141e-07
3.15068e-07
3.09246e-07
3.03668e-07
2.98326e-07
2.93212e-07
2.88319e-07
2.83639e-07
2.79162e-07
2.74882e-07
2.7079e-07
2.66877e-07
2.63137e-07
2.59561e-07
2.56142e-07
2.52873e-07
2.49746e-07
2.46756e-07
2.43896e-07
2.4116e-07
2.38541e-07
2.36036e-07
2.33639e-07
2.31344e-07
2.29149e-07
2.27048e-07
2.25038e-07
2.23115e-07
2.21276e-07
2.19517e-07
2.17837e-07
2.16232e-07
2.147e-07
2.13239e-07
2.11846e-07
2.10519e-07
2.09257e-07
2.08058e-07
2.06919e-07
2.05839e-07
2.04816e-07
2.0385e-07
2.02939e-07
2.02081e-07
2.01275e-07
2.00522e-07
1.99821e-07
1.99173e-07
1.9858e-07
1.98046e-07
1.97577e-07
1.97183e-07
1.9688e-07
1.96697e-07
)
;

boundaryField
{
    boundary
    {
        type            empty;
    }
    inlet
    {
        type            fixedValue;
        value           nonuniform 0();
    }
    outlet
    {
        type            zeroGradient;
    }
    procBoundary0to1
    {
        type            processor;
        value           uniform 1.14751e-06;
    }
}


// ************************************************************************* //
