/*--------------------------------*- C++ -*----------------------------------*\
  =========                 |
  \\      /  F ield         | OpenFOAM: The Open Source CFD Toolbox
   \\    /   O peration     | Website:  https://openfoam.org
    \\  /    A nd           | Version:  7
     \\/     M anipulation  |
\*---------------------------------------------------------------------------*/
FoamFile
{
    version     2.0;
    format      ascii;
    class       volScalarField;
    location    "0.00088";
    object      HO2;
}
// * * * * * * * * * * * * * * * * * * * * * * * * * * * * * * * * * * * * * //

dimensions      [0 0 0 0 0 0 0];

internalField   nonuniform List<scalar> 
125
(
5.59305e-38
1.27296e-37
1.98934e-37
2.70634e-37
3.42345e-37
4.14043e-37
4.85709e-37
5.57317e-37
6.28842e-37
7.00256e-37
7.71531e-37
8.42645e-37
9.13581e-37
9.84332e-37
1.0549e-36
1.1253e-36
1.19557e-36
1.26574e-36
1.33585e-36
1.40598e-36
1.47618e-36
1.54652e-36
1.61706e-36
1.68787e-36
1.75901e-36
1.83053e-36
1.90249e-36
1.97492e-36
2.04787e-36
2.12138e-36
2.19551e-36
2.2703e-36
2.34581e-36
2.42213e-36
2.49934e-36
2.57756e-36
2.65691e-36
2.73755e-36
2.81965e-36
2.90339e-36
2.98898e-36
3.07664e-36
3.1666e-36
3.25908e-36
3.35429e-36
3.45245e-36
3.55372e-36
3.65826e-36
3.76615e-36
3.87745e-36
3.99213e-36
4.11011e-36
4.23122e-36
4.35522e-36
4.48176e-36
4.61045e-36
4.74079e-36
4.87221e-36
5.00411e-36
5.1358e-36
5.26657e-36
5.39571e-36
5.52249e-36
5.64618e-36
5.76612e-36
5.88167e-36
5.99227e-36
6.09741e-36
6.1967e-36
6.28982e-36
6.37655e-36
6.45676e-36
6.53043e-36
6.59762e-36
6.65846e-36
6.71316e-36
6.762e-36
6.80529e-36
6.84341e-36
6.87672e-36
6.90564e-36
6.93057e-36
6.9519e-36
6.97004e-36
6.98536e-36
6.99821e-36
7.00891e-36
7.01776e-36
7.02504e-36
7.03099e-36
7.03582e-36
7.03971e-36
7.04283e-36
7.04532e-36
7.0473e-36
7.04885e-36
7.05007e-36
7.05103e-36
7.05177e-36
7.05235e-36
7.0528e-36
7.05316e-36
7.05343e-36
7.05365e-36
7.05383e-36
7.05397e-36
7.05409e-36
7.0542e-36
7.05429e-36
7.05438e-36
7.05446e-36
7.05454e-36
7.05462e-36
7.05469e-36
7.05478e-36
7.05486e-36
7.05494e-36
7.05503e-36
7.05513e-36
7.05522e-36
7.0553e-36
7.05534e-36
7.05518e-36
7.05422e-36
7.05016e-36
)
;

boundaryField
{
    boundary
    {
        type            empty;
    }
    inlet
    {
        type            fixedValue;
        value           uniform 0;
    }
    outlet
    {
        type            zeroGradient;
    }
    procBoundary2to3
    {
        type            processor;
        value           uniform 7.04212e-36;
    }
}


// ************************************************************************* //
