/*--------------------------------*- C++ -*----------------------------------*\
  =========                 |
  \\      /  F ield         | OpenFOAM: The Open Source CFD Toolbox
   \\    /   O peration     | Website:  https://openfoam.org
    \\  /    A nd           | Version:  7
     \\/     M anipulation  |
\*---------------------------------------------------------------------------*/
FoamFile
{
    version     2.0;
    format      ascii;
    class       volScalarField;
    location    "0.00088";
    object      Qdot;
}
// * * * * * * * * * * * * * * * * * * * * * * * * * * * * * * * * * * * * * //

dimensions      [1 -1 -3 0 0 0 0];

internalField   nonuniform List<scalar> 
125
(
-2.45228e-27
-1.86295e-27
-1.73623e-27
-1.70923e-27
-1.7037e-27
-1.70275e-27
-1.70272e-27
-1.7028e-27
-1.70278e-27
-1.70258e-27
-1.70219e-27
-1.70156e-27
-1.70069e-27
-1.69958e-27
-1.69825e-27
-1.69672e-27
-1.69503e-27
-1.69322e-27
-1.69135e-27
-1.68949e-27
-1.68768e-27
-1.68599e-27
-1.68447e-27
-1.68319e-27
-1.68217e-27
-1.68147e-27
-1.68111e-27
-1.68111e-27
-1.6815e-27
-1.6823e-27
-1.6835e-27
-1.68514e-27
-1.68721e-27
-1.68976e-27
-1.69279e-27
-1.69635e-27
-1.70047e-27
-1.70521e-27
-1.71062e-27
-1.71676e-27
-1.72371e-27
-1.73155e-27
-1.74036e-27
-1.75022e-27
-1.76121e-27
-1.77343e-27
-1.78695e-27
-1.80185e-27
-1.81818e-27
-1.836e-27
-1.85533e-27
-1.87621e-27
-1.89862e-27
-1.92254e-27
-1.94793e-27
-1.97472e-27
-2.0028e-27
-2.03206e-27
-2.06235e-27
-2.0935e-27
-2.12533e-27
-2.15763e-27
-2.19018e-27
-2.22277e-27
-2.25515e-27
-2.2871e-27
-2.3184e-27
-2.34884e-27
-2.37823e-27
-2.40639e-27
-2.43318e-27
-2.45847e-27
-2.48218e-27
-2.50423e-27
-2.5246e-27
-2.54327e-27
-2.56027e-27
-2.57562e-27
-2.5894e-27
-2.60167e-27
-2.61252e-27
-2.62205e-27
-2.63037e-27
-2.63757e-27
-2.64377e-27
-2.64907e-27
-2.65358e-27
-2.65738e-27
-2.66056e-27
-2.66322e-27
-2.66542e-27
-2.66723e-27
-2.66871e-27
-2.66992e-27
-2.6709e-27
-2.67168e-27
-2.67231e-27
-2.67282e-27
-2.67322e-27
-2.67354e-27
-2.67379e-27
-2.67399e-27
-2.67414e-27
-2.67427e-27
-2.67437e-27
-2.67445e-27
-2.67452e-27
-2.67458e-27
-2.67463e-27
-2.67467e-27
-2.67472e-27
-2.67475e-27
-2.67479e-27
-2.67483e-27
-2.67486e-27
-2.6749e-27
-2.67494e-27
-2.67498e-27
-2.67502e-27
-2.67506e-27
-2.6751e-27
-2.67514e-27
-2.67519e-27
-2.67522e-27
-2.67524e-27
)
;

boundaryField
{
    boundary
    {
        type            empty;
    }
    inlet
    {
        type            calculated;
        value           uniform 0;
    }
    outlet
    {
        type            calculated;
        value           nonuniform 0();
    }
    procBoundary2to3
    {
        type            processor;
        value           uniform 0;
    }
}


// ************************************************************************* //
