/*--------------------------------*- C++ -*----------------------------------*\
  =========                 |
  \\      /  F ield         | OpenFOAM: The Open Source CFD Toolbox
   \\    /   O peration     | Website:  https://openfoam.org
    \\  /    A nd           | Version:  7
     \\/     M anipulation  |
\*---------------------------------------------------------------------------*/
FoamFile
{
    version     2.0;
    format      ascii;
    class       volVectorField;
    location    "0.00088";
    object      U;
}
// * * * * * * * * * * * * * * * * * * * * * * * * * * * * * * * * * * * * * //

dimensions      [0 1 -1 0 0 0 0];

internalField   nonuniform List<vector> 
125
(
(2.34893 0 0)
(2.34891 0 0)
(2.34889 0 0)
(2.34887 0 0)
(2.34885 0 0)
(2.34883 0 0)
(2.34881 0 0)
(2.34879 0 0)
(2.34876 0 0)
(2.34874 0 0)
(2.34872 0 0)
(2.3487 0 0)
(2.34867 0 0)
(2.34865 0 0)
(2.34863 0 0)
(2.3486 0 0)
(2.34858 0 0)
(2.34856 0 0)
(2.34854 0 0)
(2.34852 0 0)
(2.34851 0 0)
(2.34849 0 0)
(2.34847 0 0)
(2.34846 0 0)
(2.34845 0 0)
(2.34843 0 0)
(2.34842 0 0)
(2.34841 0 0)
(2.34839 0 0)
(2.34838 0 0)
(2.34837 0 0)
(2.34836 0 0)
(2.34835 0 0)
(2.34834 0 0)
(2.34832 0 0)
(2.34831 0 0)
(2.34831 0 0)
(2.3483 0 0)
(2.34829 0 0)
(2.34828 0 0)
(2.34828 0 0)
(2.34827 0 0)
(2.34827 0 0)
(2.34827 0 0)
(2.34827 0 0)
(2.34827 0 0)
(2.34827 0 0)
(2.34827 0 0)
(2.34827 0 0)
(2.34827 0 0)
(2.34827 0 0)
(2.34827 0 0)
(2.34827 0 0)
(2.34827 0 0)
(2.34827 0 0)
(2.34827 0 0)
(2.34826 0 0)
(2.34825 0 0)
(2.34824 0 0)
(2.34822 0 0)
(2.34821 0 0)
(2.34818 0 0)
(2.34816 0 0)
(2.34814 0 0)
(2.34811 0 0)
(2.34808 0 0)
(2.34804 0 0)
(2.34801 0 0)
(2.34797 0 0)
(2.34793 0 0)
(2.34789 0 0)
(2.34785 0 0)
(2.34781 0 0)
(2.34777 0 0)
(2.34773 0 0)
(2.34769 0 0)
(2.34765 0 0)
(2.34761 0 0)
(2.34757 0 0)
(2.34754 0 0)
(2.3475 0 0)
(2.34747 0 0)
(2.34744 0 0)
(2.34741 0 0)
(2.34738 0 0)
(2.34735 0 0)
(2.34732 0 0)
(2.34729 0 0)
(2.34727 0 0)
(2.34724 0 0)
(2.34722 0 0)
(2.3472 0 0)
(2.34717 0 0)
(2.34715 0 0)
(2.34713 0 0)
(2.34711 0 0)
(2.34709 0 0)
(2.34707 0 0)
(2.34705 0 0)
(2.34703 0 0)
(2.34701 0 0)
(2.34699 0 0)
(2.34697 0 0)
(2.34695 0 0)
(2.34693 0 0)
(2.34691 0 0)
(2.34689 0 0)
(2.34687 0 0)
(2.34685 0 0)
(2.34683 0 0)
(2.34681 0 0)
(2.34679 0 0)
(2.34677 0 0)
(2.34676 0 0)
(2.34674 0 0)
(2.34672 0 0)
(2.3467 0 0)
(2.34668 0 0)
(2.34666 0 0)
(2.34664 0 0)
(2.34662 0 0)
(2.3466 0 0)
(2.34658 0 0)
(2.34656 0 0)
(2.34654 0 0)
)
;

boundaryField
{
    boundary
    {
        type            empty;
    }
    inlet
    {
        type            fixedValue;
        value           uniform (2.34893 0 0);
    }
    outlet
    {
        type            zeroGradient;
    }
    procBoundary2to3
    {
        type            processor;
        value           uniform (2.34652 0 0);
    }
}


// ************************************************************************* //
