/*--------------------------------*- C++ -*----------------------------------*\
  =========                 |
  \\      /  F ield         | OpenFOAM: The Open Source CFD Toolbox
   \\    /   O peration     | Website:  https://openfoam.org
    \\  /    A nd           | Version:  7
     \\/     M anipulation  |
\*---------------------------------------------------------------------------*/
FoamFile
{
    version     2.0;
    format      ascii;
    class       volScalarField;
    location    "0.00052";
    object      H;
}
// * * * * * * * * * * * * * * * * * * * * * * * * * * * * * * * * * * * * * //

dimensions      [0 0 0 0 0 0 0];

internalField   nonuniform List<scalar> 
500
(
1.48606e-41
2.01435e-41
2.13037e-41
2.15772e-41
2.16605e-41
2.17031e-41
2.17371e-41
2.17697e-41
2.18026e-41
2.18369e-41
2.18731e-41
2.19122e-41
2.1955e-41
2.2003e-41
2.20573e-41
2.21199e-41
2.21926e-41
2.22777e-41
2.23774e-41
2.24945e-41
2.26317e-41
2.27917e-41
2.29774e-41
2.31915e-41
2.34363e-41
2.37141e-41
2.40264e-41
2.43744e-41
2.47582e-41
2.51775e-41
2.56308e-41
2.61156e-41
2.66286e-41
2.71654e-41
2.77209e-41
2.82889e-41
2.88632e-41
2.94367e-41
3.00026e-41
3.05542e-41
3.10852e-41
3.15899e-41
3.20638e-41
3.25032e-41
3.29054e-41
3.32692e-41
3.3594e-41
3.38806e-41
3.41305e-41
3.43457e-41
3.45288e-41
3.4683e-41
3.48112e-41
3.49167e-41
3.50025e-41
3.50716e-41
3.51266e-41
3.517e-41
3.52038e-41
3.52299e-41
3.52499e-41
3.5265e-41
3.52764e-41
3.52848e-41
3.5291e-41
3.52956e-41
3.52988e-41
3.53012e-41
3.53029e-41
3.53042e-41
3.5305e-41
3.53057e-41
3.53062e-41
3.53065e-41
3.53068e-41
3.53071e-41
3.53073e-41
3.53075e-41
3.53077e-41
3.53079e-41
3.53081e-41
3.53083e-41
3.53086e-41
3.53088e-41
3.53091e-41
3.53093e-41
3.53096e-41
3.53099e-41
3.53103e-41
3.53106e-41
3.5311e-41
3.53114e-41
3.53118e-41
3.53122e-41
3.53127e-41
3.53132e-41
3.53137e-41
3.53142e-41
3.53148e-41
3.53154e-41
3.5316e-41
3.53166e-41
3.53173e-41
3.5318e-41
3.53187e-41
3.53195e-41
3.53203e-41
3.53211e-41
3.5322e-41
3.53229e-41
3.53238e-41
3.53248e-41
3.53258e-41
3.53268e-41
3.53279e-41
3.5329e-41
3.53302e-41
3.53313e-41
3.53326e-41
3.53338e-41
3.53351e-41
3.53364e-41
3.53375e-41
3.53383e-41
3.53387e-41
3.53389e-41
3.53395e-41
3.53409e-41
3.53429e-41
3.53452e-41
3.53476e-41
3.53501e-41
3.53526e-41
3.53549e-41
3.53572e-41
3.53593e-41
3.53613e-41
3.53633e-41
3.53652e-41
3.53672e-41
3.53691e-41
3.53711e-41
3.53731e-41
3.53751e-41
3.53772e-41
3.53792e-41
3.53813e-41
3.53834e-41
3.53855e-41
3.53876e-41
3.53898e-41
3.5392e-41
3.53942e-41
3.53964e-41
3.53987e-41
3.5401e-41
3.54034e-41
3.54058e-41
3.54082e-41
3.54106e-41
3.54131e-41
3.54156e-41
3.54182e-41
3.54207e-41
3.54232e-41
3.54257e-41
3.54282e-41
3.54306e-41
3.5433e-41
3.54353e-41
3.54376e-41
3.54398e-41
3.54419e-41
3.54439e-41
3.54458e-41
3.54476e-41
3.54493e-41
3.54509e-41
3.54524e-41
3.54537e-41
3.54549e-41
3.5456e-41
3.54569e-41
3.54576e-41
3.54582e-41
3.54586e-41
3.54588e-41
3.54588e-41
3.54586e-41
3.54582e-41
3.54576e-41
3.54567e-41
3.54556e-41
3.54543e-41
3.54527e-41
3.54508e-41
3.54486e-41
3.54461e-41
3.54433e-41
3.54402e-41
3.54367e-41
3.54329e-41
3.54288e-41
3.54242e-41
3.54193e-41
3.5414e-41
3.54082e-41
3.54021e-41
3.53955e-41
3.53885e-41
3.5381e-41
3.53731e-41
3.5365e-41
3.53575e-41
3.53538e-41
3.53667e-41
3.54461e-41
3.57851e-41
3.71255e-41
4.22908e-41
6.1936e-41
1.35923e-40
4.12103e-40
1.43417e-39
5.18444e-39
1.88291e-38
6.80569e-38
2.44184e-37
8.69138e-37
3.06855e-36
1.07466e-35
3.73366e-35
1.287e-34
4.4021e-34
1.49434e-33
5.03536e-33
1.68463e-32
5.59752e-32
1.8478e-31
6.06283e-31
1.97828e-30
6.4237e-30
2.07743e-29
6.6984e-29
2.15625e-28
6.9417e-28
2.2401e-27
7.26784e-27
2.37999e-26
7.90453e-26
2.67718e-25
9.34189e-25
3.352e-24
1.24412e-23
4.79083e-23
1.9127e-22
7.89005e-22
3.34613e-21
1.45115e-20
6.40459e-20
2.86586e-19
1.29699e-18
5.9303e-18
2.74066e-17
1.28275e-16
6.10331e-16
2.96867e-15
1.48688e-14
7.73035e-14
4.20208e-13
2.60144e-12
1.93218e-11
1.88541e-10
1.75477e-09
1.64817e-08
1.52177e-07
1.31747e-06
9.70198e-06
5.23816e-05
0.00017848
0.000402195
0.000707419
0.00106458
0.00141424
0.00168749
0.00185223
0.00192101
0.00191743
0.0018729
0.00180726
0.00173294
0.00165709
0.00158349
0.00151396
0.0014492
0.0013893
0.00133405
0.00128312
0.00123611
0.00119265
0.00115237
0.00111495
0.0010801
0.00104755
0.00101709
0.000988508
0.000961635
0.000936317
0.000912419
0.000889822
0.000868418
0.000848113
0.00082939
0.000811957
0.000795235
0.000779181
0.000763756
0.000748921
0.000734642
0.000720887
0.000707627
0.000694834
0.000682483
0.000670551
0.000659016
0.000647858
0.000637058
0.000626598
0.000616462
0.000606635
0.000597103
0.000587851
0.000578868
0.000570141
0.00056166
0.000553413
0.000545392
0.000537586
0.000529987
0.000522587
0.000515377
0.000508351
0.0005015
0.00049482
0.000488302
0.000481942
0.000475733
0.00046967
0.000463748
0.000457962
0.000452308
0.00044678
0.000441375
0.000436088
0.000430916
0.000425855
0.000420901
0.000416052
0.000411304
0.000406653
0.000402098
0.000397635
0.000393261
0.000388975
0.000384773
0.000380653
0.000376614
0.000372652
0.000368767
0.000364956
0.000361218
0.00035755
0.000353952
0.000350422
0.000346958
0.000343559
0.000340215
0.00033692
0.000333682
0.000330501
0.000327375
0.000324303
0.000321284
0.000318316
0.000315399
0.000312531
0.000309712
0.00030694
0.000304214
0.000301534
0.000298899
0.000296307
0.000293759
0.000291252
0.000288787
0.000286363
0.000283978
0.000281633
0.000279326
0.000277058
0.000274826
0.000272632
0.000270474
0.000268351
0.000266264
0.000264212
0.000262194
0.000260209
0.000258258
0.000256339
0.000254453
0.000252597
0.00025077
0.000248971
0.000247198
0.000245267
0.000243534
0.000241843
0.000240186
0.000238558
0.000236958
0.000235383
0.000233833
0.000232307
0.000230803
0.000229322
0.000227863
0.000226424
0.000225007
0.000223609
0.00022223
0.000220869
0.000219526
0.0002182
0.00021689
0.000215595
0.000214314
0.000213046
0.000211791
0.000210547
0.000209313
0.000208089
0.000206873
0.000205664
0.000204461
0.000203264
0.00020207
0.000200879
0.00019969
0.000198501
0.000197312
0.000196122
0.000194929
0.000193732
0.000192531
0.000191324
0.000190112
0.000188891
0.000187663
0.000186426
0.000185179
0.000183923
0.000182655
0.000181377
0.000180086
0.000178784
0.00017747
0.000176142
0.000174802
0.000173449
0.000172084
0.000170705
0.000169313
0.000167909
0.000166492
0.000165062
0.000163621
0.000162168
0.000160703
0.000159227
0.000157742
0.000156246
0.000154742
0.00015323
0.000151712
0.000150189
0.000148663
0.000147138
0.000145616
0.000144103
0.000142603
0.000141126
0.000139682
0.000138285
0.000136952
0.00013571
0.000134591
0.00013364
0.000132918
0.000132507
)
;

boundaryField
{
    boundary
    {
        type            empty;
    }
    inlet
    {
        type            fixedValue;
        value           uniform 0;
    }
    outlet
    {
        type            zeroGradient;
    }
}


// ************************************************************************* //
