/*--------------------------------*- C++ -*----------------------------------*\
  =========                 |
  \\      /  F ield         | OpenFOAM: The Open Source CFD Toolbox
   \\    /   O peration     | Website:  https://openfoam.org
    \\  /    A nd           | Version:  7
     \\/     M anipulation  |
\*---------------------------------------------------------------------------*/
FoamFile
{
    version     2.0;
    format      ascii;
    class       volScalarField;
    location    "0.00052";
    object      H2;
}
// * * * * * * * * * * * * * * * * * * * * * * * * * * * * * * * * * * * * * //

dimensions      [0 0 0 0 0 0 0];

internalField   nonuniform List<scalar> 
500
(
0.0285116
0.0285116
0.0285116
0.0285116
0.0285116
0.0285116
0.0285116
0.0285116
0.0285116
0.0285116
0.0285116
0.0285116
0.0285116
0.0285116
0.0285116
0.0285116
0.0285116
0.0285116
0.0285116
0.0285116
0.0285116
0.0285116
0.0285116
0.0285116
0.0285116
0.0285116
0.0285116
0.0285116
0.0285116
0.0285116
0.0285116
0.0285116
0.0285116
0.0285116
0.0285116
0.0285116
0.0285116
0.0285116
0.0285116
0.0285116
0.0285116
0.0285116
0.0285116
0.0285116
0.0285116
0.0285116
0.0285116
0.0285116
0.0285116
0.0285116
0.0285116
0.0285116
0.0285116
0.0285116
0.0285116
0.0285116
0.0285116
0.0285116
0.0285116
0.0285116
0.0285116
0.0285116
0.0285116
0.0285116
0.0285116
0.0285116
0.0285116
0.0285116
0.0285116
0.0285116
0.0285116
0.0285116
0.0285116
0.0285116
0.0285116
0.0285116
0.0285116
0.0285116
0.0285116
0.0285116
0.0285116
0.0285116
0.0285116
0.0285116
0.0285116
0.0285116
0.0285116
0.0285116
0.0285116
0.0285116
0.0285116
0.0285116
0.0285116
0.0285116
0.0285116
0.0285116
0.0285116
0.0285116
0.0285116
0.0285116
0.0285116
0.0285116
0.0285116
0.0285116
0.0285116
0.0285116
0.0285116
0.0285116
0.0285116
0.0285116
0.0285116
0.0285116
0.0285116
0.0285116
0.0285116
0.0285116
0.0285116
0.0285116
0.0285116
0.0285116
0.0285116
0.0285116
0.0285116
0.0285116
0.0285116
0.0285116
0.0285116
0.0285116
0.0285116
0.0285116
0.0285116
0.0285116
0.0285116
0.0285116
0.0285116
0.0285116
0.0285116
0.0285116
0.0285116
0.0285116
0.0285116
0.0285116
0.0285116
0.0285116
0.0285116
0.0285116
0.0285116
0.0285116
0.0285116
0.0285116
0.0285116
0.0285116
0.0285116
0.0285116
0.0285116
0.0285116
0.0285116
0.0285116
0.0285116
0.0285116
0.0285116
0.0285116
0.0285116
0.0285116
0.0285116
0.0285116
0.0285116
0.0285116
0.0285116
0.0285116
0.0285116
0.0285116
0.0285116
0.0285116
0.0285116
0.0285116
0.0285116
0.0285116
0.0285116
0.0285116
0.0285116
0.0285116
0.0285116
0.0285116
0.0285116
0.0285116
0.0285116
0.0285116
0.0285116
0.0285116
0.0285116
0.0285116
0.0285116
0.0285116
0.0285116
0.0285116
0.0285116
0.0285116
0.0285116
0.0285116
0.0285116
0.0285116
0.0285116
0.0285116
0.0285116
0.0285116
0.0285116
0.0285116
0.0285116
0.0285116
0.0285116
0.0285116
0.0285116
0.0285116
0.0285116
0.0285116
0.0285116
0.0285116
0.0285116
0.0285116
0.0285116
0.0285116
0.0285116
0.0285116
0.0285116
0.0285116
0.0285116
0.0285116
0.0285116
0.0285116
0.0285116
0.0285116
0.0285116
0.0285116
0.0285116
0.0285116
0.0285116
0.0285116
0.0285116
0.0285116
0.0285116
0.0285116
0.0285116
0.0285116
0.0285116
0.0285116
0.0285116
0.0285116
0.0285116
0.0285116
0.0285116
0.0285116
0.0285116
0.0285116
0.0285116
0.0285116
0.0285116
0.0285116
0.0285116
0.0285116
0.0285116
0.0285116
0.0285115
0.0285115
0.0285114
0.0285112
0.0285108
0.02851
0.0285083
0.0285048
0.0284973
0.0284818
0.0284494
0.0283819
0.0282424
0.0279585
0.0274038
0.0264047
0.0248128
0.0226407
0.0200617
0.0171761
0.0141101
0.0111716
0.00872199
0.00692895
0.00563408
0.00487115
0.0043984
0.00410749
0.00392683
0.00381169
0.00373496
0.00368052
0.00363893
0.00360467
0.0035746
0.00354692
0.00352061
0.00349515
0.00347022
0.00344569
0.0034215
0.00339761
0.00337405
0.0033508
0.00332788
0.0033053
0.00328307
0.0032612
0.00323969
0.00321854
0.00319838
0.00317902
0.00315992
0.00314108
0.0031225
0.00310416
0.00308607
0.00306822
0.00305061
0.00303324
0.00301609
0.00299917
0.00298248
0.002966
0.00294974
0.00293369
0.00291785
0.00290221
0.00288677
0.00287153
0.00285649
0.00284163
0.00282697
0.00281249
0.00279819
0.00278408
0.00277014
0.00275637
0.00274278
0.00272936
0.0027161
0.00270301
0.00269008
0.00267731
0.0026647
0.00265225
0.00263995
0.00262779
0.00261579
0.00260394
0.00259222
0.00258065
0.00256922
0.00255792
0.00254676
0.00253573
0.00252483
0.00251406
0.00250341
0.00249289
0.00248248
0.0024722
0.00246204
0.00245199
0.00244206
0.00243224
0.00242254
0.00241295
0.00240347
0.00239411
0.00238486
0.00237573
0.00236673
0.00235786
0.00234903
0.00234021
0.00233148
0.00232286
0.00231433
0.0023059
0.00229756
0.00228931
0.00228116
0.0022731
0.00226514
0.00225727
0.0022495
0.00224181
0.00223423
0.00222674
0.00221934
0.00221205
0.00220485
0.00219774
0.00219074
0.00218384
0.00217705
0.00217035
0.00216376
0.00215728
0.00215091
0.00214465
0.0021385
0.00213247
0.00212656
0.00212077
0.0021151
0.00210956
0.00210414
0.00209887
0.00209375
0.0020888
0.00208407
0.00207885
0.00207434
0.00206996
0.00206571
0.00206163
0.0020577
0.00205394
0.00205035
0.00204694
0.0020437
0.00204066
0.0020378
0.00203513
0.00203265
0.00203038
0.0020283
0.00202642
0.00202475
0.00202328
0.00202201
0.00202095
0.0020201
0.00201945
0.00201901
0.00201876
0.00201872
0.00201887
0.00201921
0.00201973
0.00202043
0.0020213
0.00202233
0.00202351
0.00202483
0.00202628
0.00202784
0.0020295
0.00203124
0.00203305
0.00203491
0.00203679
0.00203867
0.00204054
0.00204237
0.00204414
0.00204582
0.00204738
0.00204881
0.00205007
0.00205113
0.00205197
0.00205256
0.00205288
0.00205289
0.00205257
0.00205189
0.00205083
0.00204937
0.00204747
0.00204512
0.00204231
0.002039
0.00203518
0.00203085
0.00202599
0.00202058
0.00201463
0.00200814
0.0020011
0.00199352
0.00198541
0.0019768
0.00196771
0.00195818
0.00194826
0.001938
0.00192751
0.00191688
0.00190628
0.00189588
0.00188595
0.00187682
0.00186893
0.00186283
0.00185928
)
;

boundaryField
{
    boundary
    {
        type            empty;
    }
    inlet
    {
        type            fixedValue;
        value           uniform 0.0285116;
    }
    outlet
    {
        type            zeroGradient;
    }
}


// ************************************************************************* //
