/*--------------------------------*- C++ -*----------------------------------*\
  =========                 |
  \\      /  F ield         | OpenFOAM: The Open Source CFD Toolbox
   \\    /   O peration     | Website:  https://openfoam.org
    \\  /    A nd           | Version:  7
     \\/     M anipulation  |
\*---------------------------------------------------------------------------*/
FoamFile
{
    version     2.0;
    format      ascii;
    class       volScalarField;
    location    "0.00052";
    object      H2O;
}
// * * * * * * * * * * * * * * * * * * * * * * * * * * * * * * * * * * * * * //

dimensions      [0 0 0 0 0 0 0];

internalField   nonuniform List<scalar> 
500
(
7.90485e-48
2.28578e-47
4.11531e-47
6.1722e-47
8.38431e-47
1.07033e-46
1.30969e-46
1.5544e-46
1.80309e-46
2.05492e-46
2.30944e-46
2.56648e-46
2.82612e-46
3.08863e-46
3.35448e-46
3.62431e-46
3.89893e-46
4.17931e-46
4.4666e-46
4.76203e-46
5.06697e-46
5.38281e-46
5.71093e-46
6.05262e-46
6.40897e-46
6.78081e-46
7.16856e-46
7.57221e-46
7.99115e-46
8.42419e-46
8.86948e-46
9.32454e-46
9.78628e-46
1.02511e-45
1.0715e-45
1.11736e-45
1.16227e-45
1.20578e-45
1.2475e-45
1.28707e-45
1.32417e-45
1.35856e-45
1.39008e-45
1.41862e-45
1.44416e-45
1.46676e-45
1.48651e-45
1.50357e-45
1.51813e-45
1.53041e-45
1.54066e-45
1.5491e-45
1.55598e-45
1.56153e-45
1.56594e-45
1.56942e-45
1.57214e-45
1.57423e-45
1.57582e-45
1.57702e-45
1.57792e-45
1.57859e-45
1.57907e-45
1.57943e-45
1.57968e-45
1.57986e-45
1.57999e-45
1.58008e-45
1.58015e-45
1.58019e-45
1.58023e-45
1.58025e-45
1.58027e-45
1.58028e-45
1.5803e-45
1.58031e-45
1.58032e-45
1.58033e-45
1.58034e-45
1.58035e-45
1.58036e-45
1.58037e-45
1.58039e-45
1.5804e-45
1.58041e-45
1.58043e-45
1.58045e-45
1.58046e-45
1.58048e-45
1.5805e-45
1.58052e-45
1.58054e-45
1.58057e-45
1.58059e-45
1.58062e-45
1.58065e-45
1.58067e-45
1.5807e-45
1.58074e-45
1.58077e-45
1.5808e-45
1.58084e-45
1.58088e-45
1.58092e-45
1.58096e-45
1.581e-45
1.58105e-45
1.58109e-45
1.58114e-45
1.58119e-45
1.58124e-45
1.5813e-45
1.58135e-45
1.58141e-45
1.58147e-45
1.58153e-45
1.5816e-45
1.58167e-45
1.58173e-45
1.5818e-45
1.58186e-45
1.5819e-45
1.58184e-45
1.58141e-45
1.57961e-45
1.57627e-45
1.5764e-45
1.57658e-45
1.5768e-45
1.57709e-45
1.57744e-45
1.57788e-45
1.57839e-45
1.57897e-45
1.57961e-45
1.58028e-45
1.58095e-45
1.58161e-45
1.58222e-45
1.58276e-45
1.58322e-45
1.58359e-45
1.58387e-45
1.58407e-45
1.5842e-45
1.58426e-45
1.58427e-45
1.58425e-45
1.5842e-45
1.58413e-45
1.58406e-45
1.584e-45
1.58395e-45
1.58392e-45
1.58392e-45
1.58394e-45
1.58401e-45
1.58411e-45
1.58424e-45
1.58441e-45
1.58461e-45
1.58483e-45
1.58507e-45
1.58533e-45
1.5856e-45
1.58587e-45
1.58614e-45
1.58641e-45
1.58666e-45
1.5869e-45
1.58713e-45
1.58735e-45
1.58754e-45
1.58773e-45
1.58789e-45
1.58804e-45
1.58818e-45
1.5883e-45
1.58841e-45
1.5885e-45
1.58859e-45
1.58866e-45
1.58872e-45
1.58877e-45
1.58881e-45
1.58884e-45
1.58885e-45
1.58886e-45
1.58885e-45
1.58884e-45
1.58881e-45
1.58876e-45
1.5887e-45
1.58863e-45
1.58855e-45
1.58844e-45
1.58833e-45
1.58819e-45
1.58804e-45
1.58787e-45
1.58769e-45
1.5875e-45
1.58739e-45
1.58768e-45
1.58981e-45
1.60012e-45
1.64627e-45
1.84796e-45
2.71976e-45
6.4578e-45
2.23743e-44
8.97185e-44
3.73046e-43
1.55927e-42
6.5068e-42
2.70901e-41
1.12643e-40
4.68564e-40
1.95378e-39
8.18407e-39
3.45149e-38
1.46845e-37
6.31267e-37
2.74449e-36
1.20684e-35
5.36363e-35
2.40578e-34
1.08688e-33
4.93458e-33
2.2463e-32
1.02305e-31
4.65266e-31
2.10955e-30
9.52348e-30
4.27651e-29
1.90877e-28
8.46371e-28
3.72709e-27
1.62967e-26
7.0749e-26
3.04955e-25
1.30523e-24
5.54794e-24
2.34238e-23
9.82575e-23
4.09617e-22
1.69759e-21
6.99658e-21
2.86884e-20
1.17077e-19
4.75738e-19
1.94001e-18
7.84882e-18
3.15668e-17
1.26531e-16
5.05923e-16
2.0188e-15
8.04211e-15
3.19921e-14
1.27123e-13
5.04671e-13
2.0021e-12
7.93834e-12
3.1463e-11
1.24666e-10
4.9386e-10
1.95611e-09
7.74683e-09
3.06754e-08
1.21443e-07
4.80628e-07
1.90107e-06
7.51067e-06
2.95903e-05
0.000115734
0.000443801
0.00161515
0.00520007
0.0134668
0.0269478
0.0441378
0.0649421
0.0895024
0.115513
0.138874
0.156733
0.172142
0.181143
0.187186
0.191301
0.19419
0.196309
0.197943
0.199265
0.200382
0.20136
0.20224
0.203047
0.203797
0.204502
0.205168
0.205801
0.206405
0.206982
0.207535
0.208066
0.208576
0.209068
0.209541
0.209998
0.210438
0.210863
0.211261
0.21164
0.212009
0.212369
0.212719
0.213061
0.213395
0.213721
0.214039
0.21435
0.214654
0.214951
0.215242
0.215526
0.215805
0.216077
0.216344
0.216606
0.216863
0.217114
0.217361
0.217603
0.217841
0.218074
0.218303
0.218529
0.21875
0.218967
0.219181
0.219392
0.219599
0.219802
0.220003
0.2202
0.220395
0.220587
0.220776
0.220962
0.221145
0.221327
0.221505
0.221681
0.221855
0.222027
0.222196
0.222364
0.222529
0.222692
0.222853
0.223012
0.223169
0.223324
0.223478
0.223629
0.223779
0.223927
0.224074
0.224218
0.224361
0.224503
0.224643
0.224781
0.224919
0.225055
0.225189
0.225322
0.225453
0.225583
0.225711
0.225838
0.225964
0.226089
0.226213
0.226335
0.226457
0.226577
0.226696
0.226814
0.226932
0.227048
0.227164
0.227278
0.227392
0.227505
0.227618
0.22773
0.227841
0.227952
0.228062
0.228172
0.228281
0.22839
0.228499
0.228607
0.228715
0.228824
0.228932
0.22904
0.229148
0.229256
0.229364
0.229472
0.229575
0.229721
0.229832
0.229943
0.230055
0.230167
0.230281
0.230397
0.230513
0.230631
0.230751
0.230872
0.230994
0.231118
0.231244
0.231371
0.231501
0.231632
0.231764
0.231899
0.232035
0.232174
0.232314
0.232455
0.232599
0.232744
0.232891
0.233039
0.233189
0.23334
0.233492
0.233645
0.233799
0.233954
0.234109
0.234265
0.234421
0.234577
0.234733
0.234888
0.235043
0.235197
0.235349
0.235501
0.235651
0.2358
0.235946
0.236091
0.236234
0.236374
0.236512
0.236647
0.23678
0.23691
0.237037
0.237161
0.237282
0.2374
0.237516
0.237628
0.237737
0.237843
0.237946
0.238046
0.238143
0.238237
0.238328
0.238416
0.238502
0.238585
0.238665
0.238742
0.238816
0.238888
0.238957
0.239024
0.239088
0.239149
0.239207
0.239262
0.239314
0.239362
0.239407
0.239445
0.239477
0.239497
)
;

boundaryField
{
    boundary
    {
        type            empty;
    }
    inlet
    {
        type            fixedValue;
        value           uniform 0;
    }
    outlet
    {
        type            zeroGradient;
    }
}


// ************************************************************************* //
