/*--------------------------------*- C++ -*----------------------------------*\
  =========                 |
  \\      /  F ield         | OpenFOAM: The Open Source CFD Toolbox
   \\    /   O peration     | Website:  https://openfoam.org
    \\  /    A nd           | Version:  7
     \\/     M anipulation  |
\*---------------------------------------------------------------------------*/
FoamFile
{
    version     2.0;
    format      ascii;
    class       volScalarField;
    location    "0.00052";
    object      H2O2;
}
// * * * * * * * * * * * * * * * * * * * * * * * * * * * * * * * * * * * * * //

dimensions      [0 0 0 0 0 0 0];

internalField   nonuniform List<scalar> 
500
(
2.00042e-52
6.43168e-52
1.27964e-51
2.11006e-51
3.13503e-51
4.35524e-51
5.77151e-51
7.38494e-51
9.19698e-51
1.12096e-50
1.34253e-50
1.58477e-50
1.84814e-50
2.13323e-50
2.44081e-50
2.77182e-50
3.12742e-50
3.50897e-50
3.91803e-50
4.35636e-50
4.82584e-50
5.32839e-50
5.86589e-50
6.44004e-50
7.05219e-50
7.70314e-50
8.39301e-50
9.121e-50
9.88528e-50
1.06828e-49
1.15094e-49
1.23594e-49
1.32263e-49
1.41025e-49
1.49793e-49
1.5848e-49
1.66993e-49
1.75246e-49
1.83154e-49
1.90644e-49
1.97653e-49
2.04134e-49
2.10053e-49
2.15393e-49
2.20151e-49
2.24338e-49
2.27978e-49
2.31103e-49
2.33754e-49
2.35975e-49
2.37813e-49
2.39317e-49
2.40532e-49
2.41503e-49
2.4227e-49
2.42869e-49
2.43332e-49
2.43685e-49
2.43952e-49
2.44151e-49
2.44299e-49
2.44407e-49
2.44486e-49
2.44542e-49
2.44582e-49
2.44611e-49
2.44631e-49
2.44645e-49
2.44654e-49
2.44661e-49
2.44666e-49
2.4467e-49
2.44673e-49
2.44675e-49
2.44677e-49
2.44679e-49
2.4468e-49
2.44682e-49
2.44684e-49
2.44686e-49
2.44688e-49
2.4469e-49
2.44692e-49
2.44694e-49
2.44697e-49
2.44699e-49
2.44702e-49
2.44705e-49
2.44708e-49
2.44712e-49
2.44715e-49
2.44719e-49
2.44723e-49
2.44727e-49
2.44731e-49
2.44736e-49
2.44741e-49
2.44746e-49
2.44751e-49
2.44757e-49
2.44763e-49
2.44769e-49
2.44775e-49
2.44782e-49
2.44789e-49
2.44796e-49
2.44804e-49
2.44812e-49
2.4482e-49
2.44829e-49
2.44837e-49
2.44847e-49
2.44856e-49
2.44866e-49
2.44876e-49
2.44887e-49
2.44898e-49
2.44909e-49
2.44921e-49
2.44932e-49
2.44942e-49
2.44947e-49
2.44928e-49
2.44815e-49
2.44331e-49
2.43368e-49
2.43389e-49
2.43414e-49
2.43447e-49
2.43489e-49
2.43544e-49
2.43613e-49
2.43698e-49
2.438e-49
2.43919e-49
2.4405e-49
2.4419e-49
2.44333e-49
2.44471e-49
2.44598e-49
2.44708e-49
2.44795e-49
2.44858e-49
2.44896e-49
2.44911e-49
2.44906e-49
2.44885e-49
2.44853e-49
2.44816e-49
2.44778e-49
2.44744e-49
2.44717e-49
2.447e-49
2.44696e-49
2.44706e-49
2.44728e-49
2.44764e-49
2.44813e-49
2.44872e-49
2.4494e-49
2.45015e-49
2.45095e-49
2.45178e-49
2.45262e-49
2.45346e-49
2.45427e-49
2.45505e-49
2.45578e-49
2.45646e-49
2.45709e-49
2.45766e-49
2.45818e-49
2.45864e-49
2.45905e-49
2.45941e-49
2.45973e-49
2.46001e-49
2.46026e-49
2.46048e-49
2.46066e-49
2.46082e-49
2.46096e-49
2.46107e-49
2.46117e-49
2.46124e-49
2.46129e-49
2.46133e-49
2.46134e-49
2.46133e-49
2.46131e-49
2.46126e-49
2.46118e-49
2.46109e-49
2.46097e-49
2.46083e-49
2.46066e-49
2.46046e-49
2.46023e-49
2.45998e-49
2.45969e-49
2.45937e-49
2.45902e-49
2.45863e-49
2.45821e-49
2.45777e-49
2.4574e-49
2.45767e-49
2.46227e-49
2.49461e-49
2.70183e-49
4.00026e-49
1.20415e-48
6.13466e-48
3.60727e-47
2.16082e-46
1.28777e-45
7.6047e-45
4.44653e-44
2.57378e-43
1.47464e-42
8.36242e-42
4.69327e-41
2.60669e-40
1.43269e-39
7.792e-39
4.19342e-38
2.23311e-37
1.17675e-36
6.13623e-36
3.1666e-35
1.61732e-34
8.17622e-34
4.09186e-33
2.02752e-32
9.94845e-32
4.83474e-31
2.32758e-30
1.11031e-29
5.24918e-29
2.46014e-28
1.14333e-27
5.27051e-27
2.41075e-26
1.09453e-25
4.93455e-25
2.21003e-24
9.83733e-24
4.35402e-23
1.91713e-22
8.40192e-22
3.66681e-21
1.60643e-20
6.98169e-20
3.01746e-19
1.3002e-18
5.59016e-18
2.39928e-17
1.0283e-16
4.4022e-16
1.88291e-15
8.04817e-15
3.43834e-14
1.46843e-13
6.26986e-13
2.67673e-12
1.14266e-11
4.87753e-11
2.08186e-10
8.88505e-10
3.79137e-09
1.61733e-08
6.89439e-08
2.93281e-07
1.23887e-06
5.10739e-06
1.94126e-05
5.81027e-05
0.000105482
0.000124945
9.54423e-05
4.84649e-05
1.98053e-05
8.35942e-06
4.93763e-06
4.44435e-06
4.8782e-06
5.59827e-06
6.13241e-06
6.49993e-06
6.7046e-06
6.77774e-06
6.75415e-06
6.66354e-06
6.52862e-06
6.36588e-06
6.18694e-06
5.99984e-06
5.81006e-06
5.62132e-06
5.43606e-06
5.25587e-06
5.08174e-06
4.91423e-06
4.75361e-06
4.59997e-06
4.45324e-06
4.31329e-06
4.17989e-06
4.05282e-06
3.93182e-06
3.81666e-06
3.70714e-06
3.60623e-06
3.51133e-06
3.42029e-06
3.33292e-06
3.24902e-06
3.16843e-06
3.09099e-06
3.01655e-06
2.94497e-06
2.8761e-06
2.80981e-06
2.74599e-06
2.68452e-06
2.62527e-06
2.56815e-06
2.51306e-06
2.4599e-06
2.40858e-06
2.35902e-06
2.31114e-06
2.26486e-06
2.22011e-06
2.17682e-06
2.13492e-06
2.09436e-06
2.05508e-06
2.01701e-06
1.98012e-06
1.94434e-06
1.90964e-06
1.87596e-06
1.84327e-06
1.81153e-06
1.78069e-06
1.75072e-06
1.72159e-06
1.69326e-06
1.6657e-06
1.63888e-06
1.61278e-06
1.58737e-06
1.56262e-06
1.53851e-06
1.51501e-06
1.4921e-06
1.46977e-06
1.448e-06
1.42675e-06
1.40602e-06
1.38579e-06
1.36605e-06
1.34677e-06
1.32794e-06
1.30954e-06
1.29157e-06
1.27401e-06
1.25685e-06
1.24007e-06
1.22367e-06
1.20763e-06
1.19194e-06
1.17659e-06
1.16157e-06
1.14689e-06
1.13251e-06
1.1184e-06
1.10459e-06
1.09105e-06
1.0778e-06
1.06481e-06
1.05208e-06
1.0396e-06
1.02736e-06
1.01536e-06
1.0036e-06
9.92054e-07
9.8073e-07
9.69619e-07
9.58714e-07
9.4801e-07
9.37502e-07
9.27184e-07
9.17052e-07
9.07099e-07
8.97322e-07
8.87716e-07
8.78276e-07
8.68998e-07
8.59878e-07
8.50911e-07
8.42094e-07
8.33422e-07
8.24892e-07
8.16501e-07
8.08245e-07
8.00121e-07
7.92127e-07
7.8426e-07
7.76515e-07
7.68886e-07
7.61366e-07
7.53988e-07
7.47126e-07
7.37609e-07
7.30513e-07
7.23519e-07
7.16595e-07
7.09737e-07
7.02942e-07
6.96208e-07
6.89532e-07
6.82912e-07
6.76344e-07
6.69826e-07
6.63353e-07
6.56922e-07
6.50529e-07
6.4417e-07
6.37842e-07
6.31539e-07
6.25258e-07
6.18995e-07
6.12746e-07
6.06505e-07
6.0027e-07
5.94034e-07
5.87795e-07
5.81548e-07
5.75289e-07
5.69013e-07
5.62718e-07
5.56399e-07
5.50054e-07
5.4368e-07
5.37273e-07
5.30833e-07
5.24356e-07
5.17843e-07
5.11292e-07
5.04703e-07
4.98078e-07
4.91416e-07
4.84719e-07
4.77992e-07
4.71235e-07
4.64454e-07
4.57652e-07
4.50835e-07
4.44009e-07
4.3718e-07
4.30356e-07
4.23543e-07
4.16751e-07
4.09986e-07
4.03259e-07
3.96578e-07
3.89952e-07
3.8339e-07
3.76901e-07
3.70495e-07
3.64181e-07
3.57967e-07
3.51861e-07
3.45871e-07
3.40005e-07
3.34268e-07
3.28668e-07
3.2321e-07
3.17899e-07
3.12739e-07
3.07735e-07
3.02888e-07
2.98202e-07
2.93679e-07
2.89321e-07
2.85129e-07
2.81105e-07
2.77252e-07
2.7357e-07
2.70066e-07
2.66743e-07
2.63611e-07
2.60683e-07
2.57979e-07
2.55532e-07
2.53397e-07
2.51676e-07
2.50575e-07
)
;

boundaryField
{
    boundary
    {
        type            empty;
    }
    inlet
    {
        type            fixedValue;
        value           uniform 0;
    }
    outlet
    {
        type            zeroGradient;
    }
}


// ************************************************************************* //
