/*--------------------------------*- C++ -*----------------------------------*\
  =========                 |
  \\      /  F ield         | OpenFOAM: The Open Source CFD Toolbox
   \\    /   O peration     | Website:  https://openfoam.org
    \\  /    A nd           | Version:  7
     \\/     M anipulation  |
\*---------------------------------------------------------------------------*/
FoamFile
{
    version     2.0;
    format      ascii;
    class       volScalarField;
    location    "0.00052";
    object      HO2;
}
// * * * * * * * * * * * * * * * * * * * * * * * * * * * * * * * * * * * * * //

dimensions      [0 0 0 0 0 0 0];

internalField   nonuniform List<scalar> 
500
(
5.60377e-38
1.27613e-37
1.99554e-37
2.71657e-37
3.43875e-37
4.16202e-37
4.88642e-37
5.61212e-37
6.33932e-37
7.06835e-37
7.79967e-37
8.53386e-37
9.27174e-37
1.00143e-36
1.07629e-36
1.15191e-36
1.22847e-36
1.30618e-36
1.3853e-36
1.4661e-36
1.54884e-36
1.63382e-36
1.72131e-36
1.81155e-36
1.90475e-36
2.00102e-36
2.10039e-36
2.20278e-36
2.30798e-36
2.41563e-36
2.52524e-36
2.63618e-36
2.74768e-36
2.8589e-36
2.96888e-36
3.07666e-36
3.18127e-36
3.28179e-36
3.37735e-36
3.46722e-36
3.55081e-36
3.62768e-36
3.69756e-36
3.76036e-36
3.81613e-36
3.86509e-36
3.90756e-36
3.94398e-36
3.97484e-36
4.00069e-36
4.02209e-36
4.03961e-36
4.05379e-36
4.06514e-36
4.07412e-36
4.08114e-36
4.08659e-36
4.09075e-36
4.09391e-36
4.09629e-36
4.09805e-36
4.09934e-36
4.10028e-36
4.10097e-36
4.10145e-36
4.1018e-36
4.10205e-36
4.10222e-36
4.10234e-36
4.10243e-36
4.10249e-36
4.10254e-36
4.10257e-36
4.1026e-36
4.10263e-36
4.10265e-36
4.10267e-36
4.10269e-36
4.10271e-36
4.10274e-36
4.10276e-36
4.10279e-36
4.10281e-36
4.10284e-36
4.10287e-36
4.1029e-36
4.10294e-36
4.10297e-36
4.10301e-36
4.10305e-36
4.1031e-36
4.10314e-36
4.10319e-36
4.10324e-36
4.10329e-36
4.10335e-36
4.10341e-36
4.10347e-36
4.10353e-36
4.1036e-36
4.10367e-36
4.10374e-36
4.10382e-36
4.1039e-36
4.10398e-36
4.10407e-36
4.10416e-36
4.10425e-36
4.10435e-36
4.10445e-36
4.10456e-36
4.10467e-36
4.10478e-36
4.1049e-36
4.10502e-36
4.10514e-36
4.10527e-36
4.10541e-36
4.10554e-36
4.10568e-36
4.10581e-36
4.10589e-36
4.10577e-36
4.10484e-36
4.10074e-36
4.09259e-36
4.09282e-36
4.09311e-36
4.09347e-36
4.09393e-36
4.09449e-36
4.09519e-36
4.09603e-36
4.09702e-36
4.09814e-36
4.09936e-36
4.10063e-36
4.10189e-36
4.10308e-36
4.10413e-36
4.10501e-36
4.10567e-36
4.1061e-36
4.10631e-36
4.10631e-36
4.10616e-36
4.10588e-36
4.10554e-36
4.10517e-36
4.10484e-36
4.10457e-36
4.10439e-36
4.10434e-36
4.10442e-36
4.10464e-36
4.10499e-36
4.10547e-36
4.10607e-36
4.10676e-36
4.10753e-36
4.10835e-36
4.10921e-36
4.11008e-36
4.11095e-36
4.1118e-36
4.11262e-36
4.1134e-36
4.11413e-36
4.11481e-36
4.11544e-36
4.11601e-36
4.11653e-36
4.117e-36
4.11741e-36
4.11779e-36
4.11812e-36
4.11841e-36
4.11868e-36
4.11891e-36
4.11911e-36
4.11928e-36
4.11943e-36
4.11956e-36
4.11966e-36
4.11975e-36
4.11981e-36
4.11985e-36
4.11986e-36
4.11985e-36
4.11982e-36
4.11976e-36
4.11968e-36
4.11957e-36
4.11943e-36
4.11926e-36
4.11906e-36
4.11883e-36
4.11857e-36
4.11827e-36
4.11793e-36
4.11756e-36
4.11715e-36
4.1167e-36
4.11621e-36
4.11567e-36
4.11509e-36
4.11447e-36
4.11379e-36
4.11307e-36
4.1123e-36
4.11148e-36
4.11061e-36
4.10968e-36
4.1087e-36
4.10767e-36
4.10664e-36
4.10573e-36
4.10552e-36
4.10818e-36
4.12227e-36
4.18073e-36
4.40971e-36
5.28784e-36
8.61727e-36
2.11304e-35
6.77921e-35
2.40535e-34
8.75754e-34
3.1976e-33
1.16409e-32
4.22225e-32
1.52706e-31
5.51557e-31
1.99351e-30
7.22748e-30
2.63564e-29
9.69609e-29
3.60896e-28
1.36258e-27
5.22835e-27
2.04082e-26
8.10269e-26
3.26851e-25
1.33703e-24
5.5333e-24
2.3111e-23
9.71938e-23
4.10747e-22
1.74147e-21
7.39804e-21
3.14609e-20
1.3479e-19
5.74969e-19
2.44536e-18
1.03886e-17
4.4101e-17
1.87092e-16
7.93228e-16
3.36122e-15
1.42355e-14
6.02628e-14
2.55001e-13
1.0786e-12
4.56046e-12
1.9274e-11
8.14195e-11
3.4375e-10
1.45031e-09
6.11375e-09
2.57435e-08
1.08167e-07
4.52664e-07
1.87474e-06
7.60859e-06
2.95188e-05
0.000103491
0.000288037
0.000493473
0.000507148
0.000414946
0.000303413
0.000213849
0.000149787
0.000104676
7.34479e-05
5.281e-05
3.6954e-05
2.82532e-05
2.26487e-05
1.89428e-05
1.6403e-05
1.45878e-05
1.32334e-05
1.21813e-05
1.1335e-05
1.0634e-05
1.00396e-05
9.5261e-06
9.07585e-06
8.67643e-06
8.31874e-06
7.99593e-06
7.7027e-06
7.4349e-06
7.18916e-06
6.96275e-06
6.7534e-06
6.55919e-06
6.37854e-06
6.21009e-06
6.05272e-06
5.90553e-06
5.77188e-06
5.64768e-06
5.52981e-06
5.41781e-06
5.31126e-06
5.20975e-06
5.11295e-06
5.02053e-06
4.93222e-06
4.84774e-06
4.76686e-06
4.68936e-06
4.61505e-06
4.54372e-06
4.47521e-06
4.40937e-06
4.34604e-06
4.28509e-06
4.22639e-06
4.16983e-06
4.11528e-06
4.06266e-06
4.01185e-06
3.96278e-06
3.91535e-06
3.86949e-06
3.82512e-06
3.78217e-06
3.74057e-06
3.70026e-06
3.66119e-06
3.62329e-06
3.58651e-06
3.55081e-06
3.51614e-06
3.48245e-06
3.44971e-06
3.41787e-06
3.38689e-06
3.35675e-06
3.32741e-06
3.29884e-06
3.27101e-06
3.24389e-06
3.21746e-06
3.19168e-06
3.16655e-06
3.14203e-06
3.11811e-06
3.09476e-06
3.07197e-06
3.04972e-06
3.02798e-06
3.00675e-06
2.98601e-06
2.96574e-06
2.94593e-06
2.92657e-06
2.90763e-06
2.8891e-06
2.87098e-06
2.85324e-06
2.83587e-06
2.81885e-06
2.80218e-06
2.78589e-06
2.76993e-06
2.75431e-06
2.73899e-06
2.72399e-06
2.70928e-06
2.69485e-06
2.68071e-06
2.66683e-06
2.6532e-06
2.63983e-06
2.62669e-06
2.61379e-06
2.60111e-06
2.58865e-06
2.5764e-06
2.56434e-06
2.55247e-06
2.54079e-06
2.52928e-06
2.51793e-06
2.50674e-06
2.49571e-06
2.48481e-06
2.47404e-06
2.4634e-06
2.45287e-06
2.44245e-06
2.43212e-06
2.42188e-06
2.41172e-06
2.40163e-06
2.3916e-06
2.38163e-06
2.3717e-06
2.3618e-06
2.35198e-06
2.34267e-06
2.32892e-06
2.31888e-06
2.30885e-06
2.29874e-06
2.28852e-06
2.27817e-06
2.26767e-06
2.25702e-06
2.24619e-06
2.23519e-06
2.22399e-06
2.21259e-06
2.20096e-06
2.18911e-06
2.17701e-06
2.16465e-06
2.15203e-06
2.13913e-06
2.12596e-06
2.11249e-06
2.09872e-06
2.08466e-06
2.0703e-06
2.05564e-06
2.04068e-06
2.02543e-06
2.00989e-06
1.99409e-06
1.97802e-06
1.9617e-06
1.94515e-06
1.9284e-06
1.91146e-06
1.89436e-06
1.87713e-06
1.85981e-06
1.84242e-06
1.825e-06
1.80759e-06
1.79023e-06
1.77295e-06
1.75582e-06
1.73885e-06
1.72211e-06
1.70564e-06
1.68949e-06
1.67369e-06
1.6583e-06
1.64335e-06
1.62891e-06
1.615e-06
1.60166e-06
1.58895e-06
1.57689e-06
1.56551e-06
1.55485e-06
1.54494e-06
1.5358e-06
1.52745e-06
1.51991e-06
1.51319e-06
1.5073e-06
1.50224e-06
1.49802e-06
1.49462e-06
1.49205e-06
1.49028e-06
1.4893e-06
1.48909e-06
1.48962e-06
1.49086e-06
1.49278e-06
1.49534e-06
1.4985e-06
1.50222e-06
1.50645e-06
1.51114e-06
1.51623e-06
1.52168e-06
1.52739e-06
1.53329e-06
1.53922e-06
1.54496e-06
1.55006e-06
1.55357e-06
)
;

boundaryField
{
    boundary
    {
        type            empty;
    }
    inlet
    {
        type            fixedValue;
        value           uniform 0;
    }
    outlet
    {
        type            zeroGradient;
    }
}


// ************************************************************************* //
