/*--------------------------------*- C++ -*----------------------------------*\
  =========                 |
  \\      /  F ield         | OpenFOAM: The Open Source CFD Toolbox
   \\    /   O peration     | Website:  https://openfoam.org
    \\  /    A nd           | Version:  7
     \\/     M anipulation  |
\*---------------------------------------------------------------------------*/
FoamFile
{
    version     2.0;
    format      ascii;
    class       volScalarField;
    location    "0.00052";
    object      N2;
}
// * * * * * * * * * * * * * * * * * * * * * * * * * * * * * * * * * * * * * //

dimensions      [0 0 0 0 0 0 0];

internalField   nonuniform List<scalar> 
500
(
0.745219
0.745219
0.745219
0.745219
0.745219
0.745219
0.745219
0.745219
0.745219
0.745219
0.745219
0.745219
0.745219
0.745219
0.745219
0.745219
0.745219
0.745219
0.745219
0.745219
0.745219
0.745219
0.745219
0.745219
0.745219
0.745219
0.745219
0.745219
0.745219
0.745219
0.745219
0.745219
0.745219
0.745219
0.745219
0.74522
0.74522
0.74522
0.74522
0.74522
0.74522
0.74522
0.74522
0.74522
0.74522
0.74522
0.74522
0.74522
0.74522
0.74522
0.74522
0.74522
0.74522
0.74522
0.74522
0.74522
0.74522
0.74522
0.74522
0.74522
0.74522
0.74522
0.74522
0.74522
0.74522
0.74522
0.74522
0.74522
0.74522
0.74522
0.74522
0.74522
0.74522
0.74522
0.74522
0.74522
0.74522
0.74522
0.74522
0.74522
0.74522
0.74522
0.74522
0.74522
0.74522
0.74522
0.74522
0.74522
0.74522
0.74522
0.74522
0.74522
0.74522
0.74522
0.74522
0.74522
0.74522
0.74522
0.74522
0.74522
0.74522
0.74522
0.74522
0.74522
0.74522
0.74522
0.74522
0.74522
0.74522
0.74522
0.74522
0.74522
0.74522
0.74522
0.74522
0.74522
0.74522
0.74522
0.74522
0.74522
0.74522
0.74522
0.74522
0.74522
0.74522
0.74522
0.74522
0.74522
0.74522
0.74522
0.74522
0.74522
0.74522
0.74522
0.74522
0.74522
0.74522
0.74522
0.74522
0.74522
0.74522
0.74522
0.74522
0.74522
0.74522
0.74522
0.74522
0.74522
0.74522
0.74522
0.74522
0.74522
0.74522
0.74522
0.74522
0.74522
0.74522
0.74522
0.74522
0.74522
0.74522
0.74522
0.74522
0.74522
0.74522
0.74522
0.74522
0.74522
0.74522
0.74522
0.74522
0.74522
0.74522
0.74522
0.74522
0.74522
0.74522
0.74522
0.74522
0.74522
0.74522
0.74522
0.74522
0.74522
0.74522
0.74522
0.74522
0.74522
0.74522
0.74522
0.74522
0.74522
0.74522
0.74522
0.74522
0.74522
0.74522
0.74522
0.74522
0.74522
0.74522
0.74522
0.74522
0.74522
0.74522
0.74522
0.74522
0.74522
0.74522
0.74522
0.74522
0.74522
0.74522
0.74522
0.74522
0.74522
0.74522
0.74522
0.74522
0.74522
0.74522
0.74522
0.74522
0.74522
0.74522
0.74522
0.74522
0.74522
0.74522
0.74522
0.74522
0.74522
0.74522
0.74522
0.74522
0.74522
0.74522
0.74522
0.74522
0.74522
0.74522
0.74522
0.74522
0.74522
0.74522
0.74522
0.74522
0.74522
0.74522
0.74522
0.74522
0.74522
0.74522
0.74522
0.74522
0.74522
0.74522
0.74522
0.74522
0.74522
0.74522
0.74522
0.74522
0.74522
0.74522
0.74522
0.74522
0.745221
0.745222
0.745225
0.74523
0.745241
0.745263
0.745306
0.745384
0.745502
0.745615
0.745577
0.745311
0.744896
0.744352
0.743833
0.74361
0.743758
0.744075
0.74425
0.744813
0.745008
0.745143
0.745229
0.745281
0.745311
0.745329
0.745338
0.745342
0.745343
0.745342
0.74534
0.745338
0.745335
0.745332
0.745329
0.745326
0.745323
0.745321
0.745318
0.745316
0.745314
0.745312
0.74531
0.745308
0.745306
0.745305
0.745303
0.745302
0.7453
0.745299
0.745297
0.745296
0.745295
0.745293
0.745292
0.745291
0.745289
0.745288
0.745286
0.745285
0.745284
0.745282
0.745281
0.745279
0.745278
0.745276
0.745274
0.745273
0.745271
0.74527
0.745268
0.745267
0.745265
0.745264
0.745262
0.745261
0.74526
0.745259
0.745257
0.745256
0.745255
0.745254
0.745253
0.745252
0.745252
0.745251
0.74525
0.74525
0.745249
0.745249
0.745248
0.745248
0.745247
0.745247
0.745247
0.745246
0.745246
0.745246
0.745245
0.745245
0.745244
0.745244
0.745244
0.745243
0.745243
0.745242
0.745242
0.745241
0.74524
0.74524
0.745239
0.745239
0.745238
0.745237
0.745237
0.745236
0.745235
0.745234
0.745234
0.745233
0.745232
0.745231
0.74523
0.745229
0.745227
0.745226
0.745225
0.745223
0.745222
0.74522
0.745219
0.745217
0.745215
0.745213
0.745211
0.745209
0.745207
0.745205
0.745203
0.7452
0.745198
0.745195
0.745192
0.745189
0.745187
0.745184
0.745181
0.745178
0.745174
0.745171
0.745168
0.745165
0.745162
0.74516
0.745157
0.745155
0.745152
0.74515
0.745148
0.745147
0.745145
0.745144
0.745144
0.745143
0.745144
0.745144
0.745146
0.745147
0.74515
0.745152
0.745156
0.74516
0.745165
0.74517
0.745177
0.745184
0.745191
0.7452
0.745209
0.745219
0.74523
0.745241
0.745253
0.745266
0.745279
0.745293
0.745307
0.745322
0.745337
0.745352
0.745367
0.745383
0.745398
0.745413
0.745428
0.745442
0.745456
0.74547
0.745482
0.745494
0.745505
0.745515
0.745523
0.74553
0.745536
0.745541
0.745543
0.745545
0.745544
0.745543
0.745539
0.745534
0.745527
0.745518
0.745508
0.745497
0.745483
0.745469
0.745453
0.745436
0.745418
0.745399
0.745379
0.745358
0.745336
0.745314
0.745291
0.745268
0.745244
0.74522
0.745197
0.745176
0.745161
)
;

boundaryField
{
    boundary
    {
        type            empty;
    }
    inlet
    {
        type            fixedValue;
        value           uniform 0.74522;
    }
    outlet
    {
        type            zeroGradient;
    }
}


// ************************************************************************* //
