/*--------------------------------*- C++ -*----------------------------------*\
  =========                 |
  \\      /  F ield         | OpenFOAM: The Open Source CFD Toolbox
   \\    /   O peration     | Website:  https://openfoam.org
    \\  /    A nd           | Version:  7
     \\/     M anipulation  |
\*---------------------------------------------------------------------------*/
FoamFile
{
    version     2.0;
    format      ascii;
    class       volScalarField;
    location    "0.00052";
    object      O;
}
// * * * * * * * * * * * * * * * * * * * * * * * * * * * * * * * * * * * * * //

dimensions      [0 0 0 0 0 0 0];

internalField   nonuniform List<scalar> 
500
(
1.58053e-47
3.77427e-47
5.98444e-47
8.19985e-47
1.04181e-46
1.2639e-46
1.48628e-46
1.70903e-46
1.93227e-46
2.15616e-46
2.38092e-46
2.60685e-46
2.83429e-46
3.06371e-46
3.29568e-46
3.53085e-46
3.77001e-46
4.01403e-46
4.26391e-46
4.52068e-46
4.78547e-46
5.05937e-46
5.34346e-46
5.63872e-46
5.94593e-46
6.26568e-46
6.59822e-46
6.94344e-46
7.30082e-46
7.66936e-46
8.04758e-46
8.43352e-46
8.82477e-46
9.21854e-46
9.61171e-46
1.00009e-45
1.03828e-45
1.0754e-45
1.11111e-45
1.14513e-45
1.17721e-45
1.20712e-45
1.23472e-45
1.25991e-45
1.28265e-45
1.30294e-45
1.32085e-45
1.33648e-45
1.34998e-45
1.3615e-45
1.37122e-45
1.37934e-45
1.38604e-45
1.39152e-45
1.39594e-45
1.39948e-45
1.40228e-45
1.40447e-45
1.40617e-45
1.40748e-45
1.40847e-45
1.40921e-45
1.40976e-45
1.41017e-45
1.41047e-45
1.41069e-45
1.41085e-45
1.41096e-45
1.41104e-45
1.4111e-45
1.41114e-45
1.41117e-45
1.41119e-45
1.41121e-45
1.41122e-45
1.41123e-45
1.41124e-45
1.41125e-45
1.41126e-45
1.41127e-45
1.41129e-45
1.4113e-45
1.41131e-45
1.41132e-45
1.41133e-45
1.41135e-45
1.41136e-45
1.41138e-45
1.41139e-45
1.41141e-45
1.41143e-45
1.41145e-45
1.41147e-45
1.41149e-45
1.41152e-45
1.41154e-45
1.41157e-45
1.41159e-45
1.41162e-45
1.41165e-45
1.41168e-45
1.41172e-45
1.41175e-45
1.41178e-45
1.41182e-45
1.41186e-45
1.4119e-45
1.41194e-45
1.41198e-45
1.41203e-45
1.41208e-45
1.41212e-45
1.41217e-45
1.41223e-45
1.41228e-45
1.41234e-45
1.41239e-45
1.41245e-45
1.41251e-45
1.41257e-45
1.41261e-45
1.41261e-45
1.41247e-45
1.4119e-45
1.41008e-45
1.40743e-45
1.40771e-45
1.40806e-45
1.40851e-45
1.40904e-45
1.40964e-45
1.41029e-45
1.41095e-45
1.41159e-45
1.41218e-45
1.41269e-45
1.41312e-45
1.41346e-45
1.41372e-45
1.41392e-45
1.41406e-45
1.41417e-45
1.41426e-45
1.41433e-45
1.41439e-45
1.41444e-45
1.4145e-45
1.41455e-45
1.4146e-45
1.41465e-45
1.4147e-45
1.41476e-45
1.41482e-45
1.41488e-45
1.41496e-45
1.41505e-45
1.41514e-45
1.41525e-45
1.41537e-45
1.41551e-45
1.41565e-45
1.41581e-45
1.41598e-45
1.41615e-45
1.41633e-45
1.41652e-45
1.4167e-45
1.41689e-45
1.41707e-45
1.41724e-45
1.41741e-45
1.41757e-45
1.41772e-45
1.41786e-45
1.418e-45
1.41812e-45
1.41823e-45
1.41834e-45
1.41843e-45
1.41851e-45
1.41859e-45
1.41865e-45
1.4187e-45
1.41875e-45
1.41878e-45
1.41881e-45
1.41882e-45
1.41883e-45
1.41882e-45
1.4188e-45
1.41878e-45
1.41874e-45
1.41868e-45
1.41862e-45
1.41854e-45
1.41845e-45
1.41835e-45
1.41825e-45
1.41822e-45
1.41855e-45
1.42055e-45
1.4301e-45
1.47325e-45
1.66448e-45
2.50281e-45
6.1456e-45
2.18424e-44
8.89194e-44
3.73179e-43
1.56777e-42
6.54582e-42
2.71153e-41
1.11388e-40
4.53711e-40
1.83236e-39
7.33697e-39
2.91262e-38
1.1463e-37
4.47257e-37
1.73002e-36
6.63401e-36
2.52193e-35
9.50443e-35
3.55108e-34
1.31537e-33
4.83061e-33
1.7589e-32
6.35024e-32
2.2734e-31
8.07102e-31
2.84175e-30
9.92401e-30
3.43778e-29
1.18143e-28
4.0284e-28
1.36306e-27
4.57756e-27
1.52606e-26
5.05166e-26
1.66087e-25
5.42521e-25
1.76127e-24
5.68498e-24
1.82515e-23
5.83055e-23
1.8541e-22
5.87132e-22
1.85214e-21
5.82232e-21
1.82451e-20
5.7011e-20
1.78702e-19
5.57472e-19
1.73108e-18
5.36179e-18
1.65789e-17
5.11958e-17
1.57931e-16
4.86797e-16
1.49954e-15
4.61704e-15
1.42109e-14
4.37297e-14
1.34542e-13
4.13895e-13
1.27315e-12
3.9159e-12
1.20432e-11
3.70351e-11
1.13881e-10
3.5017e-10
1.07704e-09
3.31842e-09
1.03068e-08
3.31095e-08
1.19692e-07
5.73585e-07
3.79159e-06
2.46571e-05
0.000117856
0.000450023
0.00125435
0.00250326
0.00386374
0.00500026
0.00578111
0.00623561
0.00641601
0.00644319
0.00637732
0.00625807
0.00611065
0.00595047
0.00578667
0.00562451
0.00546688
0.00531528
0.00517037
0.00503231
0.00490102
0.00477625
0.00465767
0.00454494
0.00443769
0.00433558
0.00423828
0.00414547
0.00405686
0.0039722
0.00389123
0.00381376
0.00373961
0.00367077
0.00360578
0.00354301
0.00348233
0.00342365
0.00336685
0.00331185
0.00325855
0.00320689
0.00315679
0.00310817
0.00306098
0.00301516
0.00297063
0.00292735
0.00288527
0.00284434
0.0028045
0.00276572
0.00272795
0.00269115
0.00265529
0.00262032
0.00258621
0.00255293
0.00252044
0.00248872
0.00245774
0.00242746
0.00239787
0.00236893
0.00234063
0.00231294
0.00228584
0.00225931
0.00223333
0.00220788
0.00218295
0.00215851
0.00213456
0.00211107
0.00208804
0.00206544
0.00204328
0.00202152
0.00200018
0.00197922
0.00195865
0.00193845
0.00191861
0.00189913
0.00187999
0.00186119
0.00184272
0.00182457
0.00180673
0.0017892
0.00177197
0.00175503
0.00173837
0.00172199
0.00170588
0.00169003
0.00167444
0.0016591
0.00164398
0.00162911
0.00161447
0.00160007
0.00158588
0.00157192
0.00155816
0.00154462
0.00153127
0.00151812
0.00150517
0.0014924
0.00147981
0.00146741
0.00145517
0.00144311
0.00143121
0.00141948
0.0014079
0.00139647
0.00138519
0.00137405
0.00136306
0.0013522
0.00134147
0.00133086
0.00132038
0.00131001
0.00129976
0.00128962
0.00127958
0.00126965
0.00125981
0.00125006
0.00124039
0.00123081
0.00122135
0.00121227
0.00120038
0.001191
0.00118169
0.00117241
0.00116315
0.0011539
0.00114465
0.0011354
0.00112614
0.00111687
0.00110757
0.00109825
0.0010889
0.00107952
0.00107009
0.00106062
0.0010511
0.00104153
0.00103189
0.0010222
0.00101244
0.00100262
0.000992735
0.000982781
0.000972759
0.000962671
0.000952519
0.000942305
0.000932033
0.000921706
0.00091133
0.000900911
0.000890456
0.000879973
0.00086947
0.000858956
0.000848443
0.00083794
0.000827459
0.000817011
0.00080661
0.000796267
0.000785996
0.00077581
0.000765721
0.000755742
0.000745887
0.000736167
0.000726594
0.00071718
0.000707936
0.000698871
0.000689995
0.000681316
0.000672842
0.00066458
0.000656534
0.000648709
0.000641108
0.000633733
0.000626587
0.000619667
0.000612975
0.000606507
0.000600262
0.000594235
0.000588422
0.000582818
0.000577418
0.000572217
0.00056721
0.00056239
0.000557755
0.000553301
0.000549028
0.000544937
0.000541033
0.000537328
0.00053384
0.000530595
0.000527632
0.000525007
0.000522793
0.000521095
0.000520081
)
;

boundaryField
{
    boundary
    {
        type            empty;
    }
    inlet
    {
        type            fixedValue;
        value           uniform 0;
    }
    outlet
    {
        type            zeroGradient;
    }
}


// ************************************************************************* //
