/*--------------------------------*- C++ -*----------------------------------*\
  =========                 |
  \\      /  F ield         | OpenFOAM: The Open Source CFD Toolbox
   \\    /   O peration     | Website:  https://openfoam.org
    \\  /    A nd           | Version:  7
     \\/     M anipulation  |
\*---------------------------------------------------------------------------*/
FoamFile
{
    version     2.0;
    format      ascii;
    class       volScalarField;
    location    "0.00052";
    object      O2;
}
// * * * * * * * * * * * * * * * * * * * * * * * * * * * * * * * * * * * * * //

dimensions      [0 0 0 0 0 0 0];

internalField   nonuniform List<scalar> 
500
(
0.226269
0.226269
0.226269
0.226269
0.226269
0.226269
0.226269
0.226269
0.226269
0.226269
0.226269
0.226269
0.226269
0.226269
0.226269
0.226269
0.226269
0.226269
0.226269
0.226269
0.226269
0.226269
0.226269
0.226269
0.226269
0.226269
0.226269
0.226269
0.226269
0.226269
0.226269
0.226269
0.226269
0.226269
0.226269
0.226269
0.226269
0.226269
0.226269
0.226269
0.226269
0.226269
0.226269
0.226269
0.226269
0.226269
0.226269
0.226269
0.226269
0.226269
0.226269
0.226269
0.226269
0.226269
0.226269
0.226269
0.226269
0.226269
0.226269
0.226269
0.226269
0.226269
0.226269
0.226269
0.226269
0.226269
0.226269
0.226269
0.226269
0.226269
0.226269
0.226269
0.226269
0.226269
0.226269
0.226269
0.226269
0.226269
0.226269
0.226269
0.226269
0.226269
0.226269
0.226269
0.226269
0.226269
0.226269
0.226269
0.226269
0.226269
0.226269
0.226269
0.226269
0.226269
0.226269
0.226269
0.226269
0.226269
0.226269
0.226269
0.226269
0.226269
0.226269
0.226269
0.226269
0.226269
0.226269
0.226269
0.226269
0.226269
0.226269
0.226269
0.226269
0.226269
0.226269
0.226269
0.226269
0.226269
0.226269
0.226269
0.226269
0.226269
0.226269
0.226269
0.226269
0.226269
0.226269
0.226269
0.226269
0.226269
0.226269
0.226269
0.226269
0.226269
0.226269
0.226269
0.226269
0.226269
0.226269
0.226269
0.226269
0.226269
0.226269
0.226269
0.226269
0.226269
0.226269
0.226269
0.226269
0.226269
0.226269
0.226269
0.226269
0.226269
0.226269
0.226269
0.226269
0.226269
0.226269
0.226269
0.226269
0.226269
0.226269
0.226269
0.226269
0.226269
0.226269
0.226269
0.226269
0.226269
0.226269
0.226269
0.226269
0.226269
0.226269
0.226269
0.226269
0.226269
0.226269
0.226269
0.226269
0.226269
0.226269
0.226269
0.226269
0.226269
0.226269
0.226269
0.226269
0.226269
0.226269
0.226269
0.226269
0.226269
0.226269
0.226269
0.226269
0.226269
0.226269
0.226269
0.226269
0.226269
0.226269
0.226269
0.226269
0.226269
0.226269
0.226269
0.226269
0.226269
0.226269
0.226269
0.226269
0.226269
0.226269
0.226269
0.226269
0.226269
0.226269
0.226269
0.226269
0.226269
0.226269
0.226269
0.226269
0.226269
0.226269
0.226269
0.226269
0.226269
0.226269
0.226269
0.226269
0.226269
0.226269
0.226269
0.226269
0.226269
0.226269
0.226269
0.226269
0.226269
0.226269
0.226269
0.226269
0.226269
0.226269
0.226269
0.226269
0.226269
0.226269
0.226269
0.226269
0.226269
0.226269
0.226269
0.226269
0.226269
0.226269
0.226269
0.226269
0.226269
0.226269
0.226269
0.226269
0.226269
0.226269
0.226269
0.22627
0.226271
0.226272
0.226275
0.226278
0.226274
0.226223
0.22597
0.225004
0.222111
0.215312
0.20399
0.189363
0.170732
0.147345
0.121438
0.0975101
0.0789667
0.0623687
0.0527059
0.046179
0.0417458
0.0386675
0.0364562
0.034801
0.0335072
0.0324535
0.0315638
0.0307902
0.0301019
0.0294787
0.0289071
0.0283778
0.027884
0.0274207
0.0269842
0.0265716
0.0261802
0.0258083
0.025454
0.025116
0.0247931
0.0244844
0.0241891
0.0239154
0.0236557
0.0234044
0.0231612
0.0229255
0.0226969
0.0224752
0.02226
0.0220509
0.0218477
0.0216501
0.0214578
0.0212707
0.0210884
0.0209108
0.0207376
0.0205687
0.020404
0.0202431
0.020086
0.0199326
0.0197825
0.0196358
0.0194922
0.0193517
0.0192141
0.0190793
0.0189471
0.0188175
0.0186904
0.0185656
0.018443
0.0183227
0.0182044
0.0180881
0.0179737
0.0178612
0.0177505
0.0176415
0.0175341
0.0174284
0.0173242
0.0172216
0.0171204
0.0170207
0.0169223
0.0168253
0.0167297
0.0166353
0.0165422
0.0164503
0.0163597
0.0162702
0.0161819
0.0160948
0.0160087
0.0159238
0.0158398
0.0157569
0.015675
0.0155941
0.015514
0.0154348
0.0153563
0.0152788
0.0152025
0.0151272
0.0150527
0.014979
0.0149061
0.014834
0.0147627
0.014692
0.0146221
0.0145528
0.0144842
0.0144161
0.0143487
0.0142818
0.0142154
0.0141495
0.014084
0.014019
0.0139544
0.0138902
0.0138263
0.0137627
0.0136994
0.0136363
0.0135734
0.0135106
0.013448
0.0133854
0.0133228
0.0132602
0.0131976
0.0131349
0.013072
0.013009
0.0129458
0.0128823
0.0128186
0.0127578
0.0126666
0.0126
0.0125333
0.0124657
0.0123971
0.0123272
0.0122561
0.0121836
0.0121097
0.0120344
0.0119575
0.0118791
0.0117991
0.0117173
0.0116338
0.0115485
0.0114614
0.0113724
0.0112815
0.0111887
0.011094
0.0109973
0.0108987
0.0107981
0.0106957
0.0105914
0.0104854
0.0103776
0.0102682
0.0101573
0.010045
0.00993131
0.00981651
0.0097007
0.00958405
0.00946672
0.00934892
0.00923083
0.00911266
0.00899462
0.00887693
0.00875981
0.00864349
0.00852819
0.00841415
0.00830157
0.00819069
0.00808173
0.00797489
0.00787037
0.00776837
0.00766907
0.00757265
0.00747926
0.00738905
0.00730215
0.00721868
0.00713875
0.00706245
0.00698984
0.00692099
0.00685594
0.00679473
0.00673737
0.00668386
0.00663418
0.00658833
0.00654625
0.0065079
0.00647321
0.00644212
0.00641455
0.00639039
0.00636954
0.00635189
0.0063373
0.00632562
0.0063167
0.00631033
0.0063063
0.00630433
0.00630407
0.00630507
0.00630671
0.00630815
)
;

boundaryField
{
    boundary
    {
        type            empty;
    }
    inlet
    {
        type            fixedValue;
        value           uniform 0.226269;
    }
    outlet
    {
        type            zeroGradient;
    }
}


// ************************************************************************* //
