/*--------------------------------*- C++ -*----------------------------------*\
  =========                 |
  \\      /  F ield         | OpenFOAM: The Open Source CFD Toolbox
   \\    /   O peration     | Website:  https://openfoam.org
    \\  /    A nd           | Version:  7
     \\/     M anipulation  |
\*---------------------------------------------------------------------------*/
FoamFile
{
    version     2.0;
    format      ascii;
    class       volVectorField;
    location    "0.00052";
    object      U;
}
// * * * * * * * * * * * * * * * * * * * * * * * * * * * * * * * * * * * * * //

dimensions      [0 1 -1 0 0 0 0];

internalField   nonuniform List<vector> 
500
(
(2.34895 0 0)
(2.34898 0 0)
(2.349 0 0)
(2.34901 0 0)
(2.34902 0 0)
(2.34904 0 0)
(2.34905 0 0)
(2.34907 0 0)
(2.34908 0 0)
(2.3491 0 0)
(2.34911 0 0)
(2.34913 0 0)
(2.34915 0 0)
(2.34917 0 0)
(2.3492 0 0)
(2.34922 0 0)
(2.34925 0 0)
(2.34928 0 0)
(2.34931 0 0)
(2.34935 0 0)
(2.34939 0 0)
(2.34943 0 0)
(2.34948 0 0)
(2.34952 0 0)
(2.34957 0 0)
(2.34962 0 0)
(2.34967 0 0)
(2.34972 0 0)
(2.34977 0 0)
(2.34982 0 0)
(2.34986 0 0)
(2.3499 0 0)
(2.34993 0 0)
(2.34995 0 0)
(2.34997 0 0)
(2.34999 0 0)
(2.34999 0 0)
(2.34999 0 0)
(2.34999 0 0)
(2.34998 0 0)
(2.34996 0 0)
(2.34994 0 0)
(2.34992 0 0)
(2.3499 0 0)
(2.34988 0 0)
(2.34986 0 0)
(2.34984 0 0)
(2.34982 0 0)
(2.3498 0 0)
(2.34979 0 0)
(2.34978 0 0)
(2.34977 0 0)
(2.34977 0 0)
(2.34977 0 0)
(2.34977 0 0)
(2.34977 0 0)
(2.34977 0 0)
(2.34978 0 0)
(2.34979 0 0)
(2.3498 0 0)
(2.34981 0 0)
(2.34982 0 0)
(2.34983 0 0)
(2.34985 0 0)
(2.34986 0 0)
(2.34987 0 0)
(2.34989 0 0)
(2.3499 0 0)
(2.34992 0 0)
(2.34993 0 0)
(2.34995 0 0)
(2.34996 0 0)
(2.34998 0 0)
(2.34999 0 0)
(2.35001 0 0)
(2.35003 0 0)
(2.35004 0 0)
(2.35006 0 0)
(2.35007 0 0)
(2.35009 0 0)
(2.3501 0 0)
(2.35012 0 0)
(2.35013 0 0)
(2.35015 0 0)
(2.35017 0 0)
(2.35018 0 0)
(2.3502 0 0)
(2.35021 0 0)
(2.35023 0 0)
(2.35025 0 0)
(2.35026 0 0)
(2.35028 0 0)
(2.35029 0 0)
(2.35031 0 0)
(2.35033 0 0)
(2.35034 0 0)
(2.35036 0 0)
(2.35037 0 0)
(2.35039 0 0)
(2.35041 0 0)
(2.35042 0 0)
(2.35044 0 0)
(2.35045 0 0)
(2.35047 0 0)
(2.35049 0 0)
(2.3505 0 0)
(2.35052 0 0)
(2.35054 0 0)
(2.35055 0 0)
(2.35057 0 0)
(2.35059 0 0)
(2.3506 0 0)
(2.35062 0 0)
(2.35064 0 0)
(2.35065 0 0)
(2.35067 0 0)
(2.35069 0 0)
(2.3507 0 0)
(2.35072 0 0)
(2.35074 0 0)
(2.35075 0 0)
(2.35077 0 0)
(2.35079 0 0)
(2.3508 0 0)
(2.35082 0 0)
(2.35083 0 0)
(2.35085 0 0)
(2.35087 0 0)
(2.35089 0 0)
(2.35091 0 0)
(2.35092 0 0)
(2.35094 0 0)
(2.35096 0 0)
(2.35098 0 0)
(2.35099 0 0)
(2.35101 0 0)
(2.35103 0 0)
(2.35104 0 0)
(2.35106 0 0)
(2.35108 0 0)
(2.3511 0 0)
(2.35111 0 0)
(2.35113 0 0)
(2.35115 0 0)
(2.35117 0 0)
(2.35118 0 0)
(2.3512 0 0)
(2.35122 0 0)
(2.35124 0 0)
(2.35125 0 0)
(2.35127 0 0)
(2.35129 0 0)
(2.35131 0 0)
(2.35133 0 0)
(2.35134 0 0)
(2.35136 0 0)
(2.35138 0 0)
(2.3514 0 0)
(2.35141 0 0)
(2.35143 0 0)
(2.35145 0 0)
(2.35147 0 0)
(2.35149 0 0)
(2.3515 0 0)
(2.35152 0 0)
(2.35154 0 0)
(2.35156 0 0)
(2.35158 0 0)
(2.35159 0 0)
(2.35161 0 0)
(2.35163 0 0)
(2.35165 0 0)
(2.35167 0 0)
(2.35168 0 0)
(2.3517 0 0)
(2.35172 0 0)
(2.35174 0 0)
(2.35176 0 0)
(2.35178 0 0)
(2.35179 0 0)
(2.35181 0 0)
(2.35183 0 0)
(2.35185 0 0)
(2.35187 0 0)
(2.35189 0 0)
(2.3519 0 0)
(2.35192 0 0)
(2.35194 0 0)
(2.35196 0 0)
(2.35198 0 0)
(2.352 0 0)
(2.35202 0 0)
(2.35203 0 0)
(2.35205 0 0)
(2.35207 0 0)
(2.35209 0 0)
(2.35211 0 0)
(2.35213 0 0)
(2.35215 0 0)
(2.35217 0 0)
(2.35218 0 0)
(2.3522 0 0)
(2.35222 0 0)
(2.35224 0 0)
(2.35226 0 0)
(2.35228 0 0)
(2.3523 0 0)
(2.35232 0 0)
(2.35233 0 0)
(2.35235 0 0)
(2.35237 0 0)
(2.35239 0 0)
(2.35241 0 0)
(2.35243 0 0)
(2.35245 0 0)
(2.35247 0 0)
(2.35249 0 0)
(2.35251 0 0)
(2.35252 0 0)
(2.35254 0 0)
(2.35256 0 0)
(2.35258 0 0)
(2.3526 0 0)
(2.35262 0 0)
(2.35264 0 0)
(2.35266 0 0)
(2.35268 0 0)
(2.3527 0 0)
(2.35272 0 0)
(2.35274 0 0)
(2.35276 0 0)
(2.35277 0 0)
(2.35279 0 0)
(2.35281 0 0)
(2.35283 0 0)
(2.35285 0 0)
(2.35287 0 0)
(2.35289 0 0)
(2.35291 0 0)
(2.35293 0 0)
(2.35295 0 0)
(2.35297 0 0)
(2.35299 0 0)
(2.35301 0 0)
(2.35303 0 0)
(2.35305 0 0)
(2.35307 0 0)
(2.35309 0 0)
(2.35311 0 0)
(2.35313 0 0)
(2.35315 0 0)
(2.35316 0 0)
(2.35319 0 0)
(2.35321 0 0)
(2.35323 0 0)
(2.35325 0 0)
(2.35327 0 0)
(2.35329 0 0)
(2.35331 0 0)
(2.35333 0 0)
(2.35335 0 0)
(2.35337 0 0)
(2.35339 0 0)
(2.35341 0 0)
(2.35343 0 0)
(2.35345 0 0)
(2.35347 0 0)
(2.35349 0 0)
(2.35353 0 0)
(2.35365 0 0)
(2.35401 0 0)
(2.35519 0 0)
(2.35887 0 0)
(2.36968 0 0)
(2.39881 0 0)
(2.47075 0 0)
(2.63888 0 0)
(3.00471 0 0)
(3.74435 0 0)
(4.84508 0 0)
(6.08518 0 0)
(7.26903 0 0)
(8.32312 0 0)
(9.23174 0 0)
(9.99215 0 0)
(10.623 0 0)
(11.1471 0 0)
(11.5703 0 0)
(11.9056 0 0)
(12.1802 0 0)
(12.4153 0 0)
(12.6211 0 0)
(12.803 0 0)
(12.9652 0 0)
(13.1112 0 0)
(13.2436 0 0)
(13.3646 0 0)
(13.4758 0 0)
(13.5784 0 0)
(13.6736 0 0)
(13.7622 0 0)
(13.845 0 0)
(13.9226 0 0)
(13.9954 0 0)
(14.0641 0 0)
(14.129 0 0)
(14.1903 0 0)
(14.2485 0 0)
(14.3037 0 0)
(14.3563 0 0)
(14.4062 0 0)
(14.4539 0 0)
(14.4981 0 0)
(14.5394 0 0)
(14.5795 0 0)
(14.6182 0 0)
(14.6556 0 0)
(14.6917 0 0)
(14.7266 0 0)
(14.7604 0 0)
(14.7932 0 0)
(14.825 0 0)
(14.8558 0 0)
(14.8857 0 0)
(14.9148 0 0)
(14.9431 0 0)
(14.9705 0 0)
(14.9973 0 0)
(15.0233 0 0)
(15.0487 0 0)
(15.0734 0 0)
(15.0975 0 0)
(15.121 0 0)
(15.1439 0 0)
(15.1663 0 0)
(15.1882 0 0)
(15.2095 0 0)
(15.2304 0 0)
(15.2508 0 0)
(15.2708 0 0)
(15.2904 0 0)
(15.3095 0 0)
(15.3282 0 0)
(15.3466 0 0)
(15.3645 0 0)
(15.3821 0 0)
(15.3994 0 0)
(15.4163 0 0)
(15.4329 0 0)
(15.4492 0 0)
(15.4652 0 0)
(15.4809 0 0)
(15.4963 0 0)
(15.5114 0 0)
(15.5262 0 0)
(15.5408 0 0)
(15.5552 0 0)
(15.5693 0 0)
(15.5831 0 0)
(15.5968 0 0)
(15.6102 0 0)
(15.6233 0 0)
(15.6363 0 0)
(15.6491 0 0)
(15.6616 0 0)
(15.674 0 0)
(15.6862 0 0)
(15.6982 0 0)
(15.71 0 0)
(15.7216 0 0)
(15.7331 0 0)
(15.7444 0 0)
(15.7555 0 0)
(15.7665 0 0)
(15.7773 0 0)
(15.7879 0 0)
(15.7984 0 0)
(15.8088 0 0)
(15.8189 0 0)
(15.8291 0 0)
(15.839 0 0)
(15.8488 0 0)
(15.8585 0 0)
(15.8681 0 0)
(15.8775 0 0)
(15.8869 0 0)
(15.8961 0 0)
(15.9052 0 0)
(15.9141 0 0)
(15.923 0 0)
(15.9318 0 0)
(15.9404 0 0)
(15.949 0 0)
(15.9574 0 0)
(15.9658 0 0)
(15.974 0 0)
(15.9822 0 0)
(15.9902 0 0)
(15.9982 0 0)
(16.006 0 0)
(16.0138 0 0)
(16.0215 0 0)
(16.0291 0 0)
(16.0366 0 0)
(16.0441 0 0)
(16.0514 0 0)
(16.0587 0 0)
(16.0659 0 0)
(16.073 0 0)
(16.08 0 0)
(16.0869 0 0)
(16.0938 0 0)
(16.1007 0 0)
(16.1071 0 0)
(16.1137 0 0)
(16.1205 0 0)
(16.1271 0 0)
(16.1336 0 0)
(16.14 0 0)
(16.1463 0 0)
(16.1525 0 0)
(16.1587 0 0)
(16.1649 0 0)
(16.1709 0 0)
(16.1769 0 0)
(16.1829 0 0)
(16.1887 0 0)
(16.1945 0 0)
(16.2003 0 0)
(16.206 0 0)
(16.2116 0 0)
(16.2172 0 0)
(16.2228 0 0)
(16.2283 0 0)
(16.2337 0 0)
(16.2391 0 0)
(16.2445 0 0)
(16.2498 0 0)
(16.2551 0 0)
(16.2603 0 0)
(16.2655 0 0)
(16.2707 0 0)
(16.2759 0 0)
(16.281 0 0)
(16.2861 0 0)
(16.2912 0 0)
(16.2962 0 0)
(16.3013 0 0)
(16.3063 0 0)
(16.3113 0 0)
(16.3162 0 0)
(16.3212 0 0)
(16.3261 0 0)
(16.331 0 0)
(16.3359 0 0)
(16.3408 0 0)
(16.3456 0 0)
(16.3504 0 0)
(16.3552 0 0)
(16.3599 0 0)
(16.3646 0 0)
(16.3692 0 0)
(16.3738 0 0)
(16.3784 0 0)
(16.3828 0 0)
(16.3872 0 0)
(16.3915 0 0)
(16.3958 0 0)
(16.3999 0 0)
(16.4039 0 0)
(16.4078 0 0)
(16.4116 0 0)
(16.4153 0 0)
(16.4189 0 0)
(16.4223 0 0)
(16.4256 0 0)
(16.4287 0 0)
(16.4316 0 0)
(16.4344 0 0)
(16.4371 0 0)
(16.4396 0 0)
(16.4419 0 0)
(16.4441 0 0)
(16.4461 0 0)
(16.4479 0 0)
(16.4496 0 0)
(16.4512 0 0)
(16.4526 0 0)
(16.4539 0 0)
(16.4551 0 0)
(16.4562 0 0)
(16.4573 0 0)
(16.4583 0 0)
(16.4592 0 0)
(16.4602 0 0)
(16.4612 0 0)
(16.4622 0 0)
(16.4628 0 0)
(16.4619 0 0)
(16.4572 0 0)
)
;

boundaryField
{
    boundary
    {
        type            empty;
    }
    inlet
    {
        type            fixedValue;
        value           uniform (2.34893 0 0);
    }
    outlet
    {
        type            zeroGradient;
    }
}


// ************************************************************************* //
