/*--------------------------------*- C++ -*----------------------------------*\
  =========                 |
  \\      /  F ield         | OpenFOAM: The Open Source CFD Toolbox
   \\    /   O peration     | Website:  https://openfoam.org
    \\  /    A nd           | Version:  7
     \\/     M anipulation  |
\*---------------------------------------------------------------------------*/
FoamFile
{
    version     2.0;
    format      ascii;
    class       volScalarField;
    location    "0.00021";
    object      H2O2;
}
// * * * * * * * * * * * * * * * * * * * * * * * * * * * * * * * * * * * * * //

dimensions      [0 0 0 0 0 0 0];

internalField   nonuniform List<scalar> 
125
(
2.02489e-52
6.54975e-52
1.31266e-51
2.18339e-51
3.27561e-51
4.59673e-51
6.15073e-51
7.93524e-51
9.93825e-51
1.21351e-50
1.4487e-50
1.69407e-50
1.94319e-50
2.18896e-50
2.42432e-50
2.64295e-50
2.83982e-50
3.01168e-50
3.15711e-50
3.27645e-50
3.37147e-50
3.44491e-50
3.50006e-50
3.54032e-50
3.56892e-50
3.58871e-50
3.60205e-50
3.61082e-50
3.61645e-50
3.61998e-50
3.62215e-50
3.62344e-50
3.6242e-50
3.62464e-50
3.62488e-50
3.62501e-50
3.62508e-50
3.62512e-50
3.62514e-50
3.62514e-50
3.62514e-50
3.62514e-50
3.62514e-50
3.62514e-50
3.62514e-50
3.62514e-50
3.62514e-50
3.62514e-50
3.62515e-50
3.62515e-50
3.62516e-50
3.62516e-50
3.62517e-50
3.62518e-50
3.62519e-50
3.6252e-50
3.62521e-50
3.62523e-50
3.62524e-50
3.62526e-50
3.62528e-50
3.62531e-50
3.62533e-50
3.62536e-50
3.62539e-50
3.62542e-50
3.62546e-50
3.62549e-50
3.62553e-50
3.62558e-50
3.62562e-50
3.62567e-50
3.62572e-50
3.62578e-50
3.62584e-50
3.6259e-50
3.62597e-50
3.62604e-50
3.62611e-50
3.62619e-50
3.62627e-50
3.62635e-50
3.62644e-50
3.62654e-50
3.62663e-50
3.62674e-50
3.62684e-50
3.62695e-50
3.62707e-50
3.62719e-50
3.62731e-50
3.62744e-50
3.62758e-50
3.62772e-50
3.62787e-50
3.62802e-50
3.62817e-50
3.62833e-50
3.6285e-50
3.62867e-50
3.62885e-50
3.62903e-50
3.62922e-50
3.62941e-50
3.62961e-50
3.62981e-50
3.63002e-50
3.63024e-50
3.63046e-50
3.63068e-50
3.63092e-50
3.63115e-50
3.63139e-50
3.63164e-50
3.63189e-50
3.63215e-50
3.63241e-50
3.63268e-50
3.63295e-50
3.63322e-50
3.63346e-50
3.63364e-50
3.6336e-50
3.63296e-50
3.63094e-50
)
;

boundaryField
{
    boundary
    {
        type            empty;
    }
    inlet
    {
        type            fixedValue;
        value           uniform 0;
    }
    outlet
    {
        type            zeroGradient;
    }
    procBoundary2to3
    {
        type            processor;
        value           uniform 3.62698e-50;
    }
}


// ************************************************************************* //
