/*--------------------------------*- C++ -*----------------------------------*\
  =========                 |
  \\      /  F ield         | OpenFOAM: The Open Source CFD Toolbox
   \\    /   O peration     | Website:  https://openfoam.org
    \\  /    A nd           | Version:  7
     \\/     M anipulation  |
\*---------------------------------------------------------------------------*/
FoamFile
{
    version     2.0;
    format      ascii;
    class       volScalarField;
    location    "4e-05";
    object      H;
}
// * * * * * * * * * * * * * * * * * * * * * * * * * * * * * * * * * * * * * //

dimensions      [0 0 0 0 0 0 0];

internalField   nonuniform List<scalar> 
124
(
7.49689e-05
7.49671e-05
7.49661e-05
7.49656e-05
7.49655e-05
7.49655e-05
7.49655e-05
7.49657e-05
7.49658e-05
7.49659e-05
7.4966e-05
7.49661e-05
7.49662e-05
7.49662e-05
7.49662e-05
7.49662e-05
7.49662e-05
7.49662e-05
7.49662e-05
7.49661e-05
7.49661e-05
7.4966e-05
7.49659e-05
7.49659e-05
7.49658e-05
7.49657e-05
7.49656e-05
7.49655e-05
7.49654e-05
7.49653e-05
7.49652e-05
7.49651e-05
7.4965e-05
7.49649e-05
7.49648e-05
7.49647e-05
7.49646e-05
7.49644e-05
7.49643e-05
7.49642e-05
7.49641e-05
7.4964e-05
7.49638e-05
7.49637e-05
7.49636e-05
7.49635e-05
7.49633e-05
7.49632e-05
7.49631e-05
7.4963e-05
7.49628e-05
7.49627e-05
7.49626e-05
7.49625e-05
7.49623e-05
7.49622e-05
7.49621e-05
7.4962e-05
7.49618e-05
7.49617e-05
7.49616e-05
7.49615e-05
7.49613e-05
7.49612e-05
7.49611e-05
7.4961e-05
7.49609e-05
7.49608e-05
7.49606e-05
7.49605e-05
7.49604e-05
7.49603e-05
7.49602e-05
7.49601e-05
7.496e-05
7.49599e-05
7.49598e-05
7.49597e-05
7.49597e-05
7.49596e-05
7.49595e-05
7.49594e-05
7.49593e-05
7.49592e-05
7.49592e-05
7.49591e-05
7.4959e-05
7.49589e-05
7.49589e-05
7.49588e-05
7.49587e-05
7.49587e-05
7.49586e-05
7.49586e-05
7.49585e-05
7.49585e-05
7.49584e-05
7.49584e-05
7.49583e-05
7.49583e-05
7.49582e-05
7.49582e-05
7.49582e-05
7.49581e-05
7.49581e-05
7.4958e-05
7.4958e-05
7.4958e-05
7.4958e-05
7.49579e-05
7.49579e-05
7.49579e-05
7.49579e-05
7.49579e-05
7.49579e-05
7.49579e-05
7.49579e-05
7.49579e-05
7.49579e-05
7.49579e-05
7.49579e-05
7.49579e-05
7.49579e-05
7.49579e-05
)
;

boundaryField
{
    boundary
    {
        type            empty;
    }
    inlet
    {
        type            fixedValue;
        value           nonuniform 0();
    }
    outlet
    {
        type            zeroGradient;
    }
    procBoundary0to1
    {
        type            processor;
        value           uniform 7.49693e-05;
    }
}


// ************************************************************************* //
