/*--------------------------------*- C++ -*----------------------------------*\
  =========                 |
  \\      /  F ield         | OpenFOAM: The Open Source CFD Toolbox
   \\    /   O peration     | Website:  https://openfoam.org
    \\  /    A nd           | Version:  7
     \\/     M anipulation  |
\*---------------------------------------------------------------------------*/
FoamFile
{
    version     2.0;
    format      ascii;
    class       volScalarField;
    location    "4e-05";
    object      H2O2;
}
// * * * * * * * * * * * * * * * * * * * * * * * * * * * * * * * * * * * * * //

dimensions      [0 0 0 0 0 0 0];

internalField   nonuniform List<scalar> 
124
(
1.895e-07
1.89496e-07
1.89495e-07
1.89494e-07
1.89492e-07
1.89491e-07
1.89488e-07
1.89486e-07
1.89483e-07
1.8948e-07
1.89477e-07
1.89474e-07
1.89471e-07
1.89467e-07
1.89464e-07
1.8946e-07
1.89456e-07
1.89453e-07
1.89449e-07
1.89445e-07
1.89442e-07
1.89438e-07
1.89434e-07
1.8943e-07
1.89427e-07
1.89423e-07
1.89419e-07
1.89416e-07
1.89412e-07
1.89408e-07
1.89405e-07
1.89401e-07
1.89397e-07
1.89394e-07
1.8939e-07
1.89386e-07
1.89383e-07
1.89379e-07
1.89375e-07
1.89372e-07
1.89368e-07
1.89364e-07
1.89361e-07
1.89357e-07
1.89353e-07
1.8935e-07
1.89346e-07
1.89343e-07
1.89339e-07
1.89336e-07
1.89332e-07
1.89328e-07
1.89325e-07
1.89321e-07
1.89318e-07
1.89315e-07
1.89311e-07
1.89308e-07
1.89304e-07
1.89301e-07
1.89298e-07
1.89294e-07
1.89291e-07
1.89288e-07
1.89285e-07
1.89281e-07
1.89278e-07
1.89275e-07
1.89272e-07
1.89269e-07
1.89266e-07
1.89263e-07
1.8926e-07
1.89257e-07
1.89254e-07
1.89252e-07
1.89249e-07
1.89246e-07
1.89243e-07
1.89241e-07
1.89238e-07
1.89236e-07
1.89233e-07
1.89231e-07
1.89229e-07
1.89226e-07
1.89224e-07
1.89222e-07
1.8922e-07
1.89218e-07
1.89216e-07
1.89214e-07
1.89212e-07
1.8921e-07
1.89208e-07
1.89207e-07
1.89205e-07
1.89203e-07
1.89202e-07
1.892e-07
1.89199e-07
1.89198e-07
1.89196e-07
1.89195e-07
1.89194e-07
1.89193e-07
1.89192e-07
1.89191e-07
1.8919e-07
1.89189e-07
1.89188e-07
1.89187e-07
1.89186e-07
1.89186e-07
1.89185e-07
1.89184e-07
1.89184e-07
1.89183e-07
1.89182e-07
1.89182e-07
1.89181e-07
1.8918e-07
1.89179e-07
1.89179e-07
)
;

boundaryField
{
    boundary
    {
        type            empty;
    }
    inlet
    {
        type            fixedValue;
        value           nonuniform 0();
    }
    outlet
    {
        type            zeroGradient;
    }
    procBoundary0to1
    {
        type            processor;
        value           uniform 1.89507e-07;
    }
}


// ************************************************************************* //
