/*--------------------------------*- C++ -*----------------------------------*\
  =========                 |
  \\      /  F ield         | OpenFOAM: The Open Source CFD Toolbox
   \\    /   O peration     | Website:  https://openfoam.org
    \\  /    A nd           | Version:  7
     \\/     M anipulation  |
\*---------------------------------------------------------------------------*/
FoamFile
{
    version     2.0;
    format      ascii;
    class       volScalarField;
    location    "4e-05";
    object      HO2;
}
// * * * * * * * * * * * * * * * * * * * * * * * * * * * * * * * * * * * * * //

dimensions      [0 0 0 0 0 0 0];

internalField   nonuniform List<scalar> 
124
(
1.71945e-06
1.71968e-06
1.71979e-06
1.71984e-06
1.71987e-06
1.71989e-06
1.71991e-06
1.71992e-06
1.71994e-06
1.71995e-06
1.71997e-06
1.71998e-06
1.72e-06
1.72001e-06
1.72003e-06
1.72004e-06
1.72006e-06
1.72008e-06
1.72009e-06
1.72011e-06
1.72013e-06
1.72014e-06
1.72016e-06
1.72018e-06
1.72019e-06
1.72021e-06
1.72023e-06
1.72025e-06
1.72026e-06
1.72028e-06
1.7203e-06
1.72032e-06
1.72033e-06
1.72035e-06
1.72037e-06
1.72039e-06
1.7204e-06
1.72042e-06
1.72044e-06
1.72046e-06
1.72047e-06
1.72049e-06
1.72051e-06
1.72053e-06
1.72055e-06
1.72056e-06
1.72058e-06
1.7206e-06
1.72061e-06
1.72063e-06
1.72064e-06
1.72066e-06
1.72068e-06
1.72069e-06
1.72071e-06
1.72072e-06
1.72074e-06
1.72075e-06
1.72076e-06
1.72077e-06
1.72079e-06
1.7208e-06
1.72082e-06
1.72083e-06
1.72084e-06
1.72085e-06
1.72087e-06
1.72088e-06
1.72089e-06
1.7209e-06
1.72091e-06
1.72092e-06
1.72093e-06
1.72094e-06
1.72095e-06
1.72095e-06
1.72096e-06
1.72097e-06
1.72097e-06
1.72098e-06
1.72099e-06
1.72099e-06
1.721e-06
1.721e-06
1.72101e-06
1.72101e-06
1.72101e-06
1.72102e-06
1.72102e-06
1.72102e-06
1.72102e-06
1.72102e-06
1.72102e-06
1.72102e-06
1.72102e-06
1.72102e-06
1.72102e-06
1.72102e-06
1.72102e-06
1.72101e-06
1.72101e-06
1.72101e-06
1.721e-06
1.721e-06
1.72099e-06
1.72099e-06
1.72098e-06
1.72098e-06
1.72097e-06
1.72096e-06
1.72095e-06
1.72094e-06
1.72093e-06
1.72092e-06
1.72091e-06
1.7209e-06
1.72089e-06
1.72088e-06
1.72086e-06
1.72085e-06
1.72084e-06
1.72083e-06
1.72083e-06
1.72082e-06
)
;

boundaryField
{
    boundary
    {
        type            empty;
    }
    inlet
    {
        type            fixedValue;
        value           nonuniform 0();
    }
    outlet
    {
        type            zeroGradient;
    }
    procBoundary0to1
    {
        type            processor;
        value           uniform 1.71951e-06;
    }
}


// ************************************************************************* //
