/*--------------------------------*- C++ -*----------------------------------*\
  =========                 |
  \\      /  F ield         | OpenFOAM: The Open Source CFD Toolbox
   \\    /   O peration     | Website:  https://openfoam.org
    \\  /    A nd           | Version:  7
     \\/     M anipulation  |
\*---------------------------------------------------------------------------*/
FoamFile
{
    version     2.0;
    format      ascii;
    class       volScalarField;
    location    "4e-05";
    object      O;
}
// * * * * * * * * * * * * * * * * * * * * * * * * * * * * * * * * * * * * * //

dimensions      [0 0 0 0 0 0 0];

internalField   nonuniform List<scalar> 
124
(
0.000391955
0.000391958
0.000391965
0.000391971
0.000391977
0.000391981
0.000391985
0.000391989
0.000391992
0.000391994
0.000391996
0.000391997
0.000391998
0.000392
0.000392
0.000392001
0.000392002
0.000392003
0.000392003
0.000392004
0.000392004
0.000392005
0.000392006
0.000392006
0.000392006
0.000392007
0.000392007
0.000392008
0.000392008
0.000392009
0.000392009
0.00039201
0.00039201
0.00039201
0.000392011
0.000392011
0.000392012
0.000392012
0.000392012
0.000392013
0.000392013
0.000392013
0.000392014
0.000392014
0.000392014
0.000392015
0.000392015
0.000392015
0.000392015
0.000392016
0.000392016
0.000392016
0.000392017
0.000392017
0.000392017
0.000392017
0.000392017
0.000392017
0.000392018
0.000392018
0.000392018
0.000392018
0.000392018
0.000392018
0.000392018
0.000392019
0.000392019
0.000392019
0.000392019
0.000392019
0.000392019
0.000392019
0.000392019
0.000392019
0.000392019
0.000392019
0.000392019
0.000392019
0.000392019
0.000392019
0.000392019
0.000392019
0.000392019
0.000392019
0.000392019
0.000392019
0.000392019
0.000392019
0.000392019
0.000392018
0.000392018
0.000392018
0.000392018
0.000392018
0.000392018
0.000392017
0.000392017
0.000392017
0.000392017
0.000392017
0.000392016
0.000392016
0.000392016
0.000392016
0.000392015
0.000392015
0.000392014
0.000392014
0.000392014
0.000392013
0.000392013
0.000392013
0.000392012
0.000392012
0.000392012
0.000392011
0.000392011
0.00039201
0.00039201
0.00039201
0.000392009
0.000392009
0.000392009
0.000392008
)
;

boundaryField
{
    boundary
    {
        type            empty;
    }
    inlet
    {
        type            fixedValue;
        value           nonuniform 0();
    }
    outlet
    {
        type            zeroGradient;
    }
    procBoundary0to1
    {
        type            processor;
        value           uniform 0.000391959;
    }
}


// ************************************************************************* //
