/*--------------------------------*- C++ -*----------------------------------*\
  =========                 |
  \\      /  F ield         | OpenFOAM: The Open Source CFD Toolbox
   \\    /   O peration     | Website:  https://openfoam.org
    \\  /    A nd           | Version:  7
     \\/     M anipulation  |
\*---------------------------------------------------------------------------*/
FoamFile
{
    version     2.0;
    format      ascii;
    class       volScalarField;
    location    "4e-05";
    object      p;
}
// * * * * * * * * * * * * * * * * * * * * * * * * * * * * * * * * * * * * * //

dimensions      [1 -1 -2 0 0 0 0];

internalField   nonuniform List<scalar> 
124
(
102171
102170
102169
102168
102167
102166
102165
102164
102163
102162
102161
102160
102159
102158
102157
102156
102155
102154
102153
102152
102151
102150
102149
102148
102148
102147
102146
102145
102144
102143
102142
102141
102140
102139
102138
102138
102137
102136
102135
102134
102133
102132
102131
102130
102129
102129
102128
102127
102126
102125
102124
102123
102122
102122
102121
102120
102119
102118
102117
102116
102115
102115
102114
102113
102112
102111
102110
102109
102108
102108
102107
102106
102105
102104
102103
102102
102102
102101
102100
102099
102098
102097
102096
102096
102095
102094
102093
102092
102091
102090
102090
102089
102088
102087
102086
102085
102085
102084
102083
102082
102081
102080
102080
102079
102078
102077
102076
102075
102074
102074
102073
102072
102071
102070
102069
102069
102068
102067
102066
102065
102065
102064
102063
102062
)
;

boundaryField
{
    boundary
    {
        type            empty;
    }
    inlet
    {
        type            zeroGradient;
    }
    outlet
    {
        type            waveTransmissive;
        gamma           1.4;
        value           uniform 102062;
    }
    procBoundary0to1
    {
        type            processor;
        value           uniform 102172;
    }
}


// ************************************************************************* //
