/*--------------------------------*- C++ -*----------------------------------*\
  =========                 |
  \\      /  F ield         | OpenFOAM: The Open Source CFD Toolbox
   \\    /   O peration     | Website:  https://openfoam.org
    \\  /    A nd           | Version:  7
     \\/     M anipulation  |
\*---------------------------------------------------------------------------*/
FoamFile
{
    version     2.0;
    format      ascii;
    class       surfaceScalarField;
    location    "4e-05";
    object      phi;
}
// * * * * * * * * * * * * * * * * * * * * * * * * * * * * * * * * * * * * * //

dimensions      [1 0 -1 0 0 0 0];

internalField   nonuniform List<scalar> 
123
(
3.78851e-06
3.78545e-06
3.78239e-06
3.77933e-06
3.77627e-06
3.7732e-06
3.77014e-06
3.76708e-06
3.76402e-06
3.76096e-06
3.75789e-06
3.75483e-06
3.75177e-06
3.7487e-06
3.74564e-06
3.74258e-06
3.73951e-06
3.73645e-06
3.73338e-06
3.73032e-06
3.72725e-06
3.72418e-06
3.72112e-06
3.71805e-06
3.71498e-06
3.71192e-06
3.70885e-06
3.70578e-06
3.70272e-06
3.69965e-06
3.69658e-06
3.69351e-06
3.69044e-06
3.68738e-06
3.68431e-06
3.68124e-06
3.67817e-06
3.6751e-06
3.67204e-06
3.66897e-06
3.6659e-06
3.66284e-06
3.65977e-06
3.6567e-06
3.65364e-06
3.65057e-06
3.64751e-06
3.64444e-06
3.64138e-06
3.63831e-06
3.63525e-06
3.63219e-06
3.62912e-06
3.62606e-06
3.623e-06
3.61994e-06
3.61688e-06
3.61382e-06
3.61077e-06
3.60771e-06
3.60465e-06
3.6016e-06
3.59855e-06
3.59549e-06
3.59244e-06
3.58939e-06
3.58634e-06
3.58329e-06
3.58024e-06
3.5772e-06
3.57415e-06
3.57111e-06
3.56806e-06
3.56502e-06
3.56198e-06
3.55894e-06
3.5559e-06
3.55287e-06
3.54983e-06
3.5468e-06
3.54376e-06
3.54073e-06
3.5377e-06
3.53467e-06
3.53165e-06
3.52862e-06
3.5256e-06
3.52257e-06
3.51955e-06
3.51653e-06
3.51352e-06
3.5105e-06
3.50748e-06
3.50447e-06
3.50146e-06
3.49844e-06
3.49543e-06
3.49243e-06
3.48942e-06
3.48641e-06
3.48341e-06
3.4804e-06
3.4774e-06
3.4744e-06
3.4714e-06
3.4684e-06
3.46541e-06
3.46241e-06
3.45942e-06
3.45642e-06
3.45343e-06
3.45044e-06
3.44745e-06
3.44446e-06
3.44147e-06
3.43849e-06
3.4355e-06
3.43251e-06
3.42953e-06
3.42654e-06
3.42356e-06
3.42058e-06
3.41759e-06
)
;

boundaryField
{
    boundary
    {
        type            empty;
        value           nonuniform 0();
    }
    inlet
    {
        type            calculated;
        value           nonuniform 0();
    }
    outlet
    {
        type            calculated;
        value           uniform 3.41461e-06;
    }
    procBoundary0to1
    {
        type            processor;
        value           uniform -3.79157e-06;
    }
}


// ************************************************************************* //
