/*--------------------------------*- C++ -*----------------------------------*\
  =========                 |
  \\      /  F ield         | OpenFOAM: The Open Source CFD Toolbox
   \\    /   O peration     | Website:  https://openfoam.org
    \\  /    A nd           | Version:  7
     \\/     M anipulation  |
\*---------------------------------------------------------------------------*/
FoamFile
{
    version     2.0;
    format      ascii;
    class       volScalarField;
    location    "4e-05";
    object      Qdot;
}
// * * * * * * * * * * * * * * * * * * * * * * * * * * * * * * * * * * * * * //

dimensions      [1 -1 -3 0 0 0 0];

internalField   nonuniform List<scalar> 
124
(
-447853
-425597
-413502
-406473
-402529
-400319
-398901
-398367
-398219
-398318
-398566
-398907
-399317
-399775
-400267
-400782
-401313
-401856
-402407
-402965
-403527
-404090
-404658
-405235
-405833
-406418
-406997
-407574
-408149
-408724
-409298
-409873
-410449
-411025
-411602
-412181
-412761
-413342
-413925
-414511
-415101
-415924
-416563
-417195
-417861
-418625
-419298
-419923
-420521
-421103
-421671
-422228
-422775
-423319
-423861
-424400
-424935
-425255
-425784
-426305
-426818
-427322
-427816
-428302
-428778
-429246
-429704
-430153
-430591
-431015
-431422
-431797
-432113
-432415
-432342
-432658
-432986
-433024
-433339
-433645
-433941
-434225
-434498
-434757
-435004
-435238
-435457
-435662
-435853
-436028
-436191
-436340
-436476
-436599
-436707
-436801
-436881
-436947
-437000
-437039
-437063
-437071
-437063
-437040
-437004
-437376
-437313
-437237
-437147
-437044
-436927
-436796
-436650
-436493
-436327
-436154
-435975
-435793
-435614
-435445
-435299
-435191
-435136
-435141
)
;

boundaryField
{
    boundary
    {
        type            empty;
    }
    inlet
    {
        type            calculated;
        value           nonuniform 0();
    }
    outlet
    {
        type            calculated;
        value           uniform 0;
    }
    procBoundary0to1
    {
        type            processor;
        value           uniform 0;
    }
}


// ************************************************************************* //
