/*--------------------------------*- C++ -*----------------------------------*\
  =========                 |
  \\      /  F ield         | OpenFOAM: The Open Source CFD Toolbox
   \\    /   O peration     | Website:  https://openfoam.org
    \\  /    A nd           | Version:  7
     \\/     M anipulation  |
\*---------------------------------------------------------------------------*/
FoamFile
{
    version     2.0;
    format      ascii;
    class       volScalarField;
    location    "4e-05";
    object      T;
}
// * * * * * * * * * * * * * * * * * * * * * * * * * * * * * * * * * * * * * //

dimensions      [0 0 0 1 0 0 0];

internalField   nonuniform List<scalar> 
124
(
2390.82
2390.82
2390.82
2390.83
2390.83
2390.84
2390.84
2390.85
2390.85
2390.85
2390.86
2390.86
2390.87
2390.87
2390.88
2390.88
2390.88
2390.89
2390.89
2390.9
2390.9
2390.91
2390.91
2390.91
2390.92
2390.92
2390.93
2390.93
2390.94
2390.94
2390.95
2390.95
2390.95
2390.96
2390.96
2390.97
2390.97
2390.98
2390.98
2390.99
2390.99
2390.99
2391
2391
2391.01
2391.01
2391.02
2391.02
2391.02
2391.03
2391.03
2391.04
2391.04
2391.04
2391.05
2391.05
2391.06
2391.06
2391.06
2391.07
2391.07
2391.07
2391.08
2391.08
2391.08
2391.09
2391.09
2391.09
2391.1
2391.1
2391.1
2391.11
2391.11
2391.11
2391.11
2391.12
2391.12
2391.12
2391.12
2391.13
2391.13
2391.13
2391.13
2391.13
2391.13
2391.14
2391.14
2391.14
2391.14
2391.14
2391.14
2391.14
2391.14
2391.14
2391.14
2391.14
2391.14
2391.14
2391.14
2391.14
2391.14
2391.14
2391.14
2391.14
2391.14
2391.14
2391.14
2391.14
2391.14
2391.13
2391.13
2391.13
2391.13
2391.13
2391.13
2391.12
2391.12
2391.12
2391.12
2391.12
2391.11
2391.11
2391.11
2391.11
)
;

boundaryField
{
    boundary
    {
        type            empty;
    }
    inlet
    {
        type            fixedValue;
        value           nonuniform 0();
    }
    outlet
    {
        type            zeroGradient;
    }
    procBoundary0to1
    {
        type            processor;
        value           uniform 2390.81;
    }
}


// ************************************************************************* //
