/*--------------------------------*- C++ -*----------------------------------*\
  =========                 |
  \\      /  F ield         | OpenFOAM: The Open Source CFD Toolbox
   \\    /   O peration     | Website:  https://openfoam.org
    \\  /    A nd           | Version:  7
     \\/     M anipulation  |
\*---------------------------------------------------------------------------*/
FoamFile
{
    version     2.0;
    format      ascii;
    class       volVectorField;
    location    "4e-05";
    object      U;
}
// * * * * * * * * * * * * * * * * * * * * * * * * * * * * * * * * * * * * * //

dimensions      [0 1 -1 0 0 0 0];

internalField   nonuniform List<vector> 
124
(
(8.90698 0 0)
(8.89471 0 0)
(8.88667 0 0)
(8.88351 0 0)
(8.87683 0 0)
(8.86973 0 0)
(8.86234 0 0)
(8.85519 0 0)
(8.84803 0 0)
(8.84087 0 0)
(8.83371 0 0)
(8.82655 0 0)
(8.81939 0 0)
(8.81224 0 0)
(8.80508 0 0)
(8.79793 0 0)
(8.79078 0 0)
(8.78364 0 0)
(8.77649 0 0)
(8.76935 0 0)
(8.76221 0 0)
(8.75506 0 0)
(8.74792 0 0)
(8.74078 0 0)
(8.73364 0 0)
(8.72651 0 0)
(8.71937 0 0)
(8.71223 0 0)
(8.70509 0 0)
(8.69796 0 0)
(8.69082 0 0)
(8.68369 0 0)
(8.67656 0 0)
(8.66942 0 0)
(8.66229 0 0)
(8.65516 0 0)
(8.64803 0 0)
(8.6409 0 0)
(8.63377 0 0)
(8.62664 0 0)
(8.61951 0 0)
(8.61239 0 0)
(8.60526 0 0)
(8.59814 0 0)
(8.59101 0 0)
(8.58389 0 0)
(8.57677 0 0)
(8.56965 0 0)
(8.56253 0 0)
(8.55541 0 0)
(8.54829 0 0)
(8.54117 0 0)
(8.53406 0 0)
(8.52694 0 0)
(8.51983 0 0)
(8.51272 0 0)
(8.50561 0 0)
(8.49851 0 0)
(8.4914 0 0)
(8.4843 0 0)
(8.4772 0 0)
(8.4701 0 0)
(8.463 0 0)
(8.4559 0 0)
(8.44881 0 0)
(8.44171 0 0)
(8.43462 0 0)
(8.42754 0 0)
(8.42045 0 0)
(8.41337 0 0)
(8.40629 0 0)
(8.39921 0 0)
(8.39213 0 0)
(8.38506 0 0)
(8.37799 0 0)
(8.37092 0 0)
(8.36385 0 0)
(8.35679 0 0)
(8.34973 0 0)
(8.34267 0 0)
(8.33561 0 0)
(8.32856 0 0)
(8.32151 0 0)
(8.31446 0 0)
(8.30742 0 0)
(8.30037 0 0)
(8.29333 0 0)
(8.2863 0 0)
(8.27926 0 0)
(8.27223 0 0)
(8.2652 0 0)
(8.25818 0 0)
(8.25116 0 0)
(8.24414 0 0)
(8.23712 0 0)
(8.2301 0 0)
(8.22309 0 0)
(8.21608 0 0)
(8.20908 0 0)
(8.20207 0 0)
(8.19507 0 0)
(8.18808 0 0)
(8.18108 0 0)
(8.17409 0 0)
(8.16709 0 0)
(8.16011 0 0)
(8.15312 0 0)
(8.14614 0 0)
(8.13916 0 0)
(8.13218 0 0)
(8.1252 0 0)
(8.11822 0 0)
(8.11125 0 0)
(8.10428 0 0)
(8.09731 0 0)
(8.09034 0 0)
(8.08337 0 0)
(8.07641 0 0)
(8.06944 0 0)
(8.0625 0 0)
(8.05558 0 0)
(8.04852 0 0)
(8.04081 0 0)
(8.03258 0 0)
)
;

boundaryField
{
    boundary
    {
        type            empty;
    }
    inlet
    {
        type            fixedValue;
        value           nonuniform 0();
    }
    outlet
    {
        type            zeroGradient;
    }
    procBoundary0to1
    {
        type            processor;
        value           uniform (8.91408 0 0);
    }
}


// ************************************************************************* //
