/*--------------------------------*- C++ -*----------------------------------*\
  =========                 |
  \\      /  F ield         | OpenFOAM: The Open Source CFD Toolbox
   \\    /   O peration     | Website:  https://openfoam.org
    \\  /    A nd           | Version:  7
     \\/     M anipulation  |
\*---------------------------------------------------------------------------*/
FoamFile
{
    version     2.0;
    format      ascii;
    class       volScalarField;
    location    "0.00042";
    object      H2O2;
}
// * * * * * * * * * * * * * * * * * * * * * * * * * * * * * * * * * * * * * //

dimensions      [0 0 0 0 0 0 0];

internalField   nonuniform List<scalar> 
126
(
1.5561e-49
1.55679e-49
1.55776e-49
1.55902e-49
1.56054e-49
1.56219e-49
1.56383e-49
1.56532e-49
1.56652e-49
1.56738e-49
1.56786e-49
1.56799e-49
1.56783e-49
1.56746e-49
1.56694e-49
1.56635e-49
1.56575e-49
1.56518e-49
1.56469e-49
1.56431e-49
1.56405e-49
1.56394e-49
1.56396e-49
1.56413e-49
1.56443e-49
1.56486e-49
1.56538e-49
1.56598e-49
1.56664e-49
1.56734e-49
1.56805e-49
1.56876e-49
1.56945e-49
1.57011e-49
1.57072e-49
1.57129e-49
1.57179e-49
1.57225e-49
1.57265e-49
1.573e-49
1.5733e-49
1.57357e-49
1.57379e-49
1.57399e-49
1.57416e-49
1.5743e-49
1.57443e-49
1.57454e-49
1.57463e-49
1.57471e-49
1.57478e-49
1.57483e-49
1.57488e-49
1.57491e-49
1.57493e-49
1.57494e-49
1.57493e-49
1.57491e-49
1.57488e-49
1.57484e-49
1.57478e-49
1.5747e-49
1.57461e-49
1.5745e-49
1.57438e-49
1.57424e-49
1.57407e-49
1.57389e-49
1.57369e-49
1.57347e-49
1.57322e-49
1.57295e-49
1.57266e-49
1.57235e-49
1.57201e-49
1.57164e-49
1.57125e-49
1.57083e-49
1.57038e-49
1.5699e-49
1.5694e-49
1.56886e-49
1.5683e-49
1.56776e-49
1.5676e-49
1.57031e-49
1.59402e-49
1.76794e-49
3.00416e-49
1.16767e-48
7.18684e-48
4.85287e-47
3.29505e-46
2.2189e-45
1.47876e-44
9.74889e-44
6.3567e-43
4.09886e-42
2.61328e-41
1.64717e-40
1.02626e-39
6.31938e-39
3.84529e-38
2.31182e-37
1.37304e-36
8.05477e-36
4.66656e-35
2.66962e-34
1.50783e-33
8.40717e-33
4.62692e-32
2.5133e-31
1.34738e-30
7.12917e-30
3.72327e-29
1.91962e-28
9.77261e-28
4.91404e-27
2.44143e-26
1.19889e-25
5.82088e-25
2.79521e-24
1.32796e-23
6.24362e-23
2.90613e-22
1.33965e-21
)
;

boundaryField
{
    boundary
    {
        type            empty;
    }
    inlet
    {
        type            fixedValue;
        value           nonuniform 0();
    }
    outlet
    {
        type            zeroGradient;
    }
    procBoundary3to1
    {
        type            processor;
        value           uniform 6.19207e-21;
    }
    procBoundary3to2
    {
        type            processor;
        value           uniform 1.56341e-49;
    }
}


// ************************************************************************* //
