/*--------------------------------*- C++ -*----------------------------------*\
  =========                 |
  \\      /  F ield         | OpenFOAM: The Open Source CFD Toolbox
   \\    /   O peration     | Website:  https://openfoam.org
    \\  /    A nd           | Version:  7
     \\/     M anipulation  |
\*---------------------------------------------------------------------------*/
FoamFile
{
    version     2.0;
    format      ascii;
    class       surfaceScalarField;
    location    "0.00042";
    object      phi;
}
// * * * * * * * * * * * * * * * * * * * * * * * * * * * * * * * * * * * * * //

dimensions      [1 0 -1 0 0 0 0];

internalField   nonuniform List<scalar> 
125
(
6.86697e-06
6.8667e-06
6.86643e-06
6.86616e-06
6.86589e-06
6.86562e-06
6.86535e-06
6.86508e-06
6.86481e-06
6.86454e-06
6.86426e-06
6.86399e-06
6.86372e-06
6.86344e-06
6.86317e-06
6.8629e-06
6.86262e-06
6.86235e-06
6.86207e-06
6.8618e-06
6.86152e-06
6.86125e-06
6.86097e-06
6.8607e-06
6.86042e-06
6.86014e-06
6.85986e-06
6.85959e-06
6.85931e-06
6.85903e-06
6.85875e-06
6.85847e-06
6.85819e-06
6.85791e-06
6.85763e-06
6.85735e-06
6.85707e-06
6.8568e-06
6.85652e-06
6.85624e-06
6.85596e-06
6.85568e-06
6.8554e-06
6.85512e-06
6.85484e-06
6.85456e-06
6.85428e-06
6.854e-06
6.85372e-06
6.85344e-06
6.85316e-06
6.85288e-06
6.8526e-06
6.85232e-06
6.85204e-06
6.85177e-06
6.85149e-06
6.85121e-06
6.85093e-06
6.85066e-06
6.85038e-06
6.85011e-06
6.84983e-06
6.84956e-06
6.84928e-06
6.84901e-06
6.84873e-06
6.84846e-06
6.84819e-06
6.84792e-06
6.84765e-06
6.84738e-06
6.84711e-06
6.84684e-06
6.84658e-06
6.84631e-06
6.84604e-06
6.84578e-06
6.84552e-06
6.84525e-06
6.84499e-06
6.84473e-06
6.84447e-06
6.84422e-06
6.84396e-06
6.84371e-06
6.84345e-06
6.8432e-06
6.84295e-06
6.8427e-06
6.84245e-06
6.8422e-06
6.84195e-06
6.84171e-06
6.84147e-06
6.84123e-06
6.84098e-06
6.84075e-06
6.84051e-06
6.84027e-06
6.84004e-06
6.83981e-06
6.83957e-06
6.83934e-06
6.83912e-06
6.83889e-06
6.83866e-06
6.83844e-06
6.83822e-06
6.838e-06
6.83778e-06
6.83756e-06
6.83734e-06
6.83713e-06
6.83691e-06
6.8367e-06
6.83649e-06
6.83628e-06
6.83607e-06
6.83587e-06
6.83566e-06
6.83545e-06
6.83525e-06
6.83505e-06
6.83485e-06
)
;

boundaryField
{
    boundary
    {
        type            empty;
        value           nonuniform 0();
    }
    inlet
    {
        type            calculated;
        value           nonuniform 0();
    }
    outlet
    {
        type            calculated;
        value           nonuniform 0();
    }
    procBoundary3to1
    {
        type            processor;
        value           uniform 6.83465e-06;
    }
    procBoundary3to2
    {
        type            processor;
        value           uniform -6.86724e-06;
    }
}


// ************************************************************************* //
