/*--------------------------------*- C++ -*----------------------------------*\
  =========                 |
  \\      /  F ield         | OpenFOAM: The Open Source CFD Toolbox
   \\    /   O peration     | Website:  https://openfoam.org
    \\  /    A nd           | Version:  7
     \\/     M anipulation  |
\*---------------------------------------------------------------------------*/
FoamFile
{
    version     2.0;
    format      ascii;
    class       surfaceScalarField;
    location    "0.00038";
    object      phi;
}
// * * * * * * * * * * * * * * * * * * * * * * * * * * * * * * * * * * * * * //

dimensions      [1 0 -1 0 0 0 0];

internalField   nonuniform List<scalar> 
124
(
6.83939e-06
6.83923e-06
6.83907e-06
6.83891e-06
6.83876e-06
6.8386e-06
6.83844e-06
6.83828e-06
6.83813e-06
6.83797e-06
6.83781e-06
6.83766e-06
6.8375e-06
6.83735e-06
6.8372e-06
6.83704e-06
6.83689e-06
6.83674e-06
6.8366e-06
6.83649e-06
6.83647e-06
6.83675e-06
6.8379e-06
6.84161e-06
6.85248e-06
6.88088e-06
6.93811e-06
7.0116e-06
7.07225e-06
7.11236e-06
7.13865e-06
7.15694e-06
7.17004e-06
7.17939e-06
7.18609e-06
7.19091e-06
7.19447e-06
7.19718e-06
7.19934e-06
7.20109e-06
7.20255e-06
7.20379e-06
7.20486e-06
7.20579e-06
7.20661e-06
7.20734e-06
7.20799e-06
7.20857e-06
7.2091e-06
7.20958e-06
7.21002e-06
7.21042e-06
7.21078e-06
7.21112e-06
7.21143e-06
7.21172e-06
7.21199e-06
7.21224e-06
7.21247e-06
7.21269e-06
7.21289e-06
7.21307e-06
7.21324e-06
7.2134e-06
7.21355e-06
7.2137e-06
7.21383e-06
7.21396e-06
7.21408e-06
7.21419e-06
7.2143e-06
7.21441e-06
7.21451e-06
7.2146e-06
7.21469e-06
7.21477e-06
7.21485e-06
7.21492e-06
7.215e-06
7.21506e-06
7.21513e-06
7.21518e-06
7.21524e-06
7.21529e-06
7.21534e-06
7.21538e-06
7.21542e-06
7.21546e-06
7.21549e-06
7.21552e-06
7.21554e-06
7.21556e-06
7.21558e-06
7.21559e-06
7.21559e-06
7.2156e-06
7.21559e-06
7.21559e-06
7.21558e-06
7.21556e-06
7.21554e-06
7.21552e-06
7.21549e-06
7.21546e-06
7.21542e-06
7.21538e-06
7.21534e-06
7.21529e-06
7.21525e-06
7.2152e-06
7.21516e-06
7.21511e-06
7.21507e-06
7.21502e-06
7.21499e-06
7.21496e-06
7.21493e-06
7.21491e-06
7.21491e-06
7.21491e-06
7.21493e-06
7.21496e-06
7.21501e-06
7.21507e-06
)
;

boundaryField
{
    boundary
    {
        type            empty;
        value           nonuniform 0();
    }
    inlet
    {
        type            calculated;
        value           nonuniform 0();
    }
    outlet
    {
        type            calculated;
        value           nonuniform 0();
    }
    procBoundary1to0
    {
        type            processor;
        value           uniform 7.21514e-06;
    }
    procBoundary1to3
    {
        type            processor;
        value           uniform -6.83956e-06;
    }
}


// ************************************************************************* //
