/*--------------------------------*- C++ -*----------------------------------*\
  =========                 |
  \\      /  F ield         | OpenFOAM: The Open Source CFD Toolbox
   \\    /   O peration     | Website:  https://openfoam.org
    \\  /    A nd           | Version:  7
     \\/     M anipulation  |
\*---------------------------------------------------------------------------*/
FoamFile
{
    version     2.0;
    format      ascii;
    class       volScalarField;
    location    "0";
    object      Cx;
}
// * * * * * * * * * * * * * * * * * * * * * * * * * * * * * * * * * * * * * //

dimensions      [0 1 0 0 0 0 0];

internalField   nonuniform List<scalar> 
500
(
1.62812e-05
4.88437e-05
8.14062e-05
0.000113969
0.000146531
0.000179094
0.000211656
0.000244219
0.000276781
0.000309344
0.000341906
0.000374469
0.000407031
0.000439594
0.000472156
0.000504719
0.000537281
0.000569843
0.000602406
0.000634968
0.000667531
0.000700093
0.000732656
0.000765218
0.000797781
0.000830343
0.000862906
0.000895468
0.000928031
0.000960593
0.000993156
0.00102572
0.00105828
0.00109084
0.00112341
0.00115597
0.00118853
0.00122109
0.00125366
0.00128622
0.00131878
0.00135134
0.00138391
0.00141647
0.00144903
0.00148159
0.00151416
0.00154672
0.00157928
0.00161184
0.00164441
0.00167697
0.00170953
0.00174209
0.00177466
0.00180722
0.00183978
0.00187234
0.00190491
0.00193747
0.00197003
0.00200259
0.00203516
0.00206772
0.00210028
0.00213284
0.00216541
0.00219797
0.00223053
0.00226309
0.00229566
0.00232822
0.00236078
0.00239334
0.00242591
0.00245847
0.00249103
0.00252359
0.00255616
0.00258872
0.00262128
0.00265384
0.00268641
0.00271897
0.00275153
0.00278409
0.00281665
0.00284922
0.00288178
0.00291434
0.0029469
0.00297947
0.00301203
0.00304459
0.00307715
0.00310972
0.00314228
0.00317484
0.0032074
0.00323997
0.00327253
0.00330509
0.00333765
0.00337022
0.00340278
0.00343534
0.0034679
0.00350047
0.00353303
0.00356559
0.00359815
0.00363072
0.00366328
0.00369584
0.0037284
0.00376097
0.00379353
0.00382609
0.00385865
0.00389122
0.00392378
0.00395634
0.0039889
0.00402147
0.00405403
0.00408659
0.00411915
0.00415172
0.00418428
0.00421684
0.0042494
0.00428197
0.00431453
0.00434709
0.00437965
0.00441222
0.00444478
0.00447734
0.0045099
0.00454247
0.00457503
0.00460759
0.00464015
0.00467272
0.00470528
0.00473784
0.0047704
0.00480297
0.00483553
0.00486809
0.00490065
0.00493322
0.00496578
0.00499834
0.0050309
0.00506347
0.00509603
0.00512859
0.00516115
0.00519372
0.00522628
0.00525884
0.0052914
0.00532397
0.00535653
0.00538909
0.00542165
0.00545422
0.00548678
0.00551934
0.0055519
0.00558447
0.00561703
0.00564959
0.00568215
0.00571472
0.00574728
0.00577984
0.0058124
0.00584497
0.00587753
0.00591009
0.00594265
0.00597522
0.00600778
0.00604034
0.0060729
0.00610547
0.00613803
0.00617059
0.00620315
0.00623572
0.00626828
0.00630084
0.0063334
0.00636597
0.00639853
0.00643109
0.00646365
0.00649622
0.00652878
0.00656134
0.0065939
0.00662647
0.00665903
0.00669159
0.00672415
0.00675672
0.00678928
0.00682184
0.0068544
0.00688697
0.00691953
0.00695209
0.00698465
0.00701722
0.00704978
0.00708234
0.0071149
0.00714747
0.00718003
0.00721259
0.00724515
0.00727772
0.00731028
0.00734284
0.0073754
0.00740797
0.00744053
0.00747309
0.00750565
0.00753822
0.00757078
0.00760334
0.0076359
0.00766847
0.00770103
0.00773359
0.00776615
0.00779872
0.00783128
0.00786384
0.0078964
0.00792897
0.00796153
0.00799409
0.00802665
0.00805922
0.00809178
0.00812434
0.0081569
0.00818946
0.00822203
0.00825459
0.00828715
0.00831971
0.00835228
0.00838484
0.0084174
0.00844996
0.00848253
0.00851509
0.00854765
0.00858021
0.00861278
0.00864534
0.0086779
0.00871046
0.00874303
0.00877559
0.00880815
0.00884071
0.00887328
0.00890584
0.0089384
0.00897096
0.00900353
0.00903609
0.00906865
0.00910121
0.00913378
0.00916634
0.0091989
0.00923146
0.00926403
0.00929659
0.00932915
0.00936171
0.00939428
0.00942684
0.0094594
0.00949196
0.00952453
0.00955709
0.00958965
0.00962221
0.00965478
0.00968734
0.0097199
0.00975246
0.00978503
0.00981759
0.00985015
0.00988271
0.00991528
0.00994784
0.0099804
0.010013
0.0100455
0.0100781
0.0101107
0.0101432
0.0101748
0.0102055
0.0102363
0.0102673
0.0102983
0.0103294
0.0103607
0.0103921
0.0104236
0.0104552
0.010487
0.0105188
0.0105508
0.0105829
0.0106151
0.0106474
0.0106799
0.0107125
0.0107452
0.010778
0.0108109
0.010844
0.0108772
0.0109105
0.0109439
0.0109774
0.0110111
0.0110449
0.0110789
0.0111129
0.0111471
0.0111814
0.0112158
0.0112504
0.0112851
0.0113199
0.0113549
0.0113899
0.0114252
0.0114605
0.011496
0.0115316
0.0115673
0.0116032
0.0116392
0.0116753
0.0117116
0.011748
0.0117845
0.0118212
0.011858
0.011895
0.011932
0.0119693
0.0120066
0.0120441
0.0120818
0.0121195
0.0121575
0.0121955
0.0122337
0.0122721
0.0123106
0.0123492
0.012388
0.0124269
0.0124659
0.0125051
0.0125445
0.012584
0.0126236
0.0126634
0.0127034
0.0127434
0.0127837
0.0128241
0.0128646
0.0129053
0.0129461
0.0129871
0.0130283
0.0130696
0.013111
0.0131526
0.0131944
0.0132363
0.0132783
0.0133206
0.0133629
0.0134055
0.0134482
0.013491
0.013534
0.0135772
0.0136205
0.013664
0.0137077
0.0137515
0.0137955
0.0138396
0.0138839
0.0139284
0.013973
0.0140178
0.0140628
0.0141079
0.0141533
0.0141987
0.0142444
0.0142902
0.0143362
0.0143823
0.0144286
0.0144751
0.0145218
0.0145686
0.0146156
0.0146628
0.0147102
0.0147577
0.0148055
0.0148533
0.0149014
0.0149497
0.0149981
0.0150467
0.0150955
0.0151445
0.0151936
0.015243
0.0152925
0.0153422
0.0153921
0.0154421
0.0154924
0.0155428
0.0155935
0.0156443
0.0156953
0.0157465
0.0157979
0.0158495
0.0159012
0.0159532
0.0160053
0.0160577
0.0161102
0.016163
0.0162159
0.016269
0.0163224
0.0163759
0.0164296
0.0164836
0.0165377
0.016592
0.0166465
0.0167013
0.0167562
0.0168113
0.0168667
0.0169222
0.016978
0.0170339
0.0170901
0.0171465
0.0172031
0.0172599
0.0173169
0.0173741
0.0174315
0.0174892
0.017547
0.0176051
0.0176634
0.0177219
0.0177806
0.0178396
0.0178987
0.0179581
0.0180177
0.0180775
0.0181376
0.0181979
0.0182583
0.0183191
0.01838
0.0184412
)
;

boundaryField
{
    boundary
    {
        type            empty;
    }
    inlet
    {
        type            calculated;
        value           uniform 0;
    }
    outlet
    {
        type            calculated;
        value           uniform 0.0184718;
    }
}


// ************************************************************************* //
