/*--------------------------------*- C++ -*----------------------------------*\
  =========                 |
  \\      /  F ield         | OpenFOAM: The Open Source CFD Toolbox
   \\    /   O peration     | Website:  https://openfoam.org
    \\  /    A nd           | Version:  7
     \\/     M anipulation  |
\*---------------------------------------------------------------------------*/
FoamFile
{
    version     2.0;
    format      ascii;
    class       volScalarField;
    location    "0";
    object      V;
}
// * * * * * * * * * * * * * * * * * * * * * * * * * * * * * * * * * * * * * //

dimensions      [0 3 0 0 0 0 0];

internalField   nonuniform List<scalar> 
500
(
1.11106e-10
1.11106e-10
1.11106e-10
1.11106e-10
1.11106e-10
1.11106e-10
1.11106e-10
1.11106e-10
1.11106e-10
1.11106e-10
1.11106e-10
1.11106e-10
1.11106e-10
1.11106e-10
1.11106e-10
1.11106e-10
1.11106e-10
1.11106e-10
1.11106e-10
1.11106e-10
1.11106e-10
1.11106e-10
1.11106e-10
1.11106e-10
1.11106e-10
1.11106e-10
1.11106e-10
1.11106e-10
1.11106e-10
1.11106e-10
1.11106e-10
1.11106e-10
1.11106e-10
1.11106e-10
1.11106e-10
1.11106e-10
1.11106e-10
1.11106e-10
1.11106e-10
1.11106e-10
1.11106e-10
1.11106e-10
1.11106e-10
1.11106e-10
1.11106e-10
1.11106e-10
1.11106e-10
1.11106e-10
1.11106e-10
1.11106e-10
1.11106e-10
1.11106e-10
1.11106e-10
1.11106e-10
1.11106e-10
1.11106e-10
1.11106e-10
1.11106e-10
1.11106e-10
1.11106e-10
1.11106e-10
1.11106e-10
1.11106e-10
1.11106e-10
1.11106e-10
1.11106e-10
1.11106e-10
1.11106e-10
1.11106e-10
1.11106e-10
1.11106e-10
1.11106e-10
1.11106e-10
1.11106e-10
1.11106e-10
1.11106e-10
1.11106e-10
1.11106e-10
1.11106e-10
1.11106e-10
1.11106e-10
1.11106e-10
1.11106e-10
1.11106e-10
1.11106e-10
1.11106e-10
1.11106e-10
1.11106e-10
1.11106e-10
1.11106e-10
1.11106e-10
1.11106e-10
1.11106e-10
1.11106e-10
1.11106e-10
1.11106e-10
1.11106e-10
1.11106e-10
1.11106e-10
1.11106e-10
1.11106e-10
1.11106e-10
1.11106e-10
1.11106e-10
1.11106e-10
1.11106e-10
1.11106e-10
1.11106e-10
1.11106e-10
1.11106e-10
1.11106e-10
1.11106e-10
1.11106e-10
1.11106e-10
1.11106e-10
1.11106e-10
1.11106e-10
1.11106e-10
1.11106e-10
1.11106e-10
1.11106e-10
1.11106e-10
1.11106e-10
1.11106e-10
1.11106e-10
1.11106e-10
1.11106e-10
1.11106e-10
1.11106e-10
1.11106e-10
1.11106e-10
1.11106e-10
1.11106e-10
1.11106e-10
1.11106e-10
1.11106e-10
1.11106e-10
1.11106e-10
1.11106e-10
1.11106e-10
1.11106e-10
1.11106e-10
1.11106e-10
1.11106e-10
1.11106e-10
1.11106e-10
1.11106e-10
1.11106e-10
1.11106e-10
1.11106e-10
1.11106e-10
1.11106e-10
1.11106e-10
1.11106e-10
1.11106e-10
1.11106e-10
1.11106e-10
1.11106e-10
1.11106e-10
1.11106e-10
1.11106e-10
1.11106e-10
1.11106e-10
1.11106e-10
1.11106e-10
1.11106e-10
1.11106e-10
1.11106e-10
1.11106e-10
1.11106e-10
1.11106e-10
1.11106e-10
1.11106e-10
1.11106e-10
1.11106e-10
1.11106e-10
1.11106e-10
1.11106e-10
1.11106e-10
1.11106e-10
1.11106e-10
1.11106e-10
1.11106e-10
1.11106e-10
1.11106e-10
1.11106e-10
1.11106e-10
1.11106e-10
1.11106e-10
1.11106e-10
1.11106e-10
1.11106e-10
1.11106e-10
1.11106e-10
1.11106e-10
1.11106e-10
1.11106e-10
1.11106e-10
1.11106e-10
1.11106e-10
1.11106e-10
1.11106e-10
1.11106e-10
1.11106e-10
1.11106e-10
1.11106e-10
1.11106e-10
1.11106e-10
1.11106e-10
1.11106e-10
1.11106e-10
1.11106e-10
1.11106e-10
1.11106e-10
1.11106e-10
1.11106e-10
1.11106e-10
1.11106e-10
1.11106e-10
1.11106e-10
1.11106e-10
1.11106e-10
1.11106e-10
1.11106e-10
1.11106e-10
1.11106e-10
1.11106e-10
1.11106e-10
1.11106e-10
1.11106e-10
1.11106e-10
1.11106e-10
1.11106e-10
1.11106e-10
1.11106e-10
1.11106e-10
1.11106e-10
1.11106e-10
1.11106e-10
1.11106e-10
1.11106e-10
1.11106e-10
1.11106e-10
1.11106e-10
1.11106e-10
1.11106e-10
1.11106e-10
1.11106e-10
1.11106e-10
1.11106e-10
1.11106e-10
1.11106e-10
1.11106e-10
1.11106e-10
1.11106e-10
1.11106e-10
1.11106e-10
1.11106e-10
1.11106e-10
1.11106e-10
1.11106e-10
1.11106e-10
1.11106e-10
1.11106e-10
1.11106e-10
1.11106e-10
1.11106e-10
1.11106e-10
1.11106e-10
1.11106e-10
1.11106e-10
1.11106e-10
1.11106e-10
1.11106e-10
1.11106e-10
1.11106e-10
1.11106e-10
1.11106e-10
1.11106e-10
1.11106e-10
1.11106e-10
1.11106e-10
1.11106e-10
1.11106e-10
1.11106e-10
1.11106e-10
1.11106e-10
1.11106e-10
1.11106e-10
1.11106e-10
1.11106e-10
1.11106e-10
1.11106e-10
1.11106e-10
1.11106e-10
1.11106e-10
1.11106e-10
1.11106e-10
1.11106e-10
1.11106e-10
1.11106e-10
1.11106e-10
1.11106e-10
1.11106e-10
1.11106e-10
1.11106e-10
1.11106e-10
1.11106e-10
1.11106e-10
1.11106e-10
1.11106e-10
1.11106e-10
1.04548e-10
1.04936e-10
1.05326e-10
1.05717e-10
1.0611e-10
1.06504e-10
1.06899e-10
1.07296e-10
1.07695e-10
1.08095e-10
1.08496e-10
1.08899e-10
1.09303e-10
1.09709e-10
1.10117e-10
1.10526e-10
1.10936e-10
1.11348e-10
1.11762e-10
1.12177e-10
1.12593e-10
1.13011e-10
1.13431e-10
1.13852e-10
1.14275e-10
1.14699e-10
1.15125e-10
1.15553e-10
1.15982e-10
1.16413e-10
1.16845e-10
1.17279e-10
1.17714e-10
1.18151e-10
1.1859e-10
1.19031e-10
1.19473e-10
1.19916e-10
1.20362e-10
1.20809e-10
1.21257e-10
1.21708e-10
1.2216e-10
1.22613e-10
1.23068e-10
1.23525e-10
1.23984e-10
1.24445e-10
1.24907e-10
1.25371e-10
1.25836e-10
1.26303e-10
1.26772e-10
1.27243e-10
1.27716e-10
1.2819e-10
1.28666e-10
1.29144e-10
1.29624e-10
1.30105e-10
1.30588e-10
1.31073e-10
1.3156e-10
1.32048e-10
1.32539e-10
1.33031e-10
1.33525e-10
1.34021e-10
1.34518e-10
1.35018e-10
1.35519e-10
1.36023e-10
1.36528e-10
1.37035e-10
1.37544e-10
1.38054e-10
1.38567e-10
1.39082e-10
1.39598e-10
1.40117e-10
1.40637e-10
1.41159e-10
1.41683e-10
1.42209e-10
1.42738e-10
1.43268e-10
1.438e-10
1.44334e-10
1.4487e-10
1.45408e-10
1.45948e-10
1.4649e-10
1.47034e-10
1.4758e-10
1.48128e-10
1.48678e-10
1.4923e-10
1.49784e-10
1.5034e-10
1.50899e-10
1.51459e-10
1.52021e-10
1.52586e-10
1.53153e-10
1.53721e-10
1.54292e-10
1.54865e-10
1.5544e-10
1.56017e-10
1.56597e-10
1.57178e-10
1.57762e-10
1.58348e-10
1.58936e-10
1.59526e-10
1.60119e-10
1.60713e-10
1.6131e-10
1.61909e-10
1.6251e-10
1.63114e-10
1.63719e-10
1.64327e-10
1.64938e-10
1.6555e-10
1.66165e-10
1.66782e-10
1.67401e-10
1.68023e-10
1.68647e-10
1.69273e-10
1.69902e-10
1.70533e-10
1.71166e-10
1.71802e-10
1.7244e-10
1.7308e-10
1.73723e-10
1.74368e-10
1.75015e-10
1.75665e-10
1.76318e-10
1.76973e-10
1.7763e-10
1.78289e-10
1.78951e-10
1.79616e-10
1.80283e-10
1.80953e-10
1.81624e-10
1.82299e-10
1.82976e-10
1.83655e-10
1.84337e-10
1.85022e-10
1.85709e-10
1.86399e-10
1.87091e-10
1.87786e-10
1.88483e-10
1.89183e-10
1.89885e-10
1.90591e-10
1.91298e-10
1.92009e-10
1.92722e-10
1.93438e-10
1.94156e-10
1.94877e-10
1.95601e-10
1.96327e-10
1.97056e-10
1.97788e-10
1.98522e-10
1.99259e-10
1.99999e-10
2.00742e-10
2.01488e-10
2.02236e-10
2.02987e-10
2.03741e-10
2.04497e-10
2.05257e-10
2.06019e-10
2.06784e-10
2.07552e-10
2.08323e-10
2.09096e-10
)
;

boundaryField
{
    boundary
    {
        type            empty;
    }
    inlet
    {
        type            calculated;
        value           uniform 0;
    }
    outlet
    {
        type            calculated;
        value           uniform 0;
    }
}


// ************************************************************************* //
