/*--------------------------------*- C++ -*----------------------------------*\
  =========                 |
  \\      /  F ield         | OpenFOAM: The Open Source CFD Toolbox
   \\    /   O peration     | Website:  https://openfoam.org
    \\  /    A nd           | Version:  7
     \\/     M anipulation  |
\*---------------------------------------------------------------------------*/
FoamFile
{
    version     2.0;
    format      ascii;
    class       volScalarField;
    location    "0.00027";
    object      HO2;
}
// * * * * * * * * * * * * * * * * * * * * * * * * * * * * * * * * * * * * * //

dimensions      [0 0 0 0 0 0 0];

internalField   nonuniform List<scalar> 
124
(
2.28103e-06
2.2441e-06
2.20772e-06
2.17197e-06
2.13692e-06
2.10263e-06
2.06918e-06
2.03664e-06
2.00507e-06
1.97455e-06
1.94514e-06
1.9169e-06
1.88989e-06
1.86416e-06
1.83975e-06
1.81671e-06
1.79506e-06
1.77484e-06
1.75606e-06
1.73874e-06
1.72286e-06
1.70842e-06
1.69542e-06
1.68381e-06
1.67357e-06
1.66465e-06
1.65701e-06
1.65059e-06
1.64532e-06
1.64114e-06
1.63796e-06
1.63572e-06
1.63434e-06
1.63373e-06
1.63381e-06
1.6345e-06
1.63572e-06
1.63739e-06
1.63944e-06
1.64181e-06
1.64442e-06
1.64723e-06
1.65017e-06
1.6532e-06
1.65628e-06
1.65938e-06
1.66247e-06
1.66553e-06
1.66853e-06
1.67147e-06
1.67434e-06
1.67712e-06
1.67983e-06
1.68245e-06
1.685e-06
1.68747e-06
1.68986e-06
1.6922e-06
1.69447e-06
1.69668e-06
1.69884e-06
1.70096e-06
1.70303e-06
1.70506e-06
1.70705e-06
1.709e-06
1.71091e-06
1.71278e-06
1.71462e-06
1.71641e-06
1.71816e-06
1.71986e-06
1.72152e-06
1.72312e-06
1.72467e-06
1.72617e-06
1.72761e-06
1.72899e-06
1.73032e-06
1.73158e-06
1.73278e-06
1.73392e-06
1.73499e-06
1.73601e-06
1.73696e-06
1.73786e-06
1.73869e-06
1.73947e-06
1.7402e-06
1.74087e-06
1.7415e-06
1.74207e-06
1.7426e-06
1.74309e-06
1.74354e-06
1.74395e-06
1.74433e-06
1.74467e-06
1.74498e-06
1.74527e-06
1.74553e-06
1.74577e-06
1.74599e-06
1.74619e-06
1.74637e-06
1.74653e-06
1.74668e-06
1.74682e-06
1.74695e-06
1.74706e-06
1.74717e-06
1.74727e-06
1.74736e-06
1.74744e-06
1.74752e-06
1.7476e-06
1.74767e-06
1.74773e-06
1.7478e-06
1.74785e-06
1.74791e-06
1.74796e-06
1.748e-06
1.74803e-06
)
;

boundaryField
{
    boundary
    {
        type            empty;
    }
    inlet
    {
        type            fixedValue;
        value           nonuniform 0();
    }
    outlet
    {
        type            zeroGradient;
    }
    procBoundary0to1
    {
        type            processor;
        value           uniform 2.31822e-06;
    }
}


// ************************************************************************* //
