/*--------------------------------*- C++ -*----------------------------------*\
  =========                 |
  \\      /  F ield         | OpenFOAM: The Open Source CFD Toolbox
   \\    /   O peration     | Website:  https://openfoam.org
    \\  /    A nd           | Version:  7
     \\/     M anipulation  |
\*---------------------------------------------------------------------------*/
FoamFile
{
    version     2.0;
    format      ascii;
    class       volScalarField;
    location    "0.00092";
    object      H;
}
// * * * * * * * * * * * * * * * * * * * * * * * * * * * * * * * * * * * * * //

dimensions      [0 0 0 0 0 0 0];

internalField   nonuniform List<scalar> 
500
(
1.48633e-41
2.01398e-41
2.12834e-41
2.15351e-41
2.1594e-41
2.16109e-41
2.16183e-41
2.1623e-41
2.16263e-41
2.16283e-41
2.16286e-41
2.1627e-41
2.16232e-41
2.16169e-41
2.1608e-41
2.15964e-41
2.15822e-41
2.15656e-41
2.15469e-41
2.15264e-41
2.15049e-41
2.14828e-41
2.14608e-41
2.14396e-41
2.142e-41
2.14025e-41
2.13878e-41
2.13765e-41
2.1369e-41
2.13657e-41
2.13671e-41
2.13734e-41
2.13849e-41
2.14019e-41
2.14246e-41
2.14534e-41
2.14886e-41
2.15306e-41
2.15798e-41
2.16369e-41
2.17024e-41
2.17773e-41
2.18621e-41
2.1958e-41
2.20657e-41
2.21864e-41
2.23211e-41
2.24708e-41
2.26364e-41
2.2819e-41
2.30193e-41
2.32381e-41
2.3476e-41
2.37332e-41
2.401e-41
2.43063e-41
2.46218e-41
2.49557e-41
2.53071e-41
2.56749e-41
2.60575e-41
2.64531e-41
2.68596e-41
2.72747e-41
2.76957e-41
2.81201e-41
2.85451e-41
2.89677e-41
2.93851e-41
2.97947e-41
3.01937e-41
3.05798e-41
3.09506e-41
3.13044e-41
3.16396e-41
3.19548e-41
3.22492e-41
3.25223e-41
3.27738e-41
3.30037e-41
3.32126e-41
3.3401e-41
3.35698e-41
3.372e-41
3.38528e-41
3.39694e-41
3.40711e-41
3.41593e-41
3.42352e-41
3.43002e-41
3.43555e-41
3.44022e-41
3.44415e-41
3.44743e-41
3.45015e-41
3.4524e-41
3.45424e-41
3.45575e-41
3.45697e-41
3.45796e-41
3.45875e-41
3.45939e-41
3.4599e-41
3.4603e-41
3.46062e-41
3.46088e-41
3.46108e-41
3.46124e-41
3.46137e-41
3.46147e-41
3.46156e-41
3.46163e-41
3.4617e-41
3.46175e-41
3.4618e-41
3.46185e-41
3.4619e-41
3.46194e-41
3.46199e-41
3.46203e-41
3.46208e-41
3.46212e-41
3.46216e-41
3.46219e-41
3.46218e-41
3.46216e-41
3.46223e-41
3.4623e-41
3.46238e-41
3.46246e-41
3.46255e-41
3.46265e-41
3.46275e-41
3.46286e-41
3.46299e-41
3.46312e-41
3.46326e-41
3.46341e-41
3.46356e-41
3.46373e-41
3.46389e-41
3.46405e-41
3.46421e-41
3.46437e-41
3.46452e-41
3.46466e-41
3.46479e-41
3.46492e-41
3.46503e-41
3.46514e-41
3.46524e-41
3.46534e-41
3.46544e-41
3.46554e-41
3.46564e-41
3.46575e-41
3.46586e-41
3.46597e-41
3.4661e-41
3.46623e-41
3.46637e-41
3.46653e-41
3.46668e-41
3.46685e-41
3.46703e-41
3.46721e-41
3.46739e-41
3.46759e-41
3.46778e-41
3.46798e-41
3.46819e-41
3.46839e-41
3.4686e-41
3.46881e-41
3.46903e-41
3.46924e-41
3.46946e-41
3.46968e-41
3.4699e-41
3.47013e-41
3.47036e-41
3.47058e-41
3.47081e-41
3.47105e-41
3.47128e-41
3.47152e-41
3.47175e-41
3.47199e-41
3.47223e-41
3.47246e-41
3.4727e-41
3.47294e-41
3.47317e-41
3.47341e-41
3.47364e-41
3.47386e-41
3.47409e-41
3.47431e-41
3.47452e-41
3.47473e-41
3.47493e-41
3.47512e-41
3.47531e-41
3.47548e-41
3.47565e-41
3.47581e-41
3.47597e-41
3.47617e-41
3.4765e-41
3.47729e-41
3.47956e-41
3.48658e-41
3.50863e-41
3.5782e-41
3.79742e-41
4.48675e-41
6.64943e-41
1.34196e-40
3.45697e-40
1.00517e-39
3.05781e-39
9.43642e-39
2.92286e-38
9.05586e-38
2.80368e-37
8.67155e-37
2.67935e-36
8.27091e-36
2.55097e-35
7.86172e-35
2.42116e-34
7.45163e-34
2.29207e-33
7.04652e-33
2.16531e-32
6.65106e-32
2.04231e-31
6.2699e-31
1.92476e-30
5.90975e-30
1.81547e-29
5.58286e-29
1.71989e-28
5.31374e-28
1.64908e-27
5.15233e-27
1.62566e-26
5.20125e-26
1.69623e-25
5.67249e-25
1.95738e-24
7.04422e-24
2.62817e-23
1.01901e-22
4.09943e-22
1.70319e-21
7.2657e-21
3.16458e-20
1.40067e-19
6.27862e-19
2.84468e-18
1.30199e-17
6.02566e-17
2.82717e-16
1.35072e-15
6.61222e-15
3.34217e-14
1.75822e-13
9.99795e-13
6.73375e-12
5.87925e-11
5.83879e-10
5.4501e-09
5.08756e-08
4.58325e-07
3.71166e-06
2.38655e-05
0.000103317
0.000279857
0.000547158
0.000883898
0.00124655
0.00156511
0.00178505
0.00190035
0.00192804
0.00190149
0.00184472
0.00177369
0.00169796
0.00162285
0.00155105
0.00148376
0.00142133
0.00136368
0.00131053
0.00126151
0.00121623
0.00117432
0.00113542
0.00109924
0.00106549
0.00103394
0.00100437
0.000976592
0.000950447
0.00092579
0.000902491
0.00088044
0.000859535
0.000839689
0.000820819
0.000803382
0.000787118
0.00077149
0.000756461
0.000741998
0.000728067
0.000714639
0.000701686
0.000689183
0.000677106
0.000665432
0.000654141
0.000643214
0.000632632
0.00062238
0.000612441
0.000602801
0.000593445
0.000584362
0.000575539
0.000566965
0.000558628
0.00055052
0.000542629
0.000534949
0.000527469
0.000520182
0.000513081
0.000506158
0.000499406
0.000492819
0.000486391
0.000480116
0.000473989
0.000468004
0.000462155
0.00045644
0.000450852
0.000445388
0.000440043
0.000434814
0.000429697
0.000424687
0.000419783
0.000414979
0.000410275
0.000405665
0.000401148
0.00039672
0.000392379
0.000388123
0.000383949
0.000379855
0.000375838
0.000371896
0.000368028
0.000364232
0.000360505
0.000356847
0.000353255
0.000349728
0.000346266
0.000342866
0.000339529
0.000336242
0.000333
0.000329814
0.00032668
0.000323599
0.000320569
0.000317588
0.000314656
0.00031177
0.000308931
0.000306137
0.000303387
0.00030068
0.000298014
0.00029539
0.000292806
0.000290261
0.000287755
0.000285286
0.000282854
0.000280458
0.000278097
0.00027577
0.000273477
0.000271217
0.00026899
0.000266794
0.000264629
0.000262494
0.00026039
0.000258314
0.000256268
0.000254249
0.000252258
0.000250293
0.000248356
0.000246444
0.000244558
0.000242697
0.00024086
0.000239048
0.000237259
0.000235494
0.000233751
0.000232031
0.000230333
0.000228656
0.000227001
0.000225367
0.000223753
0.00022216
0.000220586
0.000219032
0.000217497
0.000215981
0.000214484
0.000213004
0.000211543
0.0002101
0.000208673
0.000207264
0.000205872
0.000204496
0.000203136
0.000201793
0.000200465
0.000199153
0.000197855
0.000196574
0.000195306
0.000194054
0.000192816
0.000191591
0.000190381
0.000189185
0.000188002
0.000186833
0.000185677
0.000184534
0.000183403
0.000182285
0.00018118
0.000180087
0.000179007
0.000177938
0.000176881
0.000175836
0.000174802
0.00017378
0.00017277
0.00017177
0.000170782
0.000169804
0.000168838
0.000167882
0.000166937
0.000166002
0.000165078
0.000164164
0.00016326
0.000162367
0.000161484
0.000160611
0.000159748
0.000158895
0.000158053
0.00015722
0.000156398
0.000155587
0.000154786
0.000153996
0.000153218
0.000152452
0.0001517
0.000150964
0.000150245
0.000149546
0.000148873
0.000148232
0.000147633
0.000147089
0.000146621
0.000146261
0.000146053
)
;

boundaryField
{
    boundary
    {
        type            empty;
    }
    inlet
    {
        type            fixedValue;
        value           uniform 0;
    }
    outlet
    {
        type            zeroGradient;
    }
}


// ************************************************************************* //
