/*--------------------------------*- C++ -*----------------------------------*\
  =========                 |
  \\      /  F ield         | OpenFOAM: The Open Source CFD Toolbox
   \\    /   O peration     | Website:  https://openfoam.org
    \\  /    A nd           | Version:  7
     \\/     M anipulation  |
\*---------------------------------------------------------------------------*/
FoamFile
{
    version     2.0;
    format      ascii;
    class       volScalarField;
    location    "0.00092";
    object      H2;
}
// * * * * * * * * * * * * * * * * * * * * * * * * * * * * * * * * * * * * * //

dimensions      [0 0 0 0 0 0 0];

internalField   nonuniform List<scalar> 
500
(
0.0285116
0.0285116
0.0285116
0.0285116
0.0285116
0.0285116
0.0285116
0.0285116
0.0285116
0.0285116
0.0285116
0.0285116
0.0285116
0.0285116
0.0285116
0.0285116
0.0285116
0.0285116
0.0285116
0.0285116
0.0285116
0.0285116
0.0285116
0.0285116
0.0285116
0.0285116
0.0285116
0.0285116
0.0285116
0.0285116
0.0285116
0.0285116
0.0285116
0.0285116
0.0285116
0.0285116
0.0285116
0.0285116
0.0285116
0.0285116
0.0285116
0.0285116
0.0285116
0.0285116
0.0285116
0.0285116
0.0285116
0.0285116
0.0285116
0.0285116
0.0285116
0.0285116
0.0285116
0.0285116
0.0285116
0.0285116
0.0285116
0.0285116
0.0285116
0.0285116
0.0285116
0.0285116
0.0285116
0.0285116
0.0285116
0.0285116
0.0285116
0.0285116
0.0285116
0.0285116
0.0285116
0.0285116
0.0285116
0.0285116
0.0285116
0.0285116
0.0285116
0.0285116
0.0285116
0.0285116
0.0285116
0.0285116
0.0285116
0.0285116
0.0285116
0.0285116
0.0285116
0.0285116
0.0285116
0.0285116
0.0285116
0.0285116
0.0285116
0.0285116
0.0285116
0.0285116
0.0285116
0.0285116
0.0285116
0.0285116
0.0285116
0.0285116
0.0285116
0.0285116
0.0285116
0.0285116
0.0285116
0.0285116
0.0285116
0.0285116
0.0285116
0.0285116
0.0285116
0.0285116
0.0285116
0.0285116
0.0285116
0.0285116
0.0285116
0.0285116
0.0285116
0.0285116
0.0285116
0.0285116
0.0285116
0.0285116
0.0285116
0.0285116
0.0285116
0.0285116
0.0285116
0.0285116
0.0285116
0.0285116
0.0285116
0.0285116
0.0285116
0.0285116
0.0285116
0.0285116
0.0285116
0.0285116
0.0285116
0.0285116
0.0285116
0.0285116
0.0285116
0.0285116
0.0285116
0.0285116
0.0285116
0.0285116
0.0285116
0.0285116
0.0285116
0.0285116
0.0285116
0.0285116
0.0285116
0.0285116
0.0285116
0.0285116
0.0285116
0.0285116
0.0285116
0.0285116
0.0285116
0.0285116
0.0285116
0.0285116
0.0285116
0.0285116
0.0285116
0.0285116
0.0285116
0.0285116
0.0285116
0.0285116
0.0285116
0.0285116
0.0285116
0.0285116
0.0285116
0.0285116
0.0285116
0.0285116
0.0285116
0.0285116
0.0285116
0.0285116
0.0285116
0.0285116
0.0285116
0.0285116
0.0285116
0.0285116
0.0285116
0.0285116
0.0285116
0.0285116
0.0285116
0.0285116
0.0285116
0.0285116
0.0285116
0.0285116
0.0285116
0.0285116
0.0285116
0.0285116
0.0285116
0.0285116
0.0285116
0.0285116
0.0285116
0.0285116
0.0285116
0.0285116
0.0285116
0.0285116
0.0285116
0.0285116
0.0285116
0.0285116
0.0285116
0.0285116
0.0285116
0.0285116
0.0285116
0.0285116
0.0285116
0.0285116
0.0285116
0.0285116
0.0285116
0.0285116
0.0285116
0.0285116
0.0285116
0.0285116
0.0285116
0.0285116
0.0285116
0.0285116
0.0285116
0.0285116
0.0285116
0.0285116
0.0285116
0.0285116
0.0285116
0.0285116
0.0285116
0.0285116
0.0285116
0.0285116
0.0285116
0.0285116
0.0285116
0.0285116
0.0285116
0.0285115
0.0285115
0.0285113
0.0285111
0.0285105
0.0285093
0.0285068
0.0285016
0.0284908
0.0284683
0.0284213
0.028324
0.0281241
0.0277238
0.0269687
0.0256844
0.0237839
0.0213882
0.018647
0.0156451
0.0125951
0.00986506
0.00774011
0.0061891
0.00522186
0.00461548
0.00424133
0.00401023
0.00386498
0.00377042
0.00370546
0.00365764
0.0036197
0.00358742
0.0035584
0.00353128
0.0035053
0.00348006
0.00345534
0.00343103
0.00340709
0.00338348
0.00336022
0.0033373
0.00331473
0.0032925
0.00327062
0.00324909
0.0032279
0.00320707
0.00318658
0.00316705
0.00314828
0.00312977
0.00311149
0.00309346
0.00307566
0.00305809
0.00304076
0.00302366
0.00300678
0.00299013
0.0029737
0.00295749
0.0029415
0.00292572
0.00291015
0.00289479
0.00287963
0.00286466
0.0028499
0.00283533
0.00282094
0.00280674
0.00279272
0.00277888
0.00276522
0.00275172
0.00273839
0.00272523
0.00271222
0.00269938
0.00268669
0.00267415
0.00266176
0.00264951
0.00263741
0.00262544
0.00261362
0.00260193
0.00259036
0.00257893
0.00256763
0.00255644
0.00254538
0.00253444
0.00252362
0.00251291
0.00250231
0.00249182
0.00248144
0.00247117
0.002461
0.00245094
0.00244097
0.0024311
0.00242133
0.00241166
0.00240208
0.0023926
0.0023832
0.0023739
0.00236468
0.00235556
0.00234652
0.00233755
0.00232864
0.0023198
0.00231104
0.00230235
0.00229374
0.00228521
0.00227675
0.00226837
0.00226005
0.00225181
0.00224363
0.00223553
0.0022275
0.00221953
0.00221163
0.0022038
0.00219603
0.00218833
0.00218069
0.00217312
0.00216561
0.00215817
0.00215079
0.00214347
0.00213621
0.00212901
0.00212188
0.0021148
0.00210778
0.00210083
0.00209393
0.00208709
0.0020803
0.00207357
0.0020669
0.00206028
0.00205372
0.00204721
0.00204076
0.00203436
0.00202801
0.00202171
0.00201546
0.00200927
0.00200312
0.00199702
0.00199097
0.00198497
0.00197901
0.0019731
0.00196724
0.00196142
0.00195564
0.00194991
0.00194423
0.00193858
0.00193298
0.00192742
0.0019219
0.00191643
0.00191099
0.00190559
0.00190023
0.00189491
0.00188963
0.00188439
0.00187918
0.00187402
0.00186889
0.00186379
0.00185874
0.00185371
0.00184873
0.00184378
0.00183886
0.00183398
0.00182914
0.00182433
0.00181955
0.00181481
0.0018101
0.00180542
0.00180078
0.00179617
0.00179159
0.00178705
0.00178254
0.00177807
0.00177362
0.00176921
0.00176484
0.00176049
0.00175618
0.00175191
0.00174766
0.00174345
0.00173928
0.00173514
0.00173104
0.00172697
0.00172294
0.00171895
0.00171499
0.00171108
0.0017072
0.00170337
0.00169958
0.00169584
0.00169214
0.00168851
0.00168493
0.00168142
0.00167798
0.00167464
0.0016714
0.00166829
0.00166533
0.00166257
0.00166005
0.00165785
0.00165602
0.00165468
0.00165392
)
;

boundaryField
{
    boundary
    {
        type            empty;
    }
    inlet
    {
        type            fixedValue;
        value           uniform 0.0285116;
    }
    outlet
    {
        type            zeroGradient;
    }
}


// ************************************************************************* //
