/*--------------------------------*- C++ -*----------------------------------*\
  =========                 |
  \\      /  F ield         | OpenFOAM: The Open Source CFD Toolbox
   \\    /   O peration     | Website:  https://openfoam.org
    \\  /    A nd           | Version:  7
     \\/     M anipulation  |
\*---------------------------------------------------------------------------*/
FoamFile
{
    version     2.0;
    format      ascii;
    class       volScalarField;
    location    "0.00092";
    object      H2O;
}
// * * * * * * * * * * * * * * * * * * * * * * * * * * * * * * * * * * * * * //

dimensions      [0 0 0 0 0 0 0];

internalField   nonuniform List<scalar> 
500
(
7.88569e-48
2.2789e-47
4.1003e-47
6.1455e-47
8.34198e-47
1.06408e-46
1.30088e-46
1.54234e-46
1.78693e-46
2.03356e-46
2.28146e-46
2.53009e-46
2.77903e-46
3.02799e-46
3.27677e-46
3.52522e-46
3.77329e-46
4.02098e-46
4.26833e-46
4.51548e-46
4.76259e-46
5.00987e-46
5.25757e-46
5.50596e-46
5.75532e-46
6.00595e-46
6.25812e-46
6.51211e-46
6.76819e-46
7.02661e-46
7.28762e-46
7.55146e-46
7.81841e-46
8.08876e-46
8.36282e-46
8.64098e-46
8.92367e-46
9.21142e-46
9.50483e-46
9.8046e-46
1.01115e-45
1.04264e-45
1.07503e-45
1.10842e-45
1.14293e-45
1.17865e-45
1.2157e-45
1.2542e-45
1.29423e-45
1.33591e-45
1.37928e-45
1.42443e-45
1.47136e-45
1.5201e-45
1.57061e-45
1.62283e-45
1.67666e-45
1.73196e-45
1.78857e-45
1.84628e-45
1.90483e-45
1.96397e-45
2.02338e-45
2.08277e-45
2.14178e-45
2.20009e-45
2.25737e-45
2.31328e-45
2.36753e-45
2.41982e-45
2.4699e-45
2.51755e-45
2.56258e-45
2.60487e-45
2.6443e-45
2.68082e-45
2.71442e-45
2.74511e-45
2.77297e-45
2.79807e-45
2.82054e-45
2.84052e-45
2.85816e-45
2.87363e-45
2.8871e-45
2.89876e-45
2.90879e-45
2.91734e-45
2.9246e-45
2.93072e-45
2.93584e-45
2.9401e-45
2.94363e-45
2.94652e-45
2.94889e-45
2.95081e-45
2.95236e-45
2.9536e-45
2.95459e-45
2.95538e-45
2.95601e-45
2.9565e-45
2.95689e-45
2.95719e-45
2.95743e-45
2.95762e-45
2.95777e-45
2.95789e-45
2.95799e-45
2.95807e-45
2.95813e-45
2.95819e-45
2.95825e-45
2.9583e-45
2.95834e-45
2.95839e-45
2.95843e-45
2.95848e-45
2.95852e-45
2.95857e-45
2.95861e-45
2.95862e-45
2.95853e-45
2.95807e-45
2.95622e-45
2.95281e-45
2.95287e-45
2.95294e-45
2.95301e-45
2.95308e-45
2.95316e-45
2.95324e-45
2.95333e-45
2.95342e-45
2.95352e-45
2.95363e-45
2.95374e-45
2.95385e-45
2.95397e-45
2.9541e-45
2.95423e-45
2.95436e-45
2.9545e-45
2.95464e-45
2.95478e-45
2.95493e-45
2.95508e-45
2.95524e-45
2.95541e-45
2.9556e-45
2.95579e-45
2.95601e-45
2.95624e-45
2.9565e-45
2.95678e-45
2.95709e-45
2.95743e-45
2.95779e-45
2.95818e-45
2.9586e-45
2.95904e-45
2.95949e-45
2.95996e-45
2.96044e-45
2.96093e-45
2.96141e-45
2.96188e-45
2.96234e-45
2.96279e-45
2.96321e-45
2.96362e-45
2.96399e-45
2.96435e-45
2.96467e-45
2.96498e-45
2.96526e-45
2.96552e-45
2.96576e-45
2.96599e-45
2.96621e-45
2.96642e-45
2.96663e-45
2.96685e-45
2.96706e-45
2.96729e-45
2.96752e-45
2.96776e-45
2.96802e-45
2.96828e-45
2.96856e-45
2.96884e-45
2.96914e-45
2.96945e-45
2.9698e-45
2.97026e-45
2.97107e-45
2.97311e-45
2.9793e-45
2.9995e-45
3.06692e-45
3.2926e-45
4.04673e-45
6.55884e-45
1.48994e-44
4.25057e-44
1.3363e-43
4.33747e-43
1.42056e-42
4.66238e-42
1.53118e-41
5.0331e-41
1.65742e-40
5.47476e-40
1.81663e-39
6.06507e-39
2.04085e-38
6.93301e-38
2.38148e-37
8.28226e-37
2.91898e-36
1.04302e-35
3.77838e-35
1.3869e-34
5.15354e-34
1.93623e-33
7.34516e-33
2.80948e-32
1.08202e-31
4.19075e-31
1.63046e-30
6.3662e-30
2.49262e-29
9.78034e-29
3.8436e-28
1.51224e-27
5.95446e-27
2.34574e-26
9.24332e-26
3.64251e-25
1.43525e-24
5.65387e-24
2.22643e-23
8.76354e-23
3.44768e-22
1.35561e-21
5.32711e-21
2.0922e-20
8.21255e-20
3.22212e-19
1.26365e-18
4.95427e-18
1.95242e-17
7.67171e-17
3.00867e-16
1.17954e-15
4.62494e-15
1.81396e-14
7.11735e-14
2.79382e-13
1.09719e-12
4.31094e-12
1.69458e-11
6.66405e-11
2.62171e-10
1.03176e-09
4.06155e-09
1.5992e-08
6.29767e-08
2.48017e-07
9.76633e-07
3.84397e-06
1.51088e-05
5.91506e-05
0.000228972
0.000858818
0.00297046
0.00865823
0.0196884
0.0351693
0.0540936
0.0768895
0.102666
0.127883
0.148749
0.165989
0.176974
0.184373
0.189361
0.192798
0.195258
0.197102
0.198557
0.199759
0.200793
0.201712
0.202548
0.203321
0.204044
0.204727
0.205376
0.205994
0.206586
0.207153
0.207698
0.208221
0.208725
0.209211
0.20968
0.210132
0.210569
0.210991
0.211398
0.21178
0.212144
0.212498
0.212844
0.213181
0.21351
0.213832
0.214146
0.214452
0.214752
0.215046
0.215333
0.215615
0.21589
0.216161
0.216425
0.216685
0.21694
0.21719
0.217435
0.217676
0.217913
0.218145
0.218374
0.218599
0.218819
0.219037
0.21925
0.21946
0.219667
0.219871
0.220071
0.220269
0.220463
0.220655
0.220844
0.22103
0.221213
0.221394
0.221572
0.221747
0.221921
0.222092
0.22226
0.222426
0.22259
0.222752
0.222912
0.22307
0.223226
0.223379
0.223531
0.223681
0.223829
0.223975
0.224119
0.224262
0.224402
0.224542
0.224679
0.224815
0.224948
0.225081
0.225211
0.22534
0.225468
0.225595
0.22572
0.225843
0.225966
0.226087
0.226206
0.226325
0.226442
0.226557
0.226672
0.226785
0.226897
0.227008
0.227118
0.227227
0.227334
0.227441
0.227547
0.227651
0.227755
0.227857
0.227959
0.228059
0.228159
0.228258
0.228356
0.228453
0.228549
0.228644
0.228739
0.228833
0.228926
0.229018
0.229109
0.2292
0.22929
0.229379
0.229467
0.229555
0.229642
0.229729
0.229814
0.229899
0.229983
0.230067
0.23015
0.230232
0.230314
0.230395
0.230475
0.230555
0.230634
0.230712
0.23079
0.230867
0.230944
0.23102
0.231095
0.23117
0.231244
0.231318
0.231391
0.231463
0.231535
0.231606
0.231677
0.231747
0.231817
0.231886
0.231954
0.232022
0.23209
0.232157
0.232223
0.232289
0.232355
0.23242
0.232484
0.232548
0.232611
0.232674
0.232737
0.232799
0.23286
0.232922
0.232982
0.233042
0.233102
0.233161
0.23322
0.233279
0.233337
0.233394
0.233451
0.233508
0.233565
0.233621
0.233676
0.233732
0.233787
0.233841
0.233895
0.233949
0.234003
0.234056
0.234109
0.234162
0.234214
0.234267
0.234319
0.23437
0.234422
0.234473
0.234524
0.234574
0.234624
0.234673
0.234722
0.234768
0.234811
0.234847
0.234872
)
;

boundaryField
{
    boundary
    {
        type            empty;
    }
    inlet
    {
        type            fixedValue;
        value           uniform 0;
    }
    outlet
    {
        type            zeroGradient;
    }
}


// ************************************************************************* //
