/*--------------------------------*- C++ -*----------------------------------*\
  =========                 |
  \\      /  F ield         | OpenFOAM: The Open Source CFD Toolbox
   \\    /   O peration     | Website:  https://openfoam.org
    \\  /    A nd           | Version:  7
     \\/     M anipulation  |
\*---------------------------------------------------------------------------*/
FoamFile
{
    version     2.0;
    format      ascii;
    class       volScalarField;
    location    "0.00092";
    object      H2O2;
}
// * * * * * * * * * * * * * * * * * * * * * * * * * * * * * * * * * * * * * //

dimensions      [0 0 0 0 0 0 0];

internalField   nonuniform List<scalar> 
500
(
1.99327e-52
6.40436e-52
1.27325e-51
2.09784e-51
3.11419e-51
4.32216e-51
5.72153e-51
7.31188e-51
9.09265e-51
1.10631e-50
1.32222e-50
1.55689e-50
1.81021e-50
2.08204e-50
2.3723e-50
2.68089e-50
3.00777e-50
3.35293e-50
3.71642e-50
4.09837e-50
4.49896e-50
4.91841e-50
5.35705e-50
5.81523e-50
6.29334e-50
6.79182e-50
7.31115e-50
7.8518e-50
8.41428e-50
8.99915e-50
9.60696e-50
1.02383e-49
1.0894e-49
1.15746e-49
1.22812e-49
1.30148e-49
1.37766e-49
1.45679e-49
1.53905e-49
1.62461e-49
1.71368e-49
1.8065e-49
1.90331e-49
2.00439e-49
2.11003e-49
2.2205e-49
2.33611e-49
2.45712e-49
2.5838e-49
2.71637e-49
2.855e-49
2.99981e-49
3.15084e-49
3.30805e-49
3.47128e-49
3.64028e-49
3.81469e-49
3.99402e-49
4.17765e-49
4.36487e-49
4.55483e-49
4.74662e-49
4.93921e-49
5.13154e-49
5.32249e-49
5.51094e-49
5.69576e-49
5.87589e-49
6.0503e-49
6.21806e-49
6.37834e-49
6.53043e-49
6.67375e-49
6.80788e-49
6.93253e-49
7.04756e-49
7.15295e-49
7.24884e-49
7.33547e-49
7.41318e-49
7.48239e-49
7.5436e-49
7.59737e-49
7.64426e-49
7.68487e-49
7.7198e-49
7.74964e-49
7.77496e-49
7.7963e-49
7.81417e-49
7.82903e-49
7.84131e-49
7.85139e-49
7.85962e-49
7.86629e-49
7.87166e-49
7.87597e-49
7.87941e-49
7.88213e-49
7.88427e-49
7.88596e-49
7.88728e-49
7.88832e-49
7.88912e-49
7.88975e-49
7.89025e-49
7.89064e-49
7.89095e-49
7.89121e-49
7.89142e-49
7.8916e-49
7.89176e-49
7.89191e-49
7.89204e-49
7.89217e-49
7.8923e-49
7.89243e-49
7.89256e-49
7.89269e-49
7.89282e-49
7.89292e-49
7.89292e-49
7.8925e-49
7.8904e-49
7.88168e-49
7.86442e-49
7.86461e-49
7.86481e-49
7.86501e-49
7.86523e-49
7.86545e-49
7.86569e-49
7.86595e-49
7.86621e-49
7.8665e-49
7.8668e-49
7.86711e-49
7.86744e-49
7.86778e-49
7.86814e-49
7.86851e-49
7.86888e-49
7.86927e-49
7.86967e-49
7.87008e-49
7.8705e-49
7.87094e-49
7.8714e-49
7.87189e-49
7.87242e-49
7.873e-49
7.87363e-49
7.87433e-49
7.8751e-49
7.87596e-49
7.87691e-49
7.87796e-49
7.8791e-49
7.88034e-49
7.88167e-49
7.88308e-49
7.88456e-49
7.88608e-49
7.88764e-49
7.88921e-49
7.89077e-49
7.8923e-49
7.89377e-49
7.89518e-49
7.8965e-49
7.89774e-49
7.89887e-49
7.8999e-49
7.90084e-49
7.90169e-49
7.90248e-49
7.9032e-49
7.90389e-49
7.90456e-49
7.90523e-49
7.90592e-49
7.90664e-49
7.90742e-49
7.90826e-49
7.90917e-49
7.91016e-49
7.91123e-49
7.91237e-49
7.91358e-49
7.91485e-49
7.91617e-49
7.91753e-49
7.91892e-49
7.92032e-49
7.92173e-49
7.92312e-49
7.9245e-49
7.92586e-49
7.92732e-49
7.92936e-49
7.93431e-49
7.95312e-49
8.03669e-49
8.42043e-49
1.01876e-48
1.82979e-48
5.53476e-48
2.23802e-47
9.86162e-47
4.4208e-46
1.98275e-45
8.86485e-45
3.94837e-44
1.75187e-43
7.74438e-43
3.41154e-42
1.49788e-41
6.55623e-41
2.86133e-40
1.24539e-39
5.40703e-39
2.34212e-38
1.01239e-37
4.36769e-37
1.88106e-36
8.0887e-36
3.47334e-35
1.48961e-34
6.38142e-34
2.73105e-33
1.16777e-32
4.98923e-32
2.13005e-31
9.08758e-31
3.87455e-30
1.65088e-29
7.02962e-29
2.99134e-28
1.27206e-27
5.40564e-27
2.29548e-26
9.7403e-26
4.12989e-25
1.74972e-24
7.40738e-24
3.13357e-23
1.32468e-22
5.59646e-22
2.3631e-21
9.97394e-21
4.20848e-20
1.7855e-19
7.55098e-19
3.18755e-18
1.34532e-17
5.6794e-17
2.39859e-16
1.0135e-15
4.28471e-15
1.81243e-14
7.67082e-14
3.24829e-13
1.37621e-12
5.83333e-12
2.47358e-11
1.04928e-10
4.45238e-10
1.88974e-09
8.02203e-09
3.40522e-08
1.44436e-07
6.10629e-07
2.5496e-06
1.01859e-05
3.53075e-05
8.45746e-05
0.000119654
0.000115805
7.06024e-05
3.12997e-05
1.25322e-05
6.05252e-06
4.48803e-06
4.60617e-06
5.25248e-06
5.85972e-06
6.32104e-06
6.60997e-06
6.74919e-06
6.77388e-06
6.71686e-06
6.6045e-06
6.45632e-06
6.28612e-06
6.10375e-06
5.91587e-06
5.72703e-06
5.5403e-06
5.35769e-06
5.1805e-06
5.0095e-06
4.84515e-06
4.68765e-06
4.53702e-06
4.39318e-06
4.25599e-06
4.12521e-06
4.00061e-06
3.88193e-06
3.76893e-06
3.66137e-06
3.55905e-06
3.46473e-06
3.37601e-06
3.29084e-06
3.20906e-06
3.13049e-06
3.05497e-06
2.98235e-06
2.91249e-06
2.84526e-06
2.78052e-06
2.71816e-06
2.65806e-06
2.60011e-06
2.54422e-06
2.49029e-06
2.43822e-06
2.38792e-06
2.33933e-06
2.29235e-06
2.24693e-06
2.20298e-06
2.16044e-06
2.11926e-06
2.07937e-06
2.04072e-06
2.00326e-06
1.96693e-06
1.93169e-06
1.89749e-06
1.8643e-06
1.83207e-06
1.80076e-06
1.77033e-06
1.74077e-06
1.71202e-06
1.68405e-06
1.65685e-06
1.63037e-06
1.6046e-06
1.57951e-06
1.55506e-06
1.53125e-06
1.50804e-06
1.48542e-06
1.46336e-06
1.44185e-06
1.42087e-06
1.40039e-06
1.3804e-06
1.36089e-06
1.34184e-06
1.32324e-06
1.30507e-06
1.28731e-06
1.26996e-06
1.253e-06
1.23642e-06
1.2202e-06
1.20435e-06
1.18885e-06
1.17369e-06
1.15886e-06
1.14437e-06
1.13021e-06
1.11633e-06
1.10268e-06
1.08931e-06
1.07621e-06
1.06337e-06
1.05079e-06
1.03846e-06
1.02638e-06
1.01453e-06
1.00291e-06
9.91514e-07
9.80337e-07
9.69372e-07
9.58614e-07
9.48057e-07
9.37695e-07
9.27523e-07
9.17537e-07
9.07732e-07
8.98102e-07
8.88644e-07
8.79354e-07
8.70226e-07
8.61257e-07
8.52442e-07
8.43779e-07
8.35263e-07
8.2689e-07
8.18658e-07
8.10563e-07
8.02601e-07
7.9477e-07
7.87066e-07
7.79487e-07
7.7203e-07
7.64691e-07
7.57469e-07
7.50361e-07
7.43363e-07
7.36475e-07
7.29693e-07
7.23016e-07
7.1644e-07
7.09965e-07
7.03587e-07
6.97306e-07
6.91118e-07
6.85023e-07
6.79018e-07
6.73101e-07
6.67272e-07
6.61527e-07
6.55866e-07
6.50287e-07
6.44789e-07
6.39369e-07
6.34027e-07
6.2876e-07
6.23569e-07
6.1845e-07
6.13403e-07
6.08426e-07
6.03519e-07
5.98679e-07
5.93906e-07
5.89199e-07
5.84556e-07
5.79976e-07
5.75458e-07
5.71001e-07
5.66603e-07
5.62265e-07
5.57984e-07
5.5376e-07
5.49591e-07
5.45478e-07
5.41419e-07
5.37412e-07
5.33458e-07
5.29555e-07
5.25702e-07
5.21899e-07
5.18145e-07
5.14438e-07
5.10779e-07
5.07166e-07
5.03599e-07
5.00077e-07
4.96599e-07
4.93165e-07
4.89773e-07
4.86424e-07
4.83116e-07
4.79849e-07
4.76622e-07
4.73434e-07
4.70286e-07
4.67176e-07
4.64103e-07
4.61067e-07
4.58068e-07
4.55105e-07
4.52177e-07
4.49284e-07
4.46426e-07
4.43601e-07
4.40809e-07
4.38051e-07
4.35325e-07
4.32631e-07
4.2997e-07
4.27342e-07
4.24746e-07
4.22185e-07
4.19661e-07
4.17176e-07
4.14735e-07
4.12346e-07
4.10021e-07
4.07784e-07
4.05669e-07
4.03744e-07
4.02129e-07
4.01069e-07
)
;

boundaryField
{
    boundary
    {
        type            empty;
    }
    inlet
    {
        type            fixedValue;
        value           uniform 0;
    }
    outlet
    {
        type            zeroGradient;
    }
}


// ************************************************************************* //
