/*--------------------------------*- C++ -*----------------------------------*\
  =========                 |
  \\      /  F ield         | OpenFOAM: The Open Source CFD Toolbox
   \\    /   O peration     | Website:  https://openfoam.org
    \\  /    A nd           | Version:  7
     \\/     M anipulation  |
\*---------------------------------------------------------------------------*/
FoamFile
{
    version     2.0;
    format      ascii;
    class       volScalarField;
    location    "0.00092";
    object      HO2;
}
// * * * * * * * * * * * * * * * * * * * * * * * * * * * * * * * * * * * * * //

dimensions      [0 0 0 0 0 0 0];

internalField   nonuniform List<scalar> 
500
(
5.59393e-38
1.27318e-37
1.9897e-37
2.70691e-37
3.42432e-37
4.14178e-37
4.85919e-37
5.57641e-37
6.29326e-37
7.00954e-37
7.725e-37
8.43939e-37
9.15246e-37
9.86397e-37
1.05737e-36
1.12817e-36
1.19878e-36
1.26921e-36
1.33949e-36
1.40964e-36
1.47972e-36
1.54976e-36
1.61984e-36
1.69001e-36
1.76035e-36
1.83091e-36
1.90177e-36
1.97298e-36
2.04461e-36
2.1167e-36
2.18932e-36
2.26251e-36
2.33633e-36
2.41083e-36
2.48608e-36
2.56215e-36
2.63912e-36
2.71711e-36
2.79624e-36
2.87664e-36
2.95846e-36
3.0419e-36
3.12714e-36
3.21438e-36
3.30384e-36
3.39575e-36
3.49031e-36
3.58774e-36
3.68822e-36
3.79191e-36
3.89892e-36
4.00935e-36
4.12321e-36
4.24045e-36
4.36097e-36
4.48458e-36
4.61102e-36
4.73994e-36
4.87092e-36
5.00346e-36
5.13701e-36
5.27095e-36
5.40461e-36
5.53731e-36
5.66833e-36
5.79695e-36
5.9225e-36
6.04431e-36
6.16175e-36
6.27428e-36
6.38141e-36
6.48274e-36
6.57796e-36
6.66685e-36
6.74927e-36
6.82517e-36
6.89462e-36
6.95772e-36
7.01466e-36
7.06571e-36
7.11116e-36
7.15135e-36
7.18666e-36
7.21746e-36
7.24416e-36
7.26714e-36
7.2868e-36
7.3035e-36
7.3176e-36
7.32943e-36
7.33928e-36
7.34744e-36
7.35416e-36
7.35965e-36
7.36412e-36
7.36773e-36
7.37063e-36
7.37295e-36
7.37479e-36
7.37625e-36
7.37741e-36
7.37831e-36
7.37902e-36
7.37958e-36
7.38001e-36
7.38036e-36
7.38063e-36
7.38085e-36
7.38103e-36
7.38117e-36
7.3813e-36
7.38141e-36
7.38151e-36
7.3816e-36
7.38169e-36
7.38178e-36
7.38187e-36
7.38195e-36
7.38204e-36
7.38213e-36
7.38221e-36
7.38224e-36
7.38207e-36
7.3811e-36
7.37703e-36
7.36897e-36
7.36909e-36
7.36923e-36
7.36936e-36
7.36951e-36
7.36966e-36
7.36983e-36
7.37e-36
7.37018e-36
7.37037e-36
7.37058e-36
7.37079e-36
7.37102e-36
7.37126e-36
7.3715e-36
7.37175e-36
7.37201e-36
7.37227e-36
7.37254e-36
7.3728e-36
7.37308e-36
7.37336e-36
7.37365e-36
7.37395e-36
7.37426e-36
7.3746e-36
7.37497e-36
7.37537e-36
7.3758e-36
7.37628e-36
7.37681e-36
7.37738e-36
7.378e-36
7.37867e-36
7.37939e-36
7.38014e-36
7.38093e-36
7.38174e-36
7.38257e-36
7.3834e-36
7.38423e-36
7.38503e-36
7.38581e-36
7.38656e-36
7.38727e-36
7.38793e-36
7.38854e-36
7.38911e-36
7.38964e-36
7.39013e-36
7.39059e-36
7.39102e-36
7.39145e-36
7.39187e-36
7.3923e-36
7.39275e-36
7.39322e-36
7.39372e-36
7.39426e-36
7.39484e-36
7.39546e-36
7.39612e-36
7.39682e-36
7.39755e-36
7.39831e-36
7.3991e-36
7.39991e-36
7.40073e-36
7.40155e-36
7.40237e-36
7.40319e-36
7.40398e-36
7.40476e-36
7.40551e-36
7.40623e-36
7.40691e-36
7.40756e-36
7.40817e-36
7.40874e-36
7.40927e-36
7.40975e-36
7.4102e-36
7.4106e-36
7.41097e-36
7.41131e-36
7.41168e-36
7.41224e-36
7.41346e-36
7.41694e-36
7.42761e-36
7.46117e-36
7.56698e-36
7.90021e-36
8.94747e-36
1.22319e-35
2.25138e-35
5.46495e-35
1.54959e-34
4.67776e-34
1.44279e-33
4.48173e-33
1.39595e-32
4.35605e-32
1.36236e-31
4.27468e-31
1.34758e-30
4.27603e-30
1.36881e-29
4.43224e-29
1.45603e-28
4.86793e-28
1.6612e-27
5.80022e-27
2.07512e-26
7.609e-26
2.85672e-25
1.0959e-24
4.28396e-24
1.70124e-23
6.84264e-23
2.77999e-22
1.13821e-21
4.68753e-21
1.93901e-20
8.04733e-20
3.3482e-19
1.40363e-18
5.8747e-18
2.45696e-17
1.02814e-16
4.30554e-16
1.80425e-15
7.56528e-15
3.17372e-14
1.33195e-13
5.59166e-13
2.34794e-12
9.86013e-12
4.14077e-11
1.73872e-10
7.29909e-10
3.06286e-09
1.28444e-08
5.38011e-08
2.24811e-07
9.33834e-07
3.82426e-06
1.52119e-05
5.66e-05
0.000180779
0.000408764
0.000521178
0.000467576
0.000357275
0.00025481
0.000178769
0.000125067
8.74026e-05
6.17785e-05
4.32191e-05
3.22673e-05
2.52543e-05
2.06856e-05
1.76165e-05
1.54716e-05
1.39066e-05
1.27156e-05
1.17741e-05
1.10052e-05
1.03605e-05
9.80821e-06
9.32714e-06
8.90249e-06
8.52362e-06
8.18268e-06
7.8737e-06
7.59204e-06
7.33399e-06
7.09657e-06
6.87732e-06
6.67419e-06
6.48544e-06
6.30961e-06
6.14543e-06
5.99184e-06
5.84793e-06
5.71296e-06
5.59013e-06
5.47573e-06
5.36696e-06
5.26341e-06
5.16472e-06
5.07055e-06
4.98058e-06
4.89455e-06
4.81221e-06
4.73331e-06
4.65765e-06
4.58504e-06
4.51529e-06
4.44825e-06
4.38375e-06
4.32166e-06
4.26185e-06
4.2042e-06
4.14859e-06
4.09492e-06
4.0431e-06
3.99302e-06
3.94462e-06
3.8978e-06
3.85249e-06
3.80863e-06
3.76615e-06
3.72498e-06
3.68507e-06
3.64636e-06
3.60881e-06
3.57236e-06
3.53697e-06
3.5026e-06
3.46919e-06
3.43673e-06
3.40516e-06
3.37445e-06
3.34458e-06
3.3155e-06
3.28719e-06
3.25963e-06
3.23278e-06
3.20661e-06
3.18112e-06
3.15626e-06
3.13202e-06
3.10838e-06
3.08532e-06
3.06282e-06
3.04086e-06
3.01942e-06
2.99849e-06
2.97805e-06
2.95809e-06
2.93859e-06
2.91954e-06
2.90093e-06
2.88274e-06
2.86496e-06
2.84759e-06
2.83062e-06
2.81404e-06
2.79786e-06
2.78201e-06
2.76646e-06
2.75123e-06
2.73633e-06
2.72174e-06
2.70746e-06
2.69347e-06
2.67978e-06
2.66637e-06
2.65323e-06
2.64036e-06
2.62774e-06
2.61538e-06
2.60326e-06
2.59138e-06
2.57973e-06
2.5683e-06
2.55709e-06
2.54609e-06
2.5353e-06
2.5247e-06
2.51429e-06
2.50408e-06
2.49404e-06
2.48418e-06
2.47449e-06
2.46497e-06
2.45561e-06
2.44641e-06
2.43736e-06
2.42846e-06
2.41971e-06
2.41109e-06
2.40262e-06
2.39428e-06
2.38607e-06
2.37798e-06
2.37003e-06
2.36219e-06
2.35447e-06
2.34687e-06
2.33939e-06
2.33202e-06
2.32475e-06
2.3176e-06
2.31055e-06
2.30361e-06
2.29676e-06
2.29002e-06
2.28338e-06
2.27683e-06
2.27038e-06
2.26402e-06
2.25775e-06
2.25158e-06
2.24549e-06
2.23949e-06
2.23358e-06
2.22775e-06
2.222e-06
2.21633e-06
2.21075e-06
2.20524e-06
2.19981e-06
2.19446e-06
2.18918e-06
2.18397e-06
2.17884e-06
2.17377e-06
2.16878e-06
2.16385e-06
2.15899e-06
2.1542e-06
2.14947e-06
2.14481e-06
2.14021e-06
2.13566e-06
2.13118e-06
2.12676e-06
2.1224e-06
2.1181e-06
2.11385e-06
2.10966e-06
2.10552e-06
2.10144e-06
2.09741e-06
2.09343e-06
2.08951e-06
2.08563e-06
2.08181e-06
2.07803e-06
2.0743e-06
2.07062e-06
2.06698e-06
2.06339e-06
2.05984e-06
2.05634e-06
2.05287e-06
2.04945e-06
2.04606e-06
2.04271e-06
2.0394e-06
2.03612e-06
2.03287e-06
2.02966e-06
2.02647e-06
2.02331e-06
2.02018e-06
2.01707e-06
2.01398e-06
2.01092e-06
2.00787e-06
2.00484e-06
2.00182e-06
1.99882e-06
1.99583e-06
1.99285e-06
1.98989e-06
1.98695e-06
1.98406e-06
1.98125e-06
1.97859e-06
1.97625e-06
1.9746e-06
)
;

boundaryField
{
    boundary
    {
        type            empty;
    }
    inlet
    {
        type            fixedValue;
        value           uniform 0;
    }
    outlet
    {
        type            zeroGradient;
    }
}


// ************************************************************************* //
