/*--------------------------------*- C++ -*----------------------------------*\
  =========                 |
  \\      /  F ield         | OpenFOAM: The Open Source CFD Toolbox
   \\    /   O peration     | Website:  https://openfoam.org
    \\  /    A nd           | Version:  7
     \\/     M anipulation  |
\*---------------------------------------------------------------------------*/
FoamFile
{
    version     2.0;
    format      ascii;
    class       volScalarField;
    location    "0.00092";
    object      O;
}
// * * * * * * * * * * * * * * * * * * * * * * * * * * * * * * * * * * * * * //

dimensions      [0 0 0 0 0 0 0];

internalField   nonuniform List<scalar> 
500
(
1.57789e-47
3.76501e-47
5.96465e-47
8.16547e-47
1.03649e-46
1.2562e-46
1.47564e-46
1.69475e-46
1.91346e-46
2.1317e-46
2.34937e-46
2.56638e-46
2.78266e-46
2.99812e-46
3.21272e-46
3.42643e-46
3.63926e-46
3.85126e-46
4.06252e-46
4.27316e-46
4.48335e-46
4.69328e-46
4.90318e-46
5.11329e-46
5.32385e-46
5.53512e-46
5.74736e-46
5.96082e-46
6.17574e-46
6.39236e-46
6.61092e-46
6.83165e-46
7.05481e-46
7.28069e-46
7.50957e-46
7.7418e-46
7.97778e-46
8.21796e-46
8.46284e-46
8.713e-46
8.96908e-46
9.23177e-46
9.50182e-46
9.78003e-46
1.00672e-45
1.03642e-45
1.06718e-45
1.09908e-45
1.1322e-45
1.16659e-45
1.2023e-45
1.23937e-45
1.27782e-45
1.31764e-45
1.35881e-45
1.40127e-45
1.44495e-45
1.48974e-45
1.53551e-45
1.5821e-45
1.62934e-45
1.67702e-45
1.72492e-45
1.7728e-45
1.82042e-45
1.86754e-45
1.91389e-45
1.95924e-45
2.00335e-45
2.046e-45
2.087e-45
2.12616e-45
2.16334e-45
2.19841e-45
2.2313e-45
2.26194e-45
2.2903e-45
2.31639e-45
2.34022e-45
2.36187e-45
2.3814e-45
2.3989e-45
2.41449e-45
2.42828e-45
2.44041e-45
2.45101e-45
2.46021e-45
2.46814e-45
2.47494e-45
2.48074e-45
2.48565e-45
2.48978e-45
2.49323e-45
2.4961e-45
2.49848e-45
2.50043e-45
2.50202e-45
2.50332e-45
2.50436e-45
2.5052e-45
2.50588e-45
2.50642e-45
2.50684e-45
2.50718e-45
2.50745e-45
2.50766e-45
2.50783e-45
2.50797e-45
2.50808e-45
2.50817e-45
2.50824e-45
2.5083e-45
2.50836e-45
2.50841e-45
2.50845e-45
2.50849e-45
2.50854e-45
2.50858e-45
2.50861e-45
2.50865e-45
2.50866e-45
2.50863e-45
2.50845e-45
2.50785e-45
2.50603e-45
2.50339e-45
2.50345e-45
2.50351e-45
2.50357e-45
2.50364e-45
2.5037e-45
2.50378e-45
2.50385e-45
2.50394e-45
2.50402e-45
2.50412e-45
2.50421e-45
2.50432e-45
2.50443e-45
2.50454e-45
2.50466e-45
2.50479e-45
2.50492e-45
2.50507e-45
2.50521e-45
2.50537e-45
2.50554e-45
2.50572e-45
2.50591e-45
2.50612e-45
2.50635e-45
2.50659e-45
2.50686e-45
2.50714e-45
2.50744e-45
2.50777e-45
2.50811e-45
2.50847e-45
2.50884e-45
2.50922e-45
2.50961e-45
2.51e-45
2.5104e-45
2.51079e-45
2.51117e-45
2.51154e-45
2.51191e-45
2.51225e-45
2.51259e-45
2.5129e-45
2.5132e-45
2.51349e-45
2.51376e-45
2.51401e-45
2.51425e-45
2.51448e-45
2.5147e-45
2.51492e-45
2.51513e-45
2.51533e-45
2.51553e-45
2.51574e-45
2.51594e-45
2.51615e-45
2.51635e-45
2.51657e-45
2.51678e-45
2.51701e-45
2.51725e-45
2.51754e-45
2.518e-45
2.51904e-45
2.52203e-45
2.53173e-45
2.5643e-45
2.67446e-45
3.04661e-45
4.29928e-45
8.49781e-45
2.25073e-44
6.90464e-44
2.22974e-43
7.29907e-43
2.39242e-42
7.82242e-42
2.54871e-41
8.27314e-41
2.67544e-40
8.62052e-40
2.76782e-39
8.85658e-39
2.82473e-38
8.98116e-38
2.84706e-37
8.99984e-37
2.83735e-36
8.92271e-36
2.79933e-35
8.76298e-35
2.73751e-34
8.53552e-34
2.65668e-33
8.25555e-33
2.56158e-32
7.9375e-32
2.45655e-31
7.59422e-31
2.34533e-30
7.23647e-30
2.23096e-29
6.87271e-29
2.11575e-28
6.50914e-28
2.00134e-27
6.14997e-27
1.8888e-26
5.79784e-26
1.77876e-25
5.45435e-25
1.67163e-24
5.12053e-24
1.56772e-23
4.79738e-23
1.46735e-22
4.48611e-22
1.37097e-21
4.18827e-21
1.27913e-20
3.90567e-20
1.19238e-19
3.6401e-19
1.11625e-18
3.41742e-18
1.04445e-17
3.19095e-17
9.74976e-17
2.97974e-16
9.10963e-16
2.78592e-15
8.5228e-15
2.60817e-14
7.98397e-14
2.44467e-13
7.48728e-13
2.2936e-12
7.02729e-12
2.1534e-11
6.59973e-11
2.02303e-10
6.20338e-10
1.90427e-09
5.87085e-09
1.84209e-08
6.17612e-08
2.51926e-07
1.44456e-06
1.00579e-05
5.6006e-05
0.000238537
0.000787707
0.00184308
0.00319672
0.00447282
0.00542873
0.0060421
0.00633817
0.00643983
0.00641924
0.00632626
0.00619323
0.0060402
0.00587922
0.0057173
0.00555841
0.00540466
0.0052571
0.00511611
0.00498173
0.0048538
0.00473206
0.0046162
0.00450588
0.00440078
0.00430059
0.00420502
0.00411377
0.00402658
0.00394323
0.00386347
0.00378711
0.00371396
0.00364388
0.00357876
0.00351722
0.00345774
0.0034002
0.0033445
0.00329054
0.00323824
0.00318753
0.00313832
0.00309054
0.00304414
0.00299905
0.00295521
0.00291258
0.00287109
0.0028307
0.00279137
0.00275306
0.00271571
0.00267931
0.0026438
0.00260916
0.00257535
0.00254234
0.00251011
0.00247862
0.00244785
0.00241778
0.00238838
0.00235962
0.00233149
0.00230396
0.00227702
0.00225065
0.00222482
0.00219953
0.00217475
0.00215047
0.00212667
0.00210335
0.00208047
0.00205804
0.00203605
0.00201446
0.00199329
0.00197251
0.00195211
0.00193209
0.00191243
0.00189313
0.00187417
0.00185554
0.00183725
0.00181928
0.00180162
0.00178426
0.00176721
0.00175044
0.00173397
0.00171777
0.00170185
0.00168621
0.00167083
0.00165573
0.00164086
0.00162617
0.00161172
0.00159749
0.0015835
0.00156971
0.00155615
0.00154279
0.00152964
0.00151668
0.00150393
0.00149136
0.00147898
0.00146678
0.00145475
0.0014429
0.00143122
0.00141971
0.00140835
0.00139716
0.00138612
0.00137523
0.00136449
0.00135389
0.00134343
0.00133311
0.00132293
0.00131288
0.00130295
0.00129316
0.00128349
0.00127394
0.00126451
0.0012552
0.001246
0.00123692
0.00122795
0.00121908
0.00121033
0.00120168
0.00119313
0.00118469
0.00117634
0.0011681
0.00115995
0.0011519
0.00114395
0.00113609
0.00112832
0.00112064
0.00111305
0.00110555
0.00109814
0.00109081
0.00108357
0.00107641
0.00106933
0.00106233
0.00105542
0.00104858
0.00104182
0.00103514
0.00102853
0.001022
0.00101554
0.00100915
0.00100283
0.000996586
0.000990409
0.000984301
0.00097826
0.000972286
0.000966377
0.000960533
0.000954753
0.000949035
0.00094338
0.000937786
0.000932253
0.00092678
0.000921365
0.000916009
0.000910711
0.000905469
0.000900284
0.000895154
0.000890079
0.000885058
0.00088009
0.000875176
0.000870313
0.000865502
0.000860742
0.000856032
0.000851371
0.000846759
0.000842196
0.00083768
0.000833211
0.000828788
0.000824411
0.000820078
0.00081579
0.000811546
0.000807345
0.000803187
0.000799071
0.000794996
0.000790964
0.000786974
0.000783026
0.000779121
0.000775262
0.000771449
0.000767689
0.000763987
0.000760353
0.000756803
0.000753361
0.000750066
0.00074698
0.000744208
0.00074193
0.000740474
)
;

boundaryField
{
    boundary
    {
        type            empty;
    }
    inlet
    {
        type            fixedValue;
        value           uniform 0;
    }
    outlet
    {
        type            zeroGradient;
    }
}


// ************************************************************************* //
