/*--------------------------------*- C++ -*----------------------------------*\
  =========                 |
  \\      /  F ield         | OpenFOAM: The Open Source CFD Toolbox
   \\    /   O peration     | Website:  https://openfoam.org
    \\  /    A nd           | Version:  7
     \\/     M anipulation  |
\*---------------------------------------------------------------------------*/
FoamFile
{
    version     2.0;
    format      ascii;
    class       volScalarField;
    location    "0.00092";
    object      O2;
}
// * * * * * * * * * * * * * * * * * * * * * * * * * * * * * * * * * * * * * //

dimensions      [0 0 0 0 0 0 0];

internalField   nonuniform List<scalar> 
500
(
0.226269
0.226269
0.226269
0.226269
0.226269
0.226269
0.226269
0.226269
0.226269
0.226269
0.226269
0.226269
0.226269
0.226269
0.226269
0.226269
0.226269
0.226269
0.226269
0.226269
0.226269
0.226269
0.226269
0.226269
0.226269
0.226269
0.226269
0.226269
0.226269
0.226269
0.226269
0.226269
0.226269
0.226269
0.226269
0.226269
0.226269
0.226269
0.226269
0.226269
0.226269
0.226269
0.226269
0.226269
0.226269
0.226269
0.226269
0.226269
0.226269
0.226269
0.226269
0.226269
0.226269
0.226269
0.226269
0.226269
0.226269
0.226269
0.226269
0.226269
0.226269
0.226269
0.226269
0.226269
0.226269
0.226269
0.226269
0.226269
0.226269
0.226269
0.226269
0.226269
0.226269
0.226269
0.226269
0.226269
0.226269
0.226269
0.226269
0.226269
0.226269
0.226269
0.226269
0.226269
0.226269
0.226269
0.226269
0.226269
0.226269
0.226269
0.226269
0.226269
0.226269
0.226269
0.226269
0.226269
0.226269
0.226269
0.226269
0.226269
0.226269
0.226269
0.226269
0.226269
0.226269
0.226269
0.226269
0.226269
0.226269
0.226269
0.226269
0.226269
0.226269
0.226269
0.226269
0.226269
0.226269
0.226269
0.226269
0.226269
0.226269
0.226269
0.226269
0.226269
0.226269
0.226269
0.226269
0.226269
0.226269
0.226269
0.226269
0.226269
0.226269
0.226269
0.226269
0.226269
0.226269
0.226269
0.226269
0.226269
0.226269
0.226269
0.226269
0.226269
0.226269
0.226269
0.226269
0.226269
0.226269
0.226269
0.226269
0.226269
0.226269
0.226269
0.226269
0.226269
0.226269
0.226269
0.226269
0.226269
0.226269
0.226269
0.226269
0.226269
0.226269
0.226269
0.226269
0.226269
0.226269
0.226269
0.226269
0.226269
0.226269
0.226269
0.226269
0.226269
0.226269
0.226269
0.226269
0.226269
0.226269
0.226269
0.226269
0.226269
0.226269
0.226269
0.226269
0.226269
0.226269
0.226269
0.226269
0.226269
0.226269
0.226269
0.226269
0.226269
0.226269
0.226269
0.226269
0.226269
0.226269
0.226269
0.226269
0.226269
0.226269
0.226269
0.226269
0.226269
0.226269
0.226269
0.226269
0.226269
0.226269
0.226269
0.226269
0.226269
0.226269
0.226269
0.226269
0.226269
0.226269
0.226269
0.226269
0.226269
0.226269
0.226269
0.226269
0.226269
0.226269
0.226269
0.226269
0.226269
0.226269
0.226269
0.226269
0.226269
0.226269
0.226269
0.226269
0.226269
0.226269
0.226269
0.226269
0.226269
0.226269
0.226269
0.226269
0.226269
0.226269
0.226269
0.226269
0.226269
0.226269
0.226269
0.226269
0.226269
0.226269
0.226269
0.226269
0.226269
0.226269
0.226269
0.226269
0.226269
0.226269
0.226269
0.226269
0.22627
0.226271
0.226273
0.226277
0.226278
0.226259
0.22614
0.225628
0.223899
0.219303
0.210089
0.197052
0.180598
0.15952
0.134353
0.108838
0.0872858
0.0689481
0.0571993
0.0492186
0.0438293
0.0401396
0.0375418
0.0356421
0.0341923
0.033037
0.0320793
0.0312583
0.0305353
0.0298851
0.0292912
0.0287425
0.0282312
0.0277516
0.0272997
0.0268723
0.0264669
0.0260815
0.0257145
0.0253644
0.02503
0.0247103
0.0244043
0.0241114
0.0238309
0.0235707
0.0233235
0.0230843
0.0228525
0.0226277
0.0224096
0.0221978
0.0219919
0.0217917
0.0215969
0.0214072
0.0212223
0.0210421
0.0208663
0.0206947
0.0205271
0.0203633
0.0202033
0.0200467
0.0198936
0.0197437
0.0195969
0.0194532
0.0193123
0.0191743
0.0190389
0.0189061
0.0187759
0.018648
0.0185225
0.0183993
0.0182782
0.0181593
0.0180424
0.0179276
0.0178146
0.0177035
0.0175943
0.0174868
0.0173811
0.017277
0.0171745
0.0170737
0.0169743
0.0168765
0.0167802
0.0166853
0.0165917
0.0164996
0.0164088
0.0163193
0.0162311
0.0161442
0.0160584
0.0159739
0.0158906
0.0158084
0.0157274
0.0156475
0.0155687
0.015491
0.0154144
0.015339
0.0152647
0.0151914
0.0151188
0.0150471
0.0149764
0.0149066
0.0148377
0.0147696
0.0147024
0.0146361
0.0145706
0.0145058
0.0144419
0.0143787
0.0143162
0.0142545
0.0141935
0.0141331
0.0140735
0.0140145
0.0139561
0.0138983
0.0138411
0.0137845
0.0137285
0.0136731
0.0136181
0.0135637
0.0135098
0.0134564
0.0134035
0.0133511
0.0132991
0.0132476
0.0131966
0.0131459
0.0130957
0.013046
0.0129966
0.0129477
0.0128992
0.012851
0.0128033
0.012756
0.012709
0.0126625
0.0126163
0.0125705
0.0125251
0.0124801
0.0124354
0.0123911
0.0123472
0.0123036
0.0122605
0.0122176
0.0121752
0.012133
0.0120913
0.0120499
0.0120088
0.0119681
0.0119277
0.0118877
0.0118479
0.0118086
0.0117695
0.0117308
0.0116924
0.0116543
0.0116165
0.0115791
0.0115419
0.0115051
0.0114686
0.0114323
0.0113964
0.0113607
0.0113254
0.0112903
0.0112555
0.011221
0.0111868
0.0111529
0.0111192
0.0110858
0.0110527
0.0110198
0.0109872
0.0109549
0.0109228
0.0108909
0.0108593
0.010828
0.0107969
0.010766
0.0107353
0.0107049
0.0106747
0.0106447
0.0106149
0.0105852
0.0105558
0.0105266
0.0104975
0.0104686
0.0104398
0.0104111
0.0103826
0.0103542
0.0103259
0.0102977
0.0102696
0.0102415
0.0102135
0.0101855
0.0101575
0.0101294
0.0101015
0.0100736
0.0100459
0.0100188
0.00999294
0.00997009
0.00995406
)
;

boundaryField
{
    boundary
    {
        type            empty;
    }
    inlet
    {
        type            fixedValue;
        value           uniform 0.226269;
    }
    outlet
    {
        type            zeroGradient;
    }
}


// ************************************************************************* //
