/*--------------------------------*- C++ -*----------------------------------*\
  =========                 |
  \\      /  F ield         | OpenFOAM: The Open Source CFD Toolbox
   \\    /   O peration     | Website:  https://openfoam.org
    \\  /    A nd           | Version:  7
     \\/     M anipulation  |
\*---------------------------------------------------------------------------*/
FoamFile
{
    version     2.0;
    format      ascii;
    class       volScalarField;
    location    "0.00092";
    object      Qdot;
}
// * * * * * * * * * * * * * * * * * * * * * * * * * * * * * * * * * * * * * //

dimensions      [1 -1 -3 0 0 0 0];

internalField   nonuniform List<scalar> 
500
(
-2.45271e-27
-1.86362e-27
-1.73703e-27
-1.71012e-27
-1.70466e-27
-1.70381e-27
-1.70391e-27
-1.70416e-27
-1.7044e-27
-1.70454e-27
-1.70456e-27
-1.70444e-27
-1.70415e-27
-1.70366e-27
-1.70298e-27
-1.70208e-27
-1.70099e-27
-1.69971e-27
-1.69826e-27
-1.69669e-27
-1.69503e-27
-1.69334e-27
-1.69165e-27
-1.69003e-27
-1.68854e-27
-1.68721e-27
-1.68609e-27
-1.68524e-27
-1.68468e-27
-1.68444e-27
-1.68456e-27
-1.68505e-27
-1.68595e-27
-1.68725e-27
-1.689e-27
-1.6912e-27
-1.69389e-27
-1.69709e-27
-1.70084e-27
-1.70518e-27
-1.71017e-27
-1.71585e-27
-1.7223e-27
-1.72958e-27
-1.73777e-27
-1.74693e-27
-1.75716e-27
-1.76852e-27
-1.7811e-27
-1.79495e-27
-1.81015e-27
-1.82675e-27
-1.84478e-27
-1.86428e-27
-1.88525e-27
-1.90769e-27
-1.93156e-27
-1.95682e-27
-1.98339e-27
-2.01118e-27
-2.04006e-27
-2.0699e-27
-2.10053e-27
-2.13179e-27
-2.16347e-27
-2.19536e-27
-2.22727e-27
-2.25897e-27
-2.29025e-27
-2.32091e-27
-2.35074e-27
-2.37957e-27
-2.40723e-27
-2.43359e-27
-2.45852e-27
-2.48194e-27
-2.50379e-27
-2.52403e-27
-2.54264e-27
-2.55963e-27
-2.57505e-27
-2.58894e-27
-2.60136e-27
-2.6124e-27
-2.62214e-27
-2.63069e-27
-2.63813e-27
-2.64457e-27
-2.65011e-27
-2.65485e-27
-2.65887e-27
-2.66226e-27
-2.66511e-27
-2.66749e-27
-2.66945e-27
-2.67108e-27
-2.6724e-27
-2.67349e-27
-2.67437e-27
-2.67507e-27
-2.67564e-27
-2.6761e-27
-2.67646e-27
-2.67675e-27
-2.67697e-27
-2.67715e-27
-2.6773e-27
-2.67741e-27
-2.6775e-27
-2.67758e-27
-2.67764e-27
-2.67769e-27
-2.67773e-27
-2.67777e-27
-2.67781e-27
-2.67784e-27
-2.67787e-27
-2.6779e-27
-2.67793e-27
-2.67796e-27
-2.678e-27
-2.67803e-27
-2.67806e-27
-2.67808e-27
-2.67808e-27
-2.67805e-27
-2.6781e-27
-2.67815e-27
-2.67821e-27
-2.67827e-27
-2.67834e-27
-2.6784e-27
-2.67848e-27
-2.67856e-27
-2.67865e-27
-2.67875e-27
-2.67885e-27
-2.67896e-27
-2.67908e-27
-2.6792e-27
-2.67932e-27
-2.67944e-27
-2.67956e-27
-2.67967e-27
-2.67978e-27
-2.67988e-27
-2.67998e-27
-2.68007e-27
-2.68015e-27
-2.68023e-27
-2.6803e-27
-2.68038e-27
-2.68045e-27
-2.68052e-27
-2.68059e-27
-2.68066e-27
-2.68074e-27
-2.68083e-27
-2.68092e-27
-2.68102e-27
-2.68112e-27
-2.68123e-27
-2.68135e-27
-2.68147e-27
-2.6816e-27
-2.68174e-27
-2.68187e-27
-2.68201e-27
-2.68216e-27
-2.68231e-27
-2.68246e-27
-2.68261e-27
-2.68276e-27
-2.68292e-27
-2.68307e-27
-2.68323e-27
-2.68339e-27
-2.68356e-27
-2.68372e-27
-2.68389e-27
-2.68405e-27
-2.68422e-27
-2.68439e-27
-2.68456e-27
-2.68473e-27
-2.68491e-27
-2.68508e-27
-2.68526e-27
-2.68543e-27
-2.68561e-27
-2.68578e-27
-2.68596e-27
-2.68613e-27
-2.6863e-27
-2.68647e-27
-2.68664e-27
-2.6868e-27
-2.68696e-27
-2.68712e-27
-2.68727e-27
-2.68742e-27
-2.68756e-27
-2.68769e-27
-2.68782e-27
-2.68793e-27
-2.68801e-27
-2.68799e-27
-2.68771e-27
-2.68656e-27
-2.68269e-27
-2.67016e-27
-2.63007e-27
-2.50268e-27
-2.09929e-27
-8.25688e-28
3.18467e-27
1.57815e-26
5.52586e-26
1.7871e-25
5.63995e-25
1.76424e-24
5.49689e-24
1.70871e-23
5.30248e-23
1.64313e-22
5.08532e-22
1.5721e-21
4.85516e-21
1.49807e-20
4.61856e-20
1.42285e-19
4.38046e-19
1.34777e-18
4.1445e-18
1.27384e-17
3.91348e-17
1.20185e-16
3.68989e-16
1.13267e-15
3.47697e-15
1.06762e-14
3.28037e-14
1.00919e-13
3.11126e-13
9.62403e-13
2.99232e-12
9.37522e-12
2.97003e-11
9.55626e-11
3.14012e-10
1.06025e-09
3.72011e-09
1.35177e-08
5.10372e-08
2.00327e-07
8.14719e-07
3.41462e-06
1.46595e-05
6.41088e-05
0.000284209
0.00127304
0.00574732
0.026118
0.11943
0.549878
2.55373
12.0013
59.42
321.187
2046.84
15502.2
123561
1.11642e+06
1.06144e+07
9.8935e+07
7.83343e+08
3.85338e+09
9.56226e+09
1.31422e+10
1.38703e+10
1.39221e+10
1.38415e+10
1.31219e+10
1.15318e+10
9.54591e+09
7.78531e+09
6.40268e+09
5.33942e+09
4.53083e+09
3.90979e+09
3.42425e+09
3.03703e+09
2.72215e+09
2.46146e+09
2.24232e+09
2.05556e+09
1.89457e+09
1.7544e+09
1.6313e+09
1.52241e+09
1.42544e+09
1.33859e+09
1.26042e+09
1.18972e+09
1.12553e+09
1.06703e+09
1.01352e+09
9.64425e+08
9.19256e+08
8.77594e+08
8.39089e+08
8.03494e+08
7.71391e+08
7.41931e+08
7.14184e+08
6.88088e+08
6.63498e+08
6.40277e+08
6.18326e+08
5.97548e+08
5.77854e+08
5.59167e+08
5.41415e+08
5.24535e+08
5.08467e+08
4.93157e+08
4.78555e+08
4.64617e+08
4.51302e+08
4.38569e+08
4.26386e+08
4.14718e+08
4.03537e+08
3.92814e+08
3.82522e+08
3.7264e+08
3.63143e+08
3.54012e+08
3.45227e+08
3.36769e+08
3.28623e+08
3.20772e+08
3.13202e+08
3.05899e+08
2.9885e+08
2.92041e+08
2.85465e+08
2.79107e+08
2.7296e+08
2.67012e+08
2.61256e+08
2.55682e+08
2.50283e+08
2.45052e+08
2.39981e+08
2.35063e+08
2.30293e+08
2.25663e+08
2.21169e+08
2.16805e+08
2.12566e+08
2.08447e+08
2.04444e+08
2.00551e+08
1.96765e+08
1.93082e+08
1.89498e+08
1.8601e+08
1.82613e+08
1.79305e+08
1.76084e+08
1.72945e+08
1.69886e+08
1.66907e+08
1.64007e+08
1.61186e+08
1.58434e+08
1.55734e+08
1.53095e+08
1.50519e+08
1.48004e+08
1.45548e+08
1.43149e+08
1.40804e+08
1.38514e+08
1.36275e+08
1.34086e+08
1.31946e+08
1.29853e+08
1.27805e+08
1.25802e+08
1.23842e+08
1.21923e+08
1.20046e+08
1.18207e+08
1.16406e+08
1.14643e+08
1.12916e+08
1.11224e+08
1.09565e+08
1.0794e+08
1.06347e+08
1.04786e+08
1.03254e+08
1.01753e+08
1.0028e+08
9.88357e+07
9.74186e+07
9.60281e+07
9.46636e+07
9.33244e+07
9.20099e+07
9.07192e+07
8.94524e+07
8.82083e+07
8.69866e+07
8.57867e+07
8.46081e+07
8.34503e+07
8.23127e+07
8.1195e+07
8.00967e+07
7.90172e+07
7.79563e+07
7.69134e+07
7.58882e+07
7.48802e+07
7.38891e+07
7.29145e+07
7.19564e+07
7.10137e+07
7.00864e+07
6.91743e+07
6.8277e+07
6.73942e+07
6.65255e+07
6.56707e+07
6.48295e+07
6.40015e+07
6.31865e+07
6.23843e+07
6.15945e+07
6.08169e+07
6.00513e+07
5.92975e+07
5.85551e+07
5.78241e+07
5.71032e+07
5.63942e+07
5.56956e+07
5.50073e+07
5.43292e+07
5.36611e+07
5.30027e+07
5.2354e+07
5.17147e+07
5.10847e+07
5.04633e+07
4.98514e+07
4.92482e+07
4.86535e+07
4.80673e+07
4.74894e+07
4.69196e+07
4.63577e+07
4.58038e+07
4.52576e+07
4.4719e+07
4.41878e+07
4.3664e+07
4.31473e+07
4.26378e+07
4.21353e+07
4.16396e+07
4.11506e+07
4.06683e+07
4.01925e+07
3.97231e+07
3.926e+07
3.88031e+07
3.83524e+07
3.79077e+07
3.74689e+07
3.70359e+07
3.66087e+07
3.61872e+07
3.57712e+07
3.53607e+07
3.49558e+07
3.4556e+07
3.41612e+07
3.37716e+07
3.33868e+07
3.30065e+07
3.26301e+07
3.22567e+07
3.18865e+07
3.15207e+07
3.11708e+07
3.09021e+07
)
;

boundaryField
{
    boundary
    {
        type            empty;
    }
    inlet
    {
        type            calculated;
        value           uniform 0;
    }
    outlet
    {
        type            calculated;
        value           uniform 0;
    }
}


// ************************************************************************* //
