/*--------------------------------*- C++ -*----------------------------------*\
  =========                 |
  \\      /  F ield         | OpenFOAM: The Open Source CFD Toolbox
   \\    /   O peration     | Website:  https://openfoam.org
    \\  /    A nd           | Version:  7
     \\/     M anipulation  |
\*---------------------------------------------------------------------------*/
FoamFile
{
    version     2.0;
    format      ascii;
    class       volScalarField;
    location    "0.00092";
    object      rho;
}
// * * * * * * * * * * * * * * * * * * * * * * * * * * * * * * * * * * * * * //

dimensions      [1 -3 0 0 0 0 0];

internalField   nonuniform List<scalar> 
500
(
0.864773
0.864769
0.864766
0.864763
0.864761
0.864758
0.864756
0.864754
0.864753
0.864752
0.864752
0.864753
0.864754
0.864757
0.864761
0.864765
0.864772
0.864779
0.864787
0.864795
0.864805
0.864814
0.864824
0.864833
0.864841
0.864849
0.864855
0.86486
0.864863
0.864865
0.864864
0.864861
0.864856
0.864849
0.864839
0.864827
0.864812
0.864794
0.864773
0.864748
0.86472
0.864689
0.864653
0.864613
0.864567
0.864517
0.864461
0.8644
0.864332
0.864258
0.864177
0.86409
0.863996
0.863896
0.863789
0.863676
0.863557
0.863432
0.863303
0.86317
0.863034
0.862894
0.862754
0.862612
0.862471
0.86233
0.862192
0.862056
0.861924
0.861796
0.861673
0.861556
0.861445
0.86134
0.861242
0.86115
0.861065
0.860988
0.860917
0.860852
0.860794
0.860742
0.860695
0.860654
0.860618
0.860586
0.860558
0.860535
0.860514
0.860497
0.860482
0.860469
0.860459
0.86045
0.860443
0.860437
0.860432
0.860428
0.860424
0.860422
0.860419
0.860418
0.860416
0.860415
0.860414
0.860413
0.860413
0.860412
0.860412
0.860412
0.860411
0.860411
0.860411
0.860411
0.86041
0.86041
0.86041
0.86041
0.86041
0.860409
0.860409
0.860409
0.860409
0.860409
0.860409
0.860409
0.860408
0.860408
0.860408
0.860408
0.860407
0.860407
0.860407
0.860406
0.860406
0.860405
0.860405
0.860404
0.860404
0.860404
0.860403
0.860402
0.860402
0.860402
0.860401
0.860401
0.8604
0.8604
0.860399
0.860399
0.860399
0.860398
0.860398
0.860398
0.860397
0.860397
0.860397
0.860396
0.860396
0.860395
0.860395
0.860395
0.860394
0.860394
0.860393
0.860392
0.860392
0.860391
0.860391
0.86039
0.860389
0.860389
0.860388
0.860388
0.860387
0.860386
0.860386
0.860385
0.860384
0.860384
0.860383
0.860382
0.860382
0.860381
0.86038
0.86038
0.860379
0.860378
0.860378
0.860377
0.860376
0.860375
0.860375
0.860374
0.860373
0.860373
0.860372
0.860371
0.860371
0.86037
0.86037
0.860369
0.860368
0.860368
0.860367
0.860367
0.860367
0.860366
0.860366
0.860365
0.860365
0.860365
0.860365
0.860365
0.860364
0.860364
0.860364
0.860364
0.860364
0.860365
0.860365
0.860365
0.860365
0.860366
0.860366
0.860367
0.860368
0.860368
0.860369
0.86037
0.860371
0.860372
0.860373
0.860375
0.860376
0.860378
0.860379
0.860381
0.860383
0.860385
0.860387
0.860389
0.860391
0.860394
0.860396
0.860399
0.860402
0.860405
0.860408
0.860412
0.860415
0.860419
0.860423
0.860427
0.860431
0.860435
0.86044
0.860444
0.860449
0.860454
0.860459
0.860464
0.860469
0.860475
0.860481
0.860487
0.860491
0.860484
0.860437
0.86026
0.859681
0.857884
0.852501
0.836974
0.79563
0.70589
0.573442
0.448319
0.360559
0.303519
0.264778
0.237292
0.217851
0.20377
0.193243
0.185693
0.180071
0.175623
0.172013
0.169012
0.166465
0.164269
0.162349
0.160651
0.159136
0.157772
0.156535
0.155408
0.154375
0.153424
0.152544
0.151727
0.150966
0.150255
0.149589
0.148964
0.148375
0.147819
0.147294
0.146797
0.146327
0.14588
0.145469
0.145083
0.144711
0.144354
0.144011
0.14368
0.143361
0.143053
0.142755
0.142468
0.14219
0.14192
0.14166
0.141407
0.141161
0.140923
0.140692
0.140468
0.140249
0.140037
0.13983
0.139629
0.139433
0.139242
0.139055
0.138873
0.138696
0.138523
0.138354
0.138189
0.138027
0.13787
0.137715
0.137564
0.137417
0.137272
0.137131
0.136992
0.136856
0.136723
0.136593
0.136465
0.13634
0.136217
0.136096
0.135978
0.135862
0.135748
0.135636
0.135526
0.135418
0.135311
0.135207
0.135104
0.135004
0.134904
0.134807
0.134711
0.134616
0.134523
0.134432
0.134342
0.134254
0.134167
0.134082
0.133997
0.133913
0.133831
0.13375
0.13367
0.133591
0.133513
0.133437
0.133361
0.133286
0.133213
0.13314
0.133069
0.132998
0.132928
0.132859
0.132792
0.132725
0.132658
0.132593
0.132529
0.132465
0.132402
0.13234
0.132279
0.132218
0.132159
0.1321
0.132041
0.131984
0.131927
0.131871
0.131815
0.13176
0.131706
0.131652
0.131599
0.131547
0.131495
0.131444
0.131393
0.131343
0.131294
0.131245
0.131196
0.131148
0.131101
0.131054
0.131008
0.130962
0.130916
0.130871
0.130827
0.130783
0.130739
0.130696
0.130653
0.130611
0.130569
0.130527
0.130486
0.130445
0.130405
0.130365
0.130325
0.130286
0.130247
0.130209
0.130171
0.130133
0.130096
0.130059
0.130022
0.129985
0.129949
0.129914
0.129878
0.129843
0.129808
0.129774
0.129739
0.129705
0.129672
0.129638
0.129605
0.129573
0.12954
0.129508
0.129476
0.129444
0.129412
0.129381
0.12935
0.129319
0.129289
0.129258
0.129228
0.129198
0.129169
0.129139
0.12911
0.129081
0.129052
0.129024
0.128995
0.128967
0.128939
0.128911
0.128883
0.128855
0.128828
0.128801
0.128773
0.128746
0.128719
0.128692
0.128665
0.128638
0.128611
0.128585
0.128559
0.128537
0.128521
)
;

boundaryField
{
    boundary
    {
        type            empty;
    }
    inlet
    {
        type            calculated;
        value           uniform 0.864777;
    }
    outlet
    {
        type            calculated;
        value           uniform 0.128521;
    }
}


// ************************************************************************* //
