/*--------------------------------*- C++ -*----------------------------------*\
  =========                 |
  \\      /  F ield         | OpenFOAM: The Open Source CFD Toolbox
   \\    /   O peration     | Website:  https://openfoam.org
    \\  /    A nd           | Version:  7
     \\/     M anipulation  |
\*---------------------------------------------------------------------------*/
FoamFile
{
    version     2.0;
    format      ascii;
    class       surfaceScalarField;
    location    "0.0003";
    object      phi;
}
// * * * * * * * * * * * * * * * * * * * * * * * * * * * * * * * * * * * * * //

dimensions      [1 0 -1 0 0 0 0];

internalField   nonuniform List<scalar> 
124
(
6.82552e-06
6.82534e-06
6.82515e-06
6.82496e-06
6.82478e-06
6.82459e-06
6.82441e-06
6.82422e-06
6.82404e-06
6.82386e-06
6.82368e-06
6.8235e-06
6.82332e-06
6.82314e-06
6.82296e-06
6.82278e-06
6.8226e-06
6.82243e-06
6.82226e-06
6.82211e-06
6.82203e-06
6.82216e-06
6.82288e-06
6.82538e-06
6.83288e-06
6.85345e-06
6.90016e-06
6.97217e-06
7.04094e-06
7.0888e-06
7.11975e-06
7.14077e-06
7.15575e-06
7.16648e-06
7.17413e-06
7.17959e-06
7.18357e-06
7.18657e-06
7.18893e-06
7.19084e-06
7.19241e-06
7.19373e-06
7.19487e-06
7.19585e-06
7.19671e-06
7.19748e-06
7.19816e-06
7.19877e-06
7.19933e-06
7.19983e-06
7.20029e-06
7.20071e-06
7.2011e-06
7.20146e-06
7.20179e-06
7.2021e-06
7.20239e-06
7.20265e-06
7.2029e-06
7.20313e-06
7.20334e-06
7.20353e-06
7.2037e-06
7.20387e-06
7.20402e-06
7.20416e-06
7.20429e-06
7.2044e-06
7.20451e-06
7.20461e-06
7.2047e-06
7.20478e-06
7.20485e-06
7.20491e-06
7.20496e-06
7.20501e-06
7.20505e-06
7.20509e-06
7.20512e-06
7.20515e-06
7.20517e-06
7.20519e-06
7.20521e-06
7.20523e-06
7.20525e-06
7.20527e-06
7.2053e-06
7.20533e-06
7.20537e-06
7.20542e-06
7.20548e-06
7.20555e-06
7.20564e-06
7.20574e-06
7.20586e-06
7.206e-06
7.20616e-06
7.20635e-06
7.20657e-06
7.20681e-06
7.20709e-06
7.2074e-06
7.20774e-06
7.20812e-06
7.20855e-06
7.20901e-06
7.20951e-06
7.21005e-06
7.21064e-06
7.21127e-06
7.21193e-06
7.21264e-06
7.21338e-06
7.21415e-06
7.21495e-06
7.21577e-06
7.2166e-06
7.21744e-06
7.21827e-06
7.21909e-06
7.21988e-06
7.22063e-06
7.22131e-06
7.22192e-06
)
;

boundaryField
{
    boundary
    {
        type            empty;
        value           nonuniform 0();
    }
    inlet
    {
        type            calculated;
        value           nonuniform 0();
    }
    outlet
    {
        type            calculated;
        value           nonuniform 0();
    }
    procBoundary1to0
    {
        type            processor;
        value           uniform 7.22242e-06;
    }
    procBoundary1to3
    {
        type            processor;
        value           uniform -6.82571e-06;
    }
}


// ************************************************************************* //
