/*--------------------------------*- C++ -*----------------------------------*\
  =========                 |
  \\      /  F ield         | OpenFOAM: The Open Source CFD Toolbox
   \\    /   O peration     | Website:  https://openfoam.org
    \\  /    A nd           | Version:  7
     \\/     M anipulation  |
\*---------------------------------------------------------------------------*/
FoamFile
{
    version     2.0;
    format      ascii;
    class       volScalarField;
    location    "0.0002";
    object      H2;
}
// * * * * * * * * * * * * * * * * * * * * * * * * * * * * * * * * * * * * * //

dimensions      [0 0 0 0 0 0 0];

internalField   nonuniform List<scalar> 
500
(
0.0285116
0.0285116
0.0285116
0.0285116
0.0285116
0.0285116
0.0285116
0.0285116
0.0285116
0.0285116
0.0285116
0.0285116
0.0285116
0.0285116
0.0285116
0.0285116
0.0285116
0.0285116
0.0285116
0.0285116
0.0285116
0.0285116
0.0285116
0.0285116
0.0285116
0.0285116
0.0285116
0.0285116
0.0285116
0.0285116
0.0285116
0.0285116
0.0285116
0.0285116
0.0285116
0.0285116
0.0285116
0.0285116
0.0285116
0.0285116
0.0285116
0.0285116
0.0285116
0.0285116
0.0285116
0.0285116
0.0285116
0.0285116
0.0285116
0.0285116
0.0285116
0.0285116
0.0285116
0.0285116
0.0285116
0.0285116
0.0285116
0.0285116
0.0285116
0.0285116
0.0285116
0.0285116
0.0285116
0.0285116
0.0285116
0.0285116
0.0285116
0.0285116
0.0285116
0.0285116
0.0285116
0.0285116
0.0285116
0.0285116
0.0285116
0.0285116
0.0285116
0.0285116
0.0285116
0.0285116
0.0285116
0.0285116
0.0285116
0.0285116
0.0285116
0.0285116
0.0285116
0.0285116
0.0285116
0.0285116
0.0285116
0.0285116
0.0285116
0.0285116
0.0285116
0.0285116
0.0285116
0.0285116
0.0285116
0.0285116
0.0285116
0.0285116
0.0285116
0.0285116
0.0285116
0.0285116
0.0285116
0.0285116
0.0285116
0.0285116
0.0285116
0.0285116
0.0285116
0.0285116
0.0285116
0.0285116
0.0285116
0.0285116
0.0285116
0.0285116
0.0285116
0.0285116
0.0285116
0.0285116
0.0285116
0.0285116
0.0285116
0.0285116
0.0285116
0.0285116
0.0285116
0.0285116
0.0285116
0.0285116
0.0285116
0.0285116
0.0285116
0.0285116
0.0285116
0.0285116
0.0285116
0.0285116
0.0285116
0.0285116
0.0285116
0.0285116
0.0285116
0.0285116
0.0285116
0.0285116
0.0285116
0.0285116
0.0285116
0.0285116
0.0285116
0.0285116
0.0285116
0.0285116
0.0285116
0.0285116
0.0285116
0.0285116
0.0285116
0.0285116
0.0285116
0.0285116
0.0285116
0.0285116
0.0285116
0.0285116
0.0285116
0.0285116
0.0285116
0.0285116
0.0285116
0.0285116
0.0285116
0.0285116
0.0285116
0.0285116
0.0285116
0.0285116
0.0285116
0.0285116
0.0285116
0.0285116
0.0285116
0.0285116
0.0285116
0.0285116
0.0285116
0.0285116
0.0285116
0.0285116
0.0285116
0.0285116
0.0285116
0.0285116
0.0285116
0.0285116
0.0285116
0.0285116
0.0285116
0.0285116
0.0285116
0.0285116
0.0285116
0.0285116
0.0285116
0.0285116
0.0285116
0.0285116
0.0285116
0.0285116
0.0285116
0.0285116
0.0285116
0.0285116
0.0285116
0.0285116
0.0285116
0.0285116
0.0285116
0.0285116
0.0285116
0.0285116
0.0285116
0.0285116
0.0285116
0.0285116
0.0285116
0.0285116
0.0285116
0.0285116
0.0285116
0.0285116
0.0285116
0.0285116
0.0285116
0.0285116
0.0285116
0.0285116
0.0285116
0.0285116
0.0285116
0.0285116
0.0285116
0.0285116
0.0285116
0.0285116
0.0285116
0.0285116
0.0285116
0.0285116
0.0285116
0.0285116
0.0285116
0.0285116
0.0285116
0.0285116
0.0285116
0.0285116
0.0285116
0.0285116
0.0285116
0.0285115
0.0285114
0.0285112
0.0285108
0.0285098
0.0285076
0.028503
0.0284931
0.0284722
0.0284279
0.0283351
0.0281431
0.0277563
0.0270213
0.025762
0.0238841
0.0215015
0.0187694
0.015772
0.0127133
0.00995891
0.00780265
0.00624403
0.00525616
0.00463604
0.00425337
0.00401724
0.00386922
0.0037733
0.00370789
0.00366022
0.00362282
0.00359136
0.00356336
0.00353742
0.00351274
0.0034889
0.00346567
0.00344294
0.00342066
0.00339883
0.00337743
0.0033565
0.00333604
0.00331607
0.00329661
0.00327769
0.00325987
0.00324298
0.00322657
0.00321064
0.0031952
0.00318027
0.00316586
0.00315197
0.00313863
0.00312582
0.00311358
0.00310189
0.00309077
0.00308022
0.00307025
0.00306085
0.00305203
0.00304378
0.0030361
0.00302898
0.00302242
0.0030164
0.00301092
0.00300595
0.00300148
0.00299748
0.00299393
0.0029908
0.00298806
0.00298567
0.00298359
0.00298178
0.00298019
0.00297876
0.00297746
0.0029762
0.00297495
0.00297363
0.00297217
0.0029705
0.00296857
0.00296628
0.00296358
0.00296038
0.00295661
0.00295221
0.0029471
0.0029412
0.00293446
0.00292682
0.00291821
0.00290857
0.00289786
0.00288604
0.00287306
0.00285889
0.00284351
0.00282689
0.00280903
0.00278992
0.00276957
0.00274799
0.00272522
0.00270135
0.00267548
0.00264922
0.00262174
0.00259315
0.00256353
0.00253294
0.00250145
0.00246912
0.00243604
0.00240226
0.00236788
0.00233296
0.00229761
0.00226189
0.00222591
0.00218974
0.00215349
0.00211723
0.00208107
0.00204508
0.00200936
0.00197399
0.00193905
0.00190462
0.00187077
0.00183757
0.00180509
0.00177339
0.00174252
0.00171254
0.00168347
0.00165538
0.00162827
0.00160219
0.00157715
0.00155317
0.00153025
0.0015084
0.00148761
0.00146789
0.00144922
0.00143158
0.00141495
0.00139932
0.00138466
0.00137094
0.00135812
0.00134619
0.00133509
0.0013248
0.00131528
0.00130649
0.00129839
0.00129095
0.00128414
0.0012779
0.00127221
0.00126702
0.00126231
0.00125805
0.00125419
0.00125071
0.00124758
0.00124477
0.00124225
0.00124
0.00123799
0.00123621
0.00123462
0.00123322
0.00123198
0.00123089
0.00122994
0.0012291
0.00122836
0.00122772
0.00122717
0.00122668
0.00122627
0.00122591
0.0012256
0.00122533
0.00122511
0.00122491
0.00122475
0.00122461
0.00122449
0.0012244
0.00122431
0.00122425
0.00122419
0.00122414
0.00122411
0.00122407
0.00122405
0.00122403
0.00122402
0.00122401
0.001224
0.00122399
0.00122399
0.00122399
0.00122398
0.00122398
0.00122399
0.00122399
0.00122399
0.00122399
0.001224
0.001224
0.001224
0.00122401
0.00122401
0.00122402
0.00122402
0.00122403
0.00122403
0.00122403
0.00122404
0.00122404
0.00122404
0.00122405
0.00122405
0.00122405
)
;

boundaryField
{
    boundary
    {
        type            empty;
    }
    inlet
    {
        type            fixedValue;
        value           uniform 0.0285116;
    }
    outlet
    {
        type            zeroGradient;
    }
}


// ************************************************************************* //
