/*--------------------------------*- C++ -*----------------------------------*\
  =========                 |
  \\      /  F ield         | OpenFOAM: The Open Source CFD Toolbox
   \\    /   O peration     | Website:  https://openfoam.org
    \\  /    A nd           | Version:  7
     \\/     M anipulation  |
\*---------------------------------------------------------------------------*/
FoamFile
{
    version     2.0;
    format      ascii;
    class       volScalarField;
    location    "0.0002";
    object      H2O2;
}
// * * * * * * * * * * * * * * * * * * * * * * * * * * * * * * * * * * * * * //

dimensions      [0 0 0 0 0 0 0];

internalField   nonuniform List<scalar> 
500
(
2.02858e-52
6.56676e-52
1.31699e-51
2.19166e-51
3.28837e-51
4.61262e-51
6.16503e-51
7.93803e-51
9.91249e-51
1.20553e-50
1.43185e-50
1.66413e-50
1.89546e-50
2.11875e-50
2.32746e-50
2.51627e-50
2.68157e-50
2.82162e-50
2.93651e-50
3.0278e-50
3.09812e-50
3.15067e-50
3.1888e-50
3.21568e-50
3.23413e-50
3.24644e-50
3.25445e-50
3.25954e-50
3.26268e-50
3.26459e-50
3.26571e-50
3.26636e-50
3.26672e-50
3.26692e-50
3.26703e-50
3.26708e-50
3.26711e-50
3.26712e-50
3.26713e-50
3.26713e-50
3.26713e-50
3.26712e-50
3.26712e-50
3.26712e-50
3.26712e-50
3.26712e-50
3.26712e-50
3.26712e-50
3.26712e-50
3.26713e-50
3.26713e-50
3.26713e-50
3.26714e-50
3.26715e-50
3.26716e-50
3.26717e-50
3.26718e-50
3.26719e-50
3.26721e-50
3.26723e-50
3.26725e-50
3.26727e-50
3.26729e-50
3.26731e-50
3.26734e-50
3.26737e-50
3.2674e-50
3.26744e-50
3.26747e-50
3.26751e-50
3.26756e-50
3.2676e-50
3.26765e-50
3.2677e-50
3.26775e-50
3.26781e-50
3.26787e-50
3.26793e-50
3.268e-50
3.26807e-50
3.26815e-50
3.26822e-50
3.26831e-50
3.26839e-50
3.26848e-50
3.26857e-50
3.26867e-50
3.26877e-50
3.26888e-50
3.26899e-50
3.2691e-50
3.26922e-50
3.26935e-50
3.26948e-50
3.26961e-50
3.26975e-50
3.26989e-50
3.27003e-50
3.27019e-50
3.27034e-50
3.2705e-50
3.27067e-50
3.27084e-50
3.27102e-50
3.2712e-50
3.27138e-50
3.27157e-50
3.27177e-50
3.27197e-50
3.27217e-50
3.27238e-50
3.2726e-50
3.27282e-50
3.27304e-50
3.27327e-50
3.2735e-50
3.27374e-50
3.27398e-50
3.27423e-50
3.27447e-50
3.27468e-50
3.27483e-50
3.27476e-50
3.27411e-50
3.27202e-50
3.2679e-50
3.26453e-50
3.26082e-50
3.25661e-50
3.25213e-50
3.24786e-50
3.24433e-50
3.24202e-50
3.2412e-50
3.24197e-50
3.2442e-50
3.24759e-50
3.25178e-50
3.25635e-50
3.26093e-50
3.26525e-50
3.26909e-50
3.27236e-50
3.27505e-50
3.27719e-50
3.27884e-50
3.2801e-50
3.28106e-50
3.28178e-50
3.28233e-50
3.28276e-50
3.28311e-50
3.2834e-50
3.28366e-50
3.28388e-50
3.28408e-50
3.28427e-50
3.28443e-50
3.28458e-50
3.28471e-50
3.28482e-50
3.28492e-50
3.28499e-50
3.28505e-50
3.28508e-50
3.28509e-50
3.28507e-50
3.28503e-50
3.28496e-50
3.28486e-50
3.28474e-50
3.28458e-50
3.28439e-50
3.28416e-50
3.2839e-50
3.2836e-50
3.28327e-50
3.28289e-50
3.28247e-50
3.28201e-50
3.2815e-50
3.28094e-50
3.28034e-50
3.27969e-50
3.27898e-50
3.27822e-50
3.27741e-50
3.27654e-50
3.27561e-50
3.27462e-50
3.27358e-50
3.27246e-50
3.27129e-50
3.27004e-50
3.26873e-50
3.26736e-50
3.26591e-50
3.26439e-50
3.2628e-50
3.26113e-50
3.25939e-50
3.25758e-50
3.25569e-50
3.25372e-50
3.25167e-50
3.24955e-50
3.24734e-50
3.24506e-50
3.2427e-50
3.24025e-50
3.23773e-50
3.23513e-50
3.23245e-50
3.22969e-50
3.22685e-50
3.22394e-50
3.22095e-50
3.21788e-50
3.21475e-50
3.21166e-50
3.2098e-50
3.22247e-50
3.39643e-50
5.3341e-50
2.63245e-49
2.5065e-48
2.61827e-47
2.72931e-46
2.81154e-45
2.85883e-44
2.86843e-43
2.8393e-42
2.77202e-41
2.66874e-40
2.53308e-39
2.36989e-38
2.18495e-37
1.98463e-36
1.77549e-35
1.56393e-34
1.35591e-33
1.15661e-32
9.70304e-32
8.00234e-31
6.48544e-30
5.16322e-29
4.03677e-28
3.0987e-27
2.33483e-26
1.72633e-25
1.25186e-24
8.90994e-24
6.2009e-23
4.22216e-22
2.81112e-21
1.82902e-20
1.16222e-19
7.20809e-19
4.36074e-18
2.57198e-17
1.47818e-16
8.27503e-16
4.51106e-15
2.39453e-14
1.23787e-13
6.23534e-13
3.06322e-12
1.46974e-11
6.9005e-11
3.17803e-10
1.43974e-09
6.43464e-09
2.84448e-08
1.24577e-07
5.40171e-07
2.30188e-06
9.36799e-06
3.32231e-05
8.23205e-05
0.000119162
0.000117946
7.32377e-05
3.27326e-05
1.30624e-05
6.20296e-06
4.50938e-06
4.59098e-06
5.2161e-06
5.8301e-06
6.30107e-06
6.59893e-06
6.74519e-06
6.77491e-06
6.72124e-06
6.61084e-06
6.46354e-06
6.29342e-06
6.11054e-06
5.92174e-06
5.73172e-06
5.54364e-06
5.3596e-06
5.18098e-06
5.0086e-06
4.84294e-06
4.68422e-06
4.53248e-06
4.38765e-06
4.24956e-06
4.11802e-06
3.9928e-06
3.87374e-06
3.76403e-06
3.6609e-06
3.56196e-06
3.46702e-06
3.37586e-06
3.28828e-06
3.20408e-06
3.1231e-06
3.04515e-06
2.97006e-06
2.89767e-06
2.82783e-06
2.76038e-06
2.69518e-06
2.63208e-06
2.57096e-06
2.51168e-06
2.45411e-06
2.39813e-06
2.34363e-06
2.29049e-06
2.2386e-06
2.18785e-06
2.13814e-06
2.08938e-06
2.04146e-06
1.99431e-06
1.94784e-06
1.90196e-06
1.85662e-06
1.81175e-06
1.76729e-06
1.72319e-06
1.6794e-06
1.63591e-06
1.59267e-06
1.54968e-06
1.50693e-06
1.46443e-06
1.42217e-06
1.38019e-06
1.33852e-06
1.29717e-06
1.25621e-06
1.21567e-06
1.17561e-06
1.13608e-06
1.09715e-06
1.05887e-06
1.0213e-06
9.84498e-07
9.48523e-07
9.13428e-07
8.79259e-07
8.46061e-07
8.13871e-07
7.8272e-07
7.52633e-07
7.23626e-07
6.95709e-07
6.68883e-07
6.4314e-07
6.1847e-07
5.94883e-07
5.72413e-07
5.51016e-07
5.30652e-07
5.11286e-07
4.92884e-07
4.75413e-07
4.58842e-07
4.43136e-07
4.2826e-07
4.14179e-07
4.00859e-07
3.88263e-07
3.76357e-07
3.65107e-07
3.5448e-07
3.44442e-07
3.34963e-07
3.26012e-07
3.17561e-07
3.09581e-07
3.02046e-07
2.94932e-07
2.88216e-07
2.81874e-07
2.75887e-07
2.70235e-07
2.649e-07
2.59866e-07
2.55116e-07
2.50635e-07
2.4641e-07
2.42429e-07
2.38678e-07
2.35147e-07
2.31825e-07
2.28703e-07
2.2577e-07
2.23018e-07
2.20438e-07
2.18023e-07
2.15764e-07
2.13654e-07
2.11686e-07
2.09853e-07
2.08147e-07
2.06564e-07
2.05095e-07
2.03736e-07
2.0248e-07
2.01321e-07
2.00254e-07
1.99274e-07
1.98374e-07
1.9755e-07
1.96797e-07
1.9611e-07
1.95484e-07
1.94916e-07
1.944e-07
1.93934e-07
1.93513e-07
1.93134e-07
1.92792e-07
1.92486e-07
1.92212e-07
1.91966e-07
1.91748e-07
1.91553e-07
1.91381e-07
1.91227e-07
1.91092e-07
1.90972e-07
1.90867e-07
1.90774e-07
1.90692e-07
1.90621e-07
1.90559e-07
1.90504e-07
1.90457e-07
1.90415e-07
1.90379e-07
1.90348e-07
1.90321e-07
1.90297e-07
1.90276e-07
1.90259e-07
1.90243e-07
1.90229e-07
1.90218e-07
1.90207e-07
1.90198e-07
1.9019e-07
1.90183e-07
1.90177e-07
1.90171e-07
1.90166e-07
1.90161e-07
1.90157e-07
1.90153e-07
1.9015e-07
1.90146e-07
1.90143e-07
1.9014e-07
1.90137e-07
1.90135e-07
1.90132e-07
1.90129e-07
1.90127e-07
1.90125e-07
1.90122e-07
1.9012e-07
1.90118e-07
1.90116e-07
1.90114e-07
1.90111e-07
1.90109e-07
1.90107e-07
1.90105e-07
1.90103e-07
1.90101e-07
1.90099e-07
1.90098e-07
1.90096e-07
1.90095e-07
)
;

boundaryField
{
    boundary
    {
        type            empty;
    }
    inlet
    {
        type            fixedValue;
        value           uniform 0;
    }
    outlet
    {
        type            zeroGradient;
    }
}


// ************************************************************************* //
