/*--------------------------------*- C++ -*----------------------------------*\
  =========                 |
  \\      /  F ield         | OpenFOAM: The Open Source CFD Toolbox
   \\    /   O peration     | Website:  https://openfoam.org
    \\  /    A nd           | Version:  7
     \\/     M anipulation  |
\*---------------------------------------------------------------------------*/
FoamFile
{
    version     2.0;
    format      ascii;
    class       volScalarField;
    location    "0.0002";
    object      N2;
}
// * * * * * * * * * * * * * * * * * * * * * * * * * * * * * * * * * * * * * //

dimensions      [0 0 0 0 0 0 0];

internalField   nonuniform List<scalar> 
500
(
0.745219
0.745219
0.745219
0.745219
0.745219
0.745219
0.745219
0.745219
0.745219
0.745219
0.745219
0.745219
0.745219
0.74522
0.74522
0.74522
0.74522
0.74522
0.74522
0.74522
0.74522
0.74522
0.74522
0.74522
0.74522
0.74522
0.74522
0.74522
0.74522
0.74522
0.74522
0.74522
0.74522
0.74522
0.74522
0.74522
0.74522
0.74522
0.74522
0.74522
0.74522
0.74522
0.74522
0.74522
0.74522
0.74522
0.74522
0.74522
0.74522
0.74522
0.74522
0.74522
0.74522
0.74522
0.74522
0.74522
0.74522
0.74522
0.74522
0.74522
0.74522
0.74522
0.74522
0.74522
0.74522
0.74522
0.74522
0.74522
0.74522
0.74522
0.74522
0.74522
0.74522
0.74522
0.74522
0.74522
0.74522
0.74522
0.74522
0.74522
0.74522
0.74522
0.74522
0.74522
0.74522
0.74522
0.74522
0.74522
0.74522
0.74522
0.74522
0.74522
0.74522
0.74522
0.74522
0.74522
0.74522
0.74522
0.74522
0.74522
0.74522
0.74522
0.74522
0.74522
0.74522
0.74522
0.74522
0.74522
0.74522
0.74522
0.74522
0.74522
0.74522
0.74522
0.74522
0.74522
0.74522
0.74522
0.74522
0.74522
0.74522
0.74522
0.74522
0.74522
0.74522
0.74522
0.74522
0.74522
0.74522
0.74522
0.74522
0.74522
0.74522
0.74522
0.74522
0.74522
0.74522
0.74522
0.74522
0.74522
0.74522
0.74522
0.74522
0.74522
0.74522
0.74522
0.74522
0.74522
0.74522
0.74522
0.74522
0.74522
0.74522
0.74522
0.74522
0.74522
0.74522
0.74522
0.74522
0.74522
0.74522
0.74522
0.74522
0.74522
0.74522
0.74522
0.74522
0.74522
0.74522
0.74522
0.74522
0.74522
0.74522
0.74522
0.74522
0.74522
0.74522
0.74522
0.74522
0.74522
0.74522
0.74522
0.74522
0.74522
0.74522
0.74522
0.74522
0.74522
0.74522
0.74522
0.74522
0.74522
0.74522
0.74522
0.74522
0.74522
0.74522
0.74522
0.74522
0.74522
0.74522
0.74522
0.74522
0.74522
0.74522
0.74522
0.74522
0.74522
0.74522
0.74522
0.74522
0.74522
0.74522
0.74522
0.74522
0.74522
0.74522
0.74522
0.74522
0.74522
0.74522
0.74522
0.74522
0.74522
0.74522
0.74522
0.74522
0.74522
0.74522
0.74522
0.74522
0.74522
0.74522
0.74522
0.74522
0.74522
0.74522
0.74522
0.74522
0.74522
0.74522
0.74522
0.74522
0.74522
0.74522
0.74522
0.74522
0.74522
0.74522
0.74522
0.74522
0.74522
0.74522
0.74522
0.74522
0.74522
0.74522
0.74522
0.74522
0.74522
0.74522
0.74522
0.74522
0.74522
0.74522
0.74522
0.74522
0.74522
0.74522
0.745221
0.745222
0.745226
0.745233
0.745248
0.745277
0.745333
0.745431
0.745559
0.745626
0.745479
0.745136
0.744654
0.744084
0.743666
0.743622
0.743893
0.74421
0.744656
0.744901
0.745068
0.745173
0.745235
0.74527
0.745288
0.745296
0.745298
0.745296
0.745293
0.745289
0.745284
0.745279
0.745274
0.745268
0.745263
0.745257
0.74525
0.745244
0.745237
0.745229
0.745222
0.745214
0.745206
0.745199
0.745191
0.745183
0.745176
0.745169
0.745162
0.745155
0.745149
0.745143
0.745138
0.745134
0.74513
0.745128
0.745126
0.745126
0.745127
0.745129
0.745133
0.745139
0.745146
0.745155
0.745166
0.74518
0.745195
0.745212
0.745232
0.745253
0.745276
0.745302
0.745329
0.745358
0.745389
0.745421
0.745454
0.745488
0.745523
0.745558
0.745593
0.745627
0.745661
0.745694
0.745726
0.745756
0.745784
0.745809
0.745832
0.745852
0.745868
0.745881
0.745891
0.745896
0.745897
0.745895
0.745888
0.745877
0.745862
0.745843
0.74582
0.745794
0.745765
0.745732
0.745695
0.745656
0.745611
0.745574
0.745533
0.745492
0.745449
0.745406
0.745363
0.745319
0.745277
0.745236
0.745195
0.745157
0.74512
0.745085
0.745053
0.745022
0.744994
0.744969
0.744946
0.744926
0.744909
0.744894
0.744882
0.744872
0.744866
0.744861
0.744859
0.744859
0.744861
0.744865
0.744871
0.744878
0.744887
0.744896
0.744907
0.744919
0.744931
0.744944
0.744958
0.744971
0.744985
0.744999
0.745013
0.745026
0.745039
0.745052
0.745064
0.745076
0.745088
0.745099
0.745109
0.745119
0.745128
0.745136
0.745144
0.745152
0.745159
0.745165
0.745171
0.745176
0.745181
0.745185
0.745189
0.745192
0.745196
0.745199
0.745201
0.745203
0.745205
0.745207
0.745209
0.74521
0.745211
0.745213
0.745214
0.745214
0.745215
0.745216
0.745216
0.745217
0.745217
0.745218
0.745218
0.745218
0.745218
0.745219
0.745219
0.745219
0.745219
0.745219
0.745219
0.745219
0.745219
0.745219
0.745219
0.745219
0.745219
0.745219
0.745219
0.745219
0.745219
0.745219
0.745219
0.745219
0.745219
0.745219
0.745219
0.74522
0.74522
0.74522
0.74522
0.74522
0.74522
0.74522
0.74522
0.74522
0.74522
0.74522
0.74522
0.74522
0.74522
0.74522
0.74522
0.74522
0.74522
)
;

boundaryField
{
    boundary
    {
        type            empty;
    }
    inlet
    {
        type            fixedValue;
        value           uniform 0.74522;
    }
    outlet
    {
        type            zeroGradient;
    }
}


// ************************************************************************* //
