/*--------------------------------*- C++ -*----------------------------------*\
  =========                 |
  \\      /  F ield         | OpenFOAM: The Open Source CFD Toolbox
   \\    /   O peration     | Website:  https://openfoam.org
    \\  /    A nd           | Version:  7
     \\/     M anipulation  |
\*---------------------------------------------------------------------------*/
FoamFile
{
    version     2.0;
    format      ascii;
    class       volScalarField;
    location    "0.0002";
    object      T;
}
// * * * * * * * * * * * * * * * * * * * * * * * * * * * * * * * * * * * * * //

dimensions      [0 0 0 1 0 0 0];

internalField   nonuniform List<scalar> 
500
(
300.008
300.022
300.042
300.072
300.111
300.161
300.222
300.294
300.377
300.469
300.569
300.674
300.78
300.884
300.983
301.075
301.156
301.226
301.285
301.333
301.371
301.4
301.422
301.437
301.449
301.456
301.462
301.465
301.467
301.469
301.47
301.47
301.47
301.471
301.471
301.471
301.471
301.471
301.471
301.471
301.471
301.471
301.471
301.471
301.471
301.471
301.471
301.471
301.471
301.471
301.471
301.471
301.471
301.471
301.471
301.471
301.471
301.471
301.472
301.472
301.472
301.472
301.472
301.472
301.472
301.472
301.472
301.472
301.472
301.472
301.472
301.472
301.472
301.472
301.472
301.473
301.473
301.473
301.473
301.473
301.473
301.473
301.473
301.473
301.473
301.474
301.474
301.474
301.474
301.474
301.474
301.474
301.474
301.475
301.475
301.475
301.475
301.475
301.475
301.475
301.476
301.476
301.476
301.476
301.476
301.477
301.477
301.477
301.477
301.477
301.478
301.478
301.478
301.478
301.478
301.479
301.479
301.479
301.479
301.48
301.48
301.48
301.48
301.481
301.481
301.481
301.481
301.481
301.482
301.482
301.482
301.482
301.483
301.483
301.483
301.483
301.484
301.484
301.484
301.484
301.485
301.485
301.485
301.486
301.486
301.486
301.487
301.487
301.487
301.487
301.488
301.488
301.488
301.488
301.488
301.489
301.489
301.489
301.489
301.489
301.489
301.49
301.49
301.49
301.49
301.49
301.49
301.49
301.49
301.49
301.49
301.49
301.49
301.49
301.489
301.489
301.489
301.489
301.488
301.488
301.488
301.487
301.487
301.487
301.486
301.486
301.485
301.484
301.484
301.483
301.482
301.482
301.481
301.48
301.479
301.478
301.477
301.476
301.475
301.473
301.472
301.471
301.469
301.468
301.467
301.465
301.463
301.462
301.46
301.458
301.456
301.455
301.453
301.451
301.448
301.446
301.444
301.442
301.44
301.437
301.435
301.432
301.43
301.427
301.425
301.422
301.419
301.417
301.414
301.411
301.408
301.405
301.402
301.399
301.396
301.393
301.39
301.387
301.384
301.381
301.377
301.374
301.371
301.368
301.365
301.361
301.358
301.355
301.351
301.348
301.345
301.341
301.338
301.334
301.331
301.327
301.324
301.32
301.317
301.313
301.309
301.306
301.302
301.298
301.294
301.291
301.287
301.283
301.28
301.279
301.284
301.307
301.384
301.619
302.312
304.329
310.15
326.532
368.743
456.723
591.344
746.258
899.139
1043.42
1175.9
1290.8
1387.16
1467.2
1531.1
1583.03
1626.77
1664.24
1696.85
1725.64
1751.34
1774.51
1795.56
1814.82
1832.53
1848.9
1864.1
1878.26
1891.5
1903.92
1915.58
1926.57
1936.95
1946.75
1956.04
1964.84
1973.19
1981.1
1988.41
1995.24
2001.81
2008.12
2014.17
2019.97
2025.55
2030.91
2036.06
2041
2045.76
2050.32
2054.71
2058.92
2062.98
2066.87
2070.62
2074.23
2077.71
2081.07
2084.31
2087.45
2090.51
2093.48
2096.39
2099.25
2102.07
2104.86
2107.65
2110.45
2113.28
2116.15
2119.08
2122.09
2125.2
2128.42
2131.77
2135.27
2138.94
2142.78
2146.81
2151.04
2155.48
2160.13
2165.01
2170.1
2175.42
2180.97
2186.72
2192.68
2198.84
2205.17
2211.68
2218.33
2225.11
2231.99
2238.96
2245.99
2253.05
2260.11
2267.16
2274.17
2281.13
2287.98
2294.68
2301.22
2307.6
2313.79
2319.78
2325.55
2331.08
2336.37
2341.41
2346.18
2350.68
2354.92
2358.88
2362.57
2366
2369.17
2372.08
2374.75
2377.18
2379.39
2381.38
2383.17
2384.77
2386.2
2387.46
2388.57
2389.55
2390.39
2391.12
2391.75
2392.29
2392.75
2393.13
2393.45
2393.71
2393.93
2394.11
2394.24
2394.35
2394.44
2394.5
2394.55
2394.58
2394.61
2394.62
2394.63
2394.63
2394.63
2394.63
2394.62
2394.61
2394.61
2394.6
2394.6
2394.6
2394.59
2394.59
2394.59
2394.59
2394.59
2394.6
2394.6
2394.6
2394.61
2394.62
2394.62
2394.63
2394.64
2394.65
2394.65
2394.66
2394.67
2394.68
2394.69
2394.7
2394.71
2394.72
2394.73
2394.73
2394.74
2394.75
2394.76
2394.77
2394.78
2394.79
2394.8
2394.81
2394.82
2394.82
2394.83
2394.84
2394.85
2394.86
2394.87
2394.88
2394.88
2394.89
2394.9
2394.91
2394.92
2394.92
2394.93
2394.94
2394.95
2394.95
2394.96
2394.97
2394.98
2394.98
2394.99
2395
2395
2395.01
2395.02
2395.02
2395.03
2395.04
2395.04
2395.05
2395.05
2395.06
2395.06
2395.07
2395.07
)
;

boundaryField
{
    boundary
    {
        type            empty;
    }
    inlet
    {
        type            fixedValue;
        value           uniform 300;
    }
    outlet
    {
        type            zeroGradient;
    }
}


// ************************************************************************* //
