/*--------------------------------*- C++ -*----------------------------------*\
  =========                 |
  \\      /  F ield         | OpenFOAM: The Open Source CFD Toolbox
   \\    /   O peration     | Website:  https://openfoam.org
    \\  /    A nd           | Version:  7
     \\/     M anipulation  |
\*---------------------------------------------------------------------------*/
FoamFile
{
    version     2.0;
    format      ascii;
    class       volScalarField;
    location    "0.00036";
    object      T;
}
// * * * * * * * * * * * * * * * * * * * * * * * * * * * * * * * * * * * * * //

dimensions      [0 0 0 1 0 0 0];

internalField   nonuniform List<scalar> 
125
(
301.442
301.439
301.436
301.432
301.429
301.426
301.423
301.419
301.416
301.413
301.409
301.406
301.402
301.399
301.396
301.392
301.39
301.39
301.395
301.416
301.484
301.685
302.263
303.92
308.653
321.972
357.056
434.137
560.228
713.069
867.123
1013.28
1148.54
1267.68
1365.56
1448.11
1518.48
1574.64
1619.59
1658.15
1691.61
1721.06
1747.3
1770.91
1792.32
1811.88
1829.86
1846.47
1861.88
1876.23
1889.65
1902.23
1914.06
1925.22
1935.77
1945.75
1955.23
1964.24
1972.81
1980.98
1988.76
1995.99
2002.78
2009.34
2015.68
2021.81
2027.73
2033.47
2039.03
2044.42
2049.64
2054.72
2059.65
2064.44
2069.1
2073.64
2078.05
2082.35
2086.54
2090.63
2094.62
2098.51
2102.31
2106.03
2109.65
2113.2
2116.67
2120.06
2123.38
2126.63
2129.82
2132.94
2135.99
2138.99
2141.93
2144.8
2147.63
2150.4
2153.12
2155.78
2158.4
2160.97
2163.49
2165.96
2168.39
2170.77
2173.11
2175.4
2177.65
2179.86
2182.02
2184.14
2186.22
2188.26
2190.25
2192.2
2194.11
2195.98
2197.8
2199.58
2201.32
2203.02
2204.69
2206.32
2207.93
)
;

boundaryField
{
    boundary
    {
        type            empty;
    }
    inlet
    {
        type            fixedValue;
        value           nonuniform 0();
    }
    outlet
    {
        type            zeroGradient;
    }
    procBoundary1to0
    {
        type            processor;
        value           uniform 2209.49;
    }
    procBoundary1to3
    {
        type            processor;
        value           uniform 301.445;
    }
}


// ************************************************************************* //
