/*--------------------------------*- C++ -*----------------------------------*\
  =========                 |
  \\      /  F ield         | OpenFOAM: The Open Source CFD Toolbox
   \\    /   O peration     | Website:  https://openfoam.org
    \\  /    A nd           | Version:  7
     \\/     M anipulation  |
\*---------------------------------------------------------------------------*/
FoamFile
{
    version     2.0;
    format      ascii;
    class       volScalarField;
    location    "0.00091";
    object      HO2;
}
// * * * * * * * * * * * * * * * * * * * * * * * * * * * * * * * * * * * * * //

dimensions      [0 0 0 0 0 0 0];

internalField   nonuniform List<scalar> 
124
(
2.78268e-06
2.76715e-06
2.75194e-06
2.73706e-06
2.7225e-06
2.70824e-06
2.69428e-06
2.6806e-06
2.66721e-06
2.65408e-06
2.64122e-06
2.62862e-06
2.61627e-06
2.60415e-06
2.59227e-06
2.58062e-06
2.56919e-06
2.55797e-06
2.54696e-06
2.53615e-06
2.52554e-06
2.51511e-06
2.50487e-06
2.49481e-06
2.48492e-06
2.47521e-06
2.46565e-06
2.45626e-06
2.44703e-06
2.43794e-06
2.429e-06
2.42021e-06
2.41156e-06
2.40305e-06
2.39467e-06
2.38642e-06
2.3783e-06
2.37031e-06
2.36244e-06
2.35469e-06
2.34706e-06
2.33955e-06
2.33215e-06
2.32486e-06
2.31768e-06
2.31061e-06
2.30365e-06
2.29678e-06
2.29003e-06
2.28337e-06
2.27681e-06
2.27034e-06
2.26398e-06
2.2577e-06
2.25152e-06
2.24542e-06
2.23942e-06
2.2335e-06
2.22767e-06
2.22192e-06
2.21625e-06
2.21067e-06
2.20516e-06
2.19973e-06
2.19437e-06
2.1891e-06
2.18389e-06
2.17876e-06
2.1737e-06
2.1687e-06
2.16378e-06
2.15893e-06
2.15414e-06
2.14941e-06
2.14475e-06
2.14015e-06
2.13561e-06
2.13114e-06
2.12672e-06
2.12237e-06
2.11807e-06
2.11383e-06
2.10964e-06
2.10551e-06
2.10144e-06
2.09741e-06
2.09344e-06
2.08952e-06
2.08566e-06
2.08184e-06
2.07807e-06
2.07434e-06
2.07066e-06
2.06703e-06
2.06344e-06
2.05989e-06
2.05639e-06
2.05292e-06
2.04949e-06
2.0461e-06
2.04275e-06
2.03943e-06
2.03614e-06
2.03288e-06
2.02964e-06
2.02644e-06
2.02326e-06
2.0201e-06
2.01696e-06
2.01384e-06
2.01073e-06
2.00764e-06
2.00456e-06
2.00149e-06
1.99843e-06
1.99538e-06
1.99233e-06
1.9893e-06
1.98628e-06
1.98331e-06
1.98041e-06
1.97766e-06
1.97525e-06
1.97353e-06
)
;

boundaryField
{
    boundary
    {
        type            empty;
    }
    inlet
    {
        type            fixedValue;
        value           nonuniform 0();
    }
    outlet
    {
        type            zeroGradient;
    }
    procBoundary0to1
    {
        type            processor;
        value           uniform 2.79848e-06;
    }
}


// ************************************************************************* //
