/*--------------------------------*- C++ -*----------------------------------*\
  =========                 |
  \\      /  F ield         | OpenFOAM: The Open Source CFD Toolbox
   \\    /   O peration     | Website:  https://openfoam.org
    \\  /    A nd           | Version:  7
     \\/     M anipulation  |
\*---------------------------------------------------------------------------*/
FoamFile
{
    version     2.0;
    format      ascii;
    class       volScalarField;
    location    "0.00091";
    object      T;
}
// * * * * * * * * * * * * * * * * * * * * * * * * * * * * * * * * * * * * * //

dimensions      [0 0 0 1 0 0 0];

internalField   nonuniform List<scalar> 
124
(
2214.55
2216.24
2217.9
2219.55
2221.17
2222.78
2224.36
2225.93
2227.47
2229
2230.51
2231.99
2233.46
2234.92
2236.35
2237.77
2239.17
2240.56
2241.93
2243.28
2244.62
2245.94
2247.25
2248.54
2249.81
2251.08
2252.33
2253.56
2254.78
2255.99
2257.18
2258.36
2259.53
2260.68
2261.83
2262.96
2264.07
2265.18
2266.28
2267.36
2268.43
2269.49
2270.55
2271.59
2272.62
2273.64
2274.65
2275.65
2276.64
2277.62
2278.59
2279.55
2280.51
2281.45
2282.39
2283.31
2284.23
2285.14
2286.05
2286.94
2287.83
2288.7
2289.57
2290.44
2291.29
2292.14
2292.98
2293.81
2294.64
2295.45
2296.27
2297.07
2297.87
2298.66
2299.44
2300.22
2300.99
2301.76
2302.52
2303.27
2304.02
2304.76
2305.49
2306.22
2306.94
2307.66
2308.37
2309.08
2309.78
2310.48
2311.17
2311.85
2312.53
2313.21
2313.88
2314.54
2315.2
2315.86
2316.51
2317.15
2317.8
2318.43
2319.06
2319.69
2320.31
2320.93
2321.54
2322.15
2322.75
2323.35
2323.95
2324.54
2325.12
2325.7
2326.28
2326.85
2327.42
2327.98
2328.54
2329.08
2329.61
2330.1
2330.54
2330.82
)
;

boundaryField
{
    boundary
    {
        type            empty;
    }
    inlet
    {
        type            fixedValue;
        value           nonuniform 0();
    }
    outlet
    {
        type            zeroGradient;
    }
    procBoundary0to1
    {
        type            processor;
        value           uniform 2212.84;
    }
}


// ************************************************************************* //
