/*--------------------------------*- C++ -*----------------------------------*\
  =========                 |
  \\      /  F ield         | OpenFOAM: The Open Source CFD Toolbox
   \\    /   O peration     | Website:  https://openfoam.org
    \\  /    A nd           | Version:  7
     \\/     M anipulation  |
\*---------------------------------------------------------------------------*/
FoamFile
{
    version     2.0;
    format      ascii;
    class       volScalarField;
    location    "0.00029";
    object      H;
}
// * * * * * * * * * * * * * * * * * * * * * * * * * * * * * * * * * * * * * //

dimensions      [0 0 0 0 0 0 0];

internalField   nonuniform List<scalar> 
124
(
0.000352539
0.000349
0.00034547
0.000341946
0.000338426
0.000334906
0.000331385
0.000327858
0.000324324
0.000320778
0.000317219
0.000313644
0.00031005
0.000306436
0.000302799
0.000299139
0.000295454
0.000291743
0.000288005
0.000284239
0.000280446
0.000276626
0.000272779
0.000268905
0.000265006
0.000261083
0.000257136
0.000253169
0.000249182
0.000245178
0.000241159
0.000237129
0.000233088
0.000229041
0.00022499
0.000220939
0.000216892
0.00021285
0.000208819
0.000204801
0.000200801
0.000196822
0.000192868
0.000188943
0.000185051
0.000181195
0.000177379
0.000173608
0.000169884
0.000166212
0.000162595
0.000159036
0.000155539
0.000152107
0.000148743
0.000145449
0.00014223
0.000139086
0.000136021
0.000133037
0.000130134
0.000127316
0.000124584
0.000121938
0.000119379
0.000116909
0.000114528
0.000112236
0.000110033
0.000107919
0.000105893
0.000103954
0.000102103
0.000100337
9.86557e-05
9.70572e-05
9.55401e-05
9.41024e-05
9.27424e-05
9.1458e-05
9.0247e-05
8.91071e-05
8.8036e-05
8.70313e-05
8.60905e-05
8.52112e-05
8.43906e-05
8.36264e-05
8.29158e-05
8.22564e-05
8.16456e-05
8.10807e-05
8.05595e-05
8.00793e-05
7.96379e-05
7.92328e-05
7.88618e-05
7.85228e-05
7.82134e-05
7.79318e-05
7.76759e-05
7.74438e-05
7.72338e-05
7.70442e-05
7.68734e-05
7.67198e-05
7.6582e-05
7.64586e-05
7.63483e-05
7.62501e-05
7.61627e-05
7.60852e-05
7.60167e-05
7.59561e-05
7.59029e-05
7.58561e-05
7.58153e-05
7.57799e-05
7.57494e-05
7.57235e-05
7.5702e-05
7.5685e-05
7.56728e-05
7.5666e-05
)
;

boundaryField
{
    boundary
    {
        type            empty;
    }
    inlet
    {
        type            fixedValue;
        value           nonuniform 0();
    }
    outlet
    {
        type            zeroGradient;
    }
    procBoundary0to1
    {
        type            processor;
        value           uniform 0.000356099;
    }
}


// ************************************************************************* //
