/*--------------------------------*- C++ -*----------------------------------*\
  =========                 |
  \\      /  F ield         | OpenFOAM: The Open Source CFD Toolbox
   \\    /   O peration     | Website:  https://openfoam.org
    \\  /    A nd           | Version:  7
     \\/     M anipulation  |
\*---------------------------------------------------------------------------*/
FoamFile
{
    version     2.0;
    format      ascii;
    class       volScalarField;
    location    "0.00079";
    object      OH;
}
// * * * * * * * * * * * * * * * * * * * * * * * * * * * * * * * * * * * * * //

dimensions      [0 0 0 0 0 0 0];

internalField   nonuniform List<scalar> 
125
(
9.38489e-48
1.82899e-47
2.43757e-47
2.84907e-47
3.12625e-47
3.31255e-47
3.4374e-47
3.52069e-47
3.57581e-47
3.61186e-47
3.63499e-47
3.64944e-47
3.65814e-47
3.66314e-47
3.66591e-47
3.66749e-47
3.66864e-47
3.66988e-47
3.67161e-47
3.67408e-47
3.67745e-47
3.68182e-47
3.68726e-47
3.69378e-47
3.7014e-47
3.71014e-47
3.72e-47
3.73103e-47
3.7433e-47
3.7569e-47
3.77195e-47
3.78863e-47
3.80711e-47
3.82764e-47
3.85045e-47
3.87585e-47
3.90411e-47
3.93556e-47
3.9705e-47
4.00927e-47
4.05215e-47
4.09943e-47
4.15136e-47
4.20816e-47
4.26997e-47
4.33691e-47
4.409e-47
4.48619e-47
4.56834e-47
4.65523e-47
4.74652e-47
4.84181e-47
4.94058e-47
5.04224e-47
5.14611e-47
5.25145e-47
5.35748e-47
5.46337e-47
5.56831e-47
5.67147e-47
5.77207e-47
5.86937e-47
5.96272e-47
6.05153e-47
6.13533e-47
6.21375e-47
6.28653e-47
6.35351e-47
6.41467e-47
6.47004e-47
6.51977e-47
6.56407e-47
6.60324e-47
6.63758e-47
6.66746e-47
6.69327e-47
6.71539e-47
6.7342e-47
6.75008e-47
6.7634e-47
6.77448e-47
6.78364e-47
6.79115e-47
6.79728e-47
6.80225e-47
6.80624e-47
6.80943e-47
6.81197e-47
6.81398e-47
6.81556e-47
6.8168e-47
6.81776e-47
6.81852e-47
6.8191e-47
6.81956e-47
6.81992e-47
6.82021e-47
6.82044e-47
6.82062e-47
6.82078e-47
6.82092e-47
6.82104e-47
6.82115e-47
6.82126e-47
6.82136e-47
6.82146e-47
6.82156e-47
6.82167e-47
6.82177e-47
6.82188e-47
6.822e-47
6.82212e-47
6.82224e-47
6.82237e-47
6.82251e-47
6.82265e-47
6.8228e-47
6.82295e-47
6.82311e-47
6.82327e-47
6.82345e-47
6.82362e-47
6.82377e-47
6.82384e-47
6.82363e-47
)
;

boundaryField
{
    boundary
    {
        type            empty;
    }
    inlet
    {
        type            fixedValue;
        value           uniform 0;
    }
    outlet
    {
        type            zeroGradient;
    }
    procBoundary2to3
    {
        type            processor;
        value           uniform 6.82326e-47;
    }
}


// ************************************************************************* //
