/*--------------------------------*- C++ -*----------------------------------*\
  =========                 |
  \\      /  F ield         | OpenFOAM: The Open Source CFD Toolbox
   \\    /   O peration     | Website:  https://openfoam.org
    \\  /    A nd           | Version:  7
     \\/     M anipulation  |
\*---------------------------------------------------------------------------*/
FoamFile
{
    version     2.0;
    format      ascii;
    class       volScalarField;
    location    "0.00079";
    object      T;
}
// * * * * * * * * * * * * * * * * * * * * * * * * * * * * * * * * * * * * * //

dimensions      [0 0 0 1 0 0 0];

internalField   nonuniform List<scalar> 
125
(
300.001
300.002
300.002
300.002
300.002
300.001
299.999
299.996
299.993
299.989
299.985
299.98
299.976
299.971
299.967
299.962
299.959
299.956
299.954
299.952
299.951
299.952
299.953
299.954
299.957
299.961
299.965
299.97
299.976
299.983
299.991
300
300.01
300.022
300.035
300.049
300.066
300.085
300.106
300.129
300.154
300.183
300.213
300.247
300.283
300.322
300.364
300.408
300.454
300.502
300.552
300.603
300.656
300.708
300.762
300.815
300.867
300.919
300.969
301.017
301.064
301.108
301.15
301.19
301.226
301.26
301.292
301.32
301.346
301.369
301.389
301.408
301.424
301.438
301.45
301.46
301.469
301.476
301.483
301.488
301.493
301.496
301.499
301.502
301.504
301.505
301.506
301.507
301.508
301.509
301.509
301.51
301.51
301.51
301.51
301.511
301.511
301.511
301.511
301.511
301.511
301.511
301.511
301.511
301.511
301.511
301.511
301.511
301.511
301.511
301.511
301.511
301.512
301.512
301.512
301.512
301.512
301.512
301.512
301.512
301.512
301.512
301.512
301.512
301.512
)
;

boundaryField
{
    boundary
    {
        type            empty;
    }
    inlet
    {
        type            fixedValue;
        value           uniform 300;
    }
    outlet
    {
        type            zeroGradient;
    }
    procBoundary2to3
    {
        type            processor;
        value           uniform 301.512;
    }
}


// ************************************************************************* //
