/*--------------------------------*- C++ -*----------------------------------*\
  =========                 |
  \\      /  F ield         | OpenFOAM: The Open Source CFD Toolbox
   \\    /   O peration     | Website:  https://openfoam.org
    \\  /    A nd           | Version:  7
     \\/     M anipulation  |
\*---------------------------------------------------------------------------*/
FoamFile
{
    version     2.0;
    format      ascii;
    class       volScalarField;
    location    "0.0001";
    object      p;
}
// * * * * * * * * * * * * * * * * * * * * * * * * * * * * * * * * * * * * * //

dimensions      [1 -1 -2 0 0 0 0];

internalField   nonuniform List<scalar> 
126
(
102898
102898
102898
102899
102899
102899
102899
102899
102900
102900
102900
102900
102901
102901
102901
102901
102901
102902
102902
102902
102902
102903
102903
102903
102903
102903
102904
102904
102904
102904
102905
102905
102905
102905
102905
102906
102906
102906
102906
102906
102907
102907
102907
102907
102908
102908
102908
102908
102908
102909
102909
102909
102909
102909
102909
102910
102910
102910
102910
102910
102911
102911
102911
102911
102911
102911
102912
102912
102912
102912
102912
102913
102913
102913
102913
102913
102913
102913
102914
102914
102914
102914
102914
102914
102915
102915
102915
102915
102915
102915
102915
102915
102916
102916
102916
102916
102916
102916
102916
102917
102917
102917
102917
102917
102917
102917
102917
102917
102918
102918
102918
102918
102918
102918
102918
102918
102918
102919
102919
102919
102919
102919
102919
102919
102919
102919
)
;

boundaryField
{
    boundary
    {
        type            empty;
    }
    inlet
    {
        type            zeroGradient;
    }
    outlet
    {
        type            waveTransmissive;
        gamma           1.4;
        value           nonuniform 0();
    }
    procBoundary3to1
    {
        type            processor;
        value           uniform 102919;
    }
    procBoundary3to2
    {
        type            processor;
        value           uniform 102898;
    }
}


// ************************************************************************* //
