/*--------------------------------*- C++ -*----------------------------------*\
  =========                 |
  \\      /  F ield         | OpenFOAM: The Open Source CFD Toolbox
   \\    /   O peration     | Website:  https://openfoam.org
    \\  /    A nd           | Version:  7
     \\/     M anipulation  |
\*---------------------------------------------------------------------------*/
FoamFile
{
    version     2.0;
    format      ascii;
    class       volScalarField;
    location    "0.0001";
    object      T;
}
// * * * * * * * * * * * * * * * * * * * * * * * * * * * * * * * * * * * * * //

dimensions      [0 0 0 1 0 0 0];

internalField   nonuniform List<scalar> 
126
(
301.325
301.325
301.326
301.326
301.327
301.327
301.328
301.328
301.329
301.329
301.33
301.33
301.33
301.331
301.331
301.332
301.332
301.332
301.333
301.333
301.333
301.334
301.334
301.334
301.335
301.335
301.335
301.335
301.336
301.336
301.336
301.336
301.337
301.337
301.337
301.337
301.337
301.337
301.337
301.337
301.337
301.337
301.337
301.337
301.337
301.337
301.337
301.337
301.337
301.336
301.336
301.336
301.335
301.335
301.335
301.334
301.333
301.333
301.332
301.332
301.331
301.33
301.329
301.328
301.327
301.326
301.325
301.324
301.323
301.322
301.321
301.319
301.318
301.317
301.315
301.314
301.312
301.31
301.309
301.307
301.305
301.303
301.301
301.299
301.297
301.295
301.292
301.29
301.288
301.285
301.283
301.281
301.278
301.275
301.273
301.27
301.267
301.265
301.262
301.259
301.256
301.253
301.25
301.247
301.244
301.241
301.238
301.235
301.232
301.229
301.226
301.223
301.22
301.216
301.213
301.21
301.207
301.204
301.2
301.197
301.194
301.191
301.187
301.184
301.18
301.177
)
;

boundaryField
{
    boundary
    {
        type            empty;
    }
    inlet
    {
        type            fixedValue;
        value           nonuniform 0();
    }
    outlet
    {
        type            zeroGradient;
    }
    procBoundary3to1
    {
        type            processor;
        value           uniform 301.173;
    }
    procBoundary3to2
    {
        type            processor;
        value           uniform 301.325;
    }
}


// ************************************************************************* //
