/*--------------------------------*- C++ -*----------------------------------*\
  =========                 |
  \\      /  F ield         | OpenFOAM: The Open Source CFD Toolbox
   \\    /   O peration     | Website:  https://openfoam.org
    \\  /    A nd           | Version:  7
     \\/     M anipulation  |
\*---------------------------------------------------------------------------*/
FoamFile
{
    version     2.0;
    format      ascii;
    class       volScalarField;
    location    "0.00099";
    object      H;
}
// * * * * * * * * * * * * * * * * * * * * * * * * * * * * * * * * * * * * * //

dimensions      [0 0 0 0 0 0 0];

internalField   nonuniform List<scalar> 
126
(
3.46329e-41
3.46338e-41
3.46344e-41
3.4635e-41
3.46355e-41
3.46361e-41
3.46366e-41
3.46373e-41
3.46381e-41
3.4639e-41
3.46399e-41
3.4641e-41
3.46421e-41
3.46433e-41
3.46446e-41
3.4646e-41
3.46474e-41
3.4649e-41
3.46505e-41
3.46521e-41
3.46537e-41
3.46553e-41
3.46569e-41
3.46585e-41
3.466e-41
3.46614e-41
3.46628e-41
3.46642e-41
3.46655e-41
3.46667e-41
3.46679e-41
3.46691e-41
3.46703e-41
3.46715e-41
3.46727e-41
3.46739e-41
3.46751e-41
3.46765e-41
3.46778e-41
3.46793e-41
3.46808e-41
3.46824e-41
3.4684e-41
3.46858e-41
3.46876e-41
3.46894e-41
3.46913e-41
3.46933e-41
3.46953e-41
3.46974e-41
3.46995e-41
3.47016e-41
3.47038e-41
3.4706e-41
3.47082e-41
3.47105e-41
3.47127e-41
3.4715e-41
3.47173e-41
3.47196e-41
3.4722e-41
3.47244e-41
3.47268e-41
3.47292e-41
3.47316e-41
3.4734e-41
3.47364e-41
3.47389e-41
3.47413e-41
3.47438e-41
3.47462e-41
3.47486e-41
3.4751e-41
3.47534e-41
3.47558e-41
3.47581e-41
3.47604e-41
3.47626e-41
3.47648e-41
3.4767e-41
3.47692e-41
3.47715e-41
3.47745e-41
3.478e-41
3.4793e-41
3.48303e-41
3.49437e-41
3.52951e-41
3.63885e-41
3.97924e-41
5.03773e-41
8.32491e-41
1.85196e-40
5.00967e-40
1.47791e-39
4.49716e-39
1.38191e-38
4.25747e-38
1.31205e-37
4.04176e-37
1.2443e-36
3.82828e-36
1.1771e-35
3.61714e-35
1.1109e-34
3.40997e-34
1.04618e-33
3.20819e-33
9.83385e-33
3.01315e-32
9.22957e-32
2.82652e-31
8.65557e-31
2.65096e-30
8.12284e-30
2.49114e-29
7.65148e-29
2.35582e-28
7.28024e-28
2.26226e-27
7.08647e-27
2.24538e-26
7.2286e-26
2.37728e-25
8.03511e-25
2.80751e-24
)
;

boundaryField
{
    boundary
    {
        type            empty;
    }
    inlet
    {
        type            fixedValue;
        value           nonuniform 0();
    }
    outlet
    {
        type            zeroGradient;
    }
    procBoundary3to1
    {
        type            processor;
        value           uniform 1.02417e-23;
    }
    procBoundary3to2
    {
        type            processor;
        value           uniform 3.46328e-41;
    }
}


// ************************************************************************* //
