/*--------------------------------*- C++ -*----------------------------------*\
  =========                 |
  \\      /  F ield         | OpenFOAM: The Open Source CFD Toolbox
   \\    /   O peration     | Website:  https://openfoam.org
    \\  /    A nd           | Version:  7
     \\/     M anipulation  |
\*---------------------------------------------------------------------------*/
FoamFile
{
    version     2.0;
    format      ascii;
    class       volVectorField;
    location    "0.00099";
    object      U;
}
// * * * * * * * * * * * * * * * * * * * * * * * * * * * * * * * * * * * * * //

dimensions      [0 1 -1 0 0 0 0];

internalField   nonuniform List<vector> 
126
(
(2.34523 0 0)
(2.3452 0 0)
(2.34517 0 0)
(2.34515 0 0)
(2.34512 0 0)
(2.34509 0 0)
(2.34506 0 0)
(2.34503 0 0)
(2.34501 0 0)
(2.34498 0 0)
(2.34495 0 0)
(2.34492 0 0)
(2.3449 0 0)
(2.34487 0 0)
(2.34484 0 0)
(2.34481 0 0)
(2.34479 0 0)
(2.34476 0 0)
(2.34473 0 0)
(2.34471 0 0)
(2.34468 0 0)
(2.34465 0 0)
(2.34462 0 0)
(2.3446 0 0)
(2.34457 0 0)
(2.34454 0 0)
(2.34452 0 0)
(2.34449 0 0)
(2.34446 0 0)
(2.34444 0 0)
(2.34441 0 0)
(2.34438 0 0)
(2.34436 0 0)
(2.34433 0 0)
(2.34431 0 0)
(2.34428 0 0)
(2.34425 0 0)
(2.34423 0 0)
(2.3442 0 0)
(2.34417 0 0)
(2.34415 0 0)
(2.34412 0 0)
(2.3441 0 0)
(2.34407 0 0)
(2.34405 0 0)
(2.34402 0 0)
(2.344 0 0)
(2.34397 0 0)
(2.34394 0 0)
(2.34392 0 0)
(2.34389 0 0)
(2.34387 0 0)
(2.34384 0 0)
(2.34382 0 0)
(2.34379 0 0)
(2.34377 0 0)
(2.34374 0 0)
(2.34372 0 0)
(2.34369 0 0)
(2.34367 0 0)
(2.34365 0 0)
(2.34362 0 0)
(2.3436 0 0)
(2.34357 0 0)
(2.34355 0 0)
(2.34352 0 0)
(2.3435 0 0)
(2.34348 0 0)
(2.34345 0 0)
(2.34343 0 0)
(2.3434 0 0)
(2.34338 0 0)
(2.34336 0 0)
(2.34333 0 0)
(2.34331 0 0)
(2.34329 0 0)
(2.34326 0 0)
(2.34324 0 0)
(2.34322 0 0)
(2.34319 0 0)
(2.34317 0 0)
(2.34315 0 0)
(2.34313 0 0)
(2.3431 0 0)
(2.34308 0 0)
(2.34306 0 0)
(2.34304 0 0)
(2.34301 0 0)
(2.34299 0 0)
(2.34297 0 0)
(2.34295 0 0)
(2.34292 0 0)
(2.3429 0 0)
(2.34288 0 0)
(2.34286 0 0)
(2.34284 0 0)
(2.34282 0 0)
(2.34279 0 0)
(2.34277 0 0)
(2.34275 0 0)
(2.34273 0 0)
(2.34271 0 0)
(2.34269 0 0)
(2.34267 0 0)
(2.34265 0 0)
(2.34262 0 0)
(2.3426 0 0)
(2.34258 0 0)
(2.34256 0 0)
(2.34254 0 0)
(2.34252 0 0)
(2.3425 0 0)
(2.34248 0 0)
(2.34246 0 0)
(2.34244 0 0)
(2.34242 0 0)
(2.3424 0 0)
(2.34238 0 0)
(2.34236 0 0)
(2.34234 0 0)
(2.34232 0 0)
(2.3423 0 0)
(2.34228 0 0)
(2.34226 0 0)
(2.34225 0 0)
(2.34223 0 0)
)
;

boundaryField
{
    boundary
    {
        type            empty;
    }
    inlet
    {
        type            fixedValue;
        value           nonuniform 0();
    }
    outlet
    {
        type            zeroGradient;
    }
    procBoundary3to1
    {
        type            processor;
        value           uniform (2.34221 0 0);
    }
    procBoundary3to2
    {
        type            processor;
        value           uniform (2.34526 0 0);
    }
}


// ************************************************************************* //
