/*--------------------------------*- C++ -*----------------------------------*\
  =========                 |
  \\      /  F ield         | OpenFOAM: The Open Source CFD Toolbox
   \\    /   O peration     | Website:  https://openfoam.org
    \\  /    A nd           | Version:  7
     \\/     M anipulation  |
\*---------------------------------------------------------------------------*/
FoamFile
{
    version     2.0;
    format      ascii;
    class       volScalarField;
    location    "0.00029";
    object      H2O2;
}
// * * * * * * * * * * * * * * * * * * * * * * * * * * * * * * * * * * * * * //

dimensions      [0 0 0 0 0 0 0];

internalField   nonuniform List<scalar> 
500
(
2.00674e-52
6.46561e-52
1.28992e-51
2.13478e-51
3.18667e-51
4.45289e-51
5.94259e-51
7.66653e-51
9.63628e-51
1.18629e-50
1.43551e-50
1.71167e-50
2.01438e-50
2.34226e-50
2.69271e-50
3.06178e-50
3.44421e-50
3.8336e-50
4.22271e-50
4.60395e-50
4.96986e-50
5.31368e-50
5.62981e-50
5.91414e-50
6.16427e-50
6.37946e-50
6.56055e-50
6.70963e-50
6.82972e-50
6.92442e-50
6.99753e-50
7.05283e-50
7.09381e-50
7.1236e-50
7.14484e-50
7.15969e-50
7.16989e-50
7.17677e-50
7.18133e-50
7.1843e-50
7.1862e-50
7.1874e-50
7.18814e-50
7.18859e-50
7.18886e-50
7.18902e-50
7.18912e-50
7.18917e-50
7.18921e-50
7.18923e-50
7.18924e-50
7.18925e-50
7.18926e-50
7.18927e-50
7.18929e-50
7.1893e-50
7.18932e-50
7.18934e-50
7.18936e-50
7.18938e-50
7.18941e-50
7.18944e-50
7.18947e-50
7.18951e-50
7.18955e-50
7.1896e-50
7.18965e-50
7.1897e-50
7.18976e-50
7.18982e-50
7.18989e-50
7.18996e-50
7.19004e-50
7.19012e-50
7.19021e-50
7.19031e-50
7.19041e-50
7.19051e-50
7.19063e-50
7.19075e-50
7.19087e-50
7.19101e-50
7.19115e-50
7.19129e-50
7.19145e-50
7.19161e-50
7.19179e-50
7.19197e-50
7.19215e-50
7.19235e-50
7.19256e-50
7.19277e-50
7.19299e-50
7.19323e-50
7.19347e-50
7.19372e-50
7.19398e-50
7.19425e-50
7.19454e-50
7.19483e-50
7.19513e-50
7.19544e-50
7.19577e-50
7.1961e-50
7.19644e-50
7.1968e-50
7.19717e-50
7.19754e-50
7.19793e-50
7.19833e-50
7.19874e-50
7.19916e-50
7.19959e-50
7.20004e-50
7.20049e-50
7.20096e-50
7.20143e-50
7.20192e-50
7.20241e-50
7.20292e-50
7.20342e-50
7.20392e-50
7.20448e-50
7.20546e-50
7.20881e-50
7.21757e-50
7.21428e-50
7.20983e-50
7.20443e-50
7.19843e-50
7.19215e-50
7.18591e-50
7.17997e-50
7.17456e-50
7.16987e-50
7.16607e-50
7.16328e-50
7.16163e-50
7.16118e-50
7.16196e-50
7.16395e-50
7.16704e-50
7.17109e-50
7.17588e-50
7.18115e-50
7.18666e-50
7.19216e-50
7.19745e-50
7.20236e-50
7.20678e-50
7.21067e-50
7.21401e-50
7.21682e-50
7.21915e-50
7.22107e-50
7.22264e-50
7.22393e-50
7.22498e-50
7.22585e-50
7.22659e-50
7.22721e-50
7.22775e-50
7.22822e-50
7.22863e-50
7.229e-50
7.22931e-50
7.22958e-50
7.2298e-50
7.22998e-50
7.2301e-50
7.23018e-50
7.23021e-50
7.23018e-50
7.2301e-50
7.22995e-50
7.22974e-50
7.22947e-50
7.22912e-50
7.2287e-50
7.22821e-50
7.22764e-50
7.22698e-50
7.22624e-50
7.22541e-50
7.22448e-50
7.22346e-50
7.22234e-50
7.22111e-50
7.21978e-50
7.21834e-50
7.21678e-50
7.2151e-50
7.21331e-50
7.21138e-50
7.20933e-50
7.20715e-50
7.20483e-50
7.20237e-50
7.19977e-50
7.19702e-50
7.19413e-50
7.19108e-50
7.18788e-50
7.18453e-50
7.18101e-50
7.17733e-50
7.17349e-50
7.16948e-50
7.1653e-50
7.16096e-50
7.15644e-50
7.15175e-50
7.14689e-50
7.14193e-50
7.13744e-50
7.13861e-50
7.19218e-50
7.71357e-50
1.23555e-49
5.28804e-49
4.02385e-48
3.38224e-47
2.84965e-46
2.37695e-45
1.95968e-44
1.59639e-43
1.28465e-42
1.02105e-41
8.01377e-41
6.20966e-40
4.74953e-39
3.58503e-38
2.66993e-37
1.96142e-36
1.42104e-35
1.01507e-34
7.14713e-34
4.95913e-33
3.39003e-32
2.28251e-31
1.51328e-30
9.87664e-30
6.34391e-29
4.00896e-28
2.49166e-27
1.52253e-26
9.14319e-26
5.39413e-25
3.12537e-24
1.77805e-23
9.93112e-23
5.41127e-22
2.9108e-21
1.53891e-20
7.99052e-20
4.07508e-19
2.04185e-18
1.00561e-17
4.87089e-17
2.32205e-16
1.09045e-15
5.04958e-15
2.30846e-14
1.04316e-13
4.66564e-13
2.06818e-12
9.09814e-12
3.97689e-11
1.72924e-10
7.48715e-10
3.23055e-09
1.38987e-08
5.96317e-08
2.54925e-07
1.08151e-06
4.48548e-06
1.72864e-05
5.35462e-05
0.00010254
0.000125295
9.98747e-05
5.21903e-05
2.15283e-05
8.93729e-06
5.06984e-06
4.4252e-06
4.81709e-06
5.53534e-06
6.08352e-06
6.46724e-06
6.68595e-06
6.76991e-06
6.75415e-06
6.66896e-06
6.53767e-06
6.37727e-06
6.19974e-06
6.01342e-06
5.82398e-06
5.63527e-06
5.44983e-06
5.26932e-06
5.09478e-06
4.9268e-06
4.76568e-06
4.61152e-06
4.46429e-06
4.32385e-06
4.18999e-06
4.0625e-06
3.94116e-06
3.82579e-06
3.71951e-06
3.61961e-06
3.5238e-06
3.43189e-06
3.3437e-06
3.25903e-06
3.17771e-06
3.09959e-06
3.0245e-06
2.95231e-06
2.88286e-06
2.81602e-06
2.75168e-06
2.68969e-06
2.62996e-06
2.57236e-06
2.51681e-06
2.46319e-06
2.41141e-06
2.36139e-06
2.31305e-06
2.2663e-06
2.22108e-06
2.1773e-06
2.1349e-06
2.09383e-06
2.05401e-06
2.01539e-06
1.97792e-06
1.94155e-06
1.90622e-06
1.87189e-06
1.83851e-06
1.80604e-06
1.77444e-06
1.74367e-06
1.71369e-06
1.68446e-06
1.65595e-06
1.62813e-06
1.60096e-06
1.5744e-06
1.54843e-06
1.52301e-06
1.49812e-06
1.47372e-06
1.44979e-06
1.42629e-06
1.4032e-06
1.38049e-06
1.35813e-06
1.33609e-06
1.31435e-06
1.29287e-06
1.27165e-06
1.25063e-06
1.22981e-06
1.20915e-06
1.18863e-06
1.16821e-06
1.14787e-06
1.12756e-06
1.10724e-06
1.08686e-06
1.06685e-06
1.04683e-06
1.02684e-06
1.00686e-06
9.86891e-07
9.66924e-07
9.4696e-07
9.27004e-07
9.07063e-07
8.87145e-07
8.67262e-07
8.47428e-07
8.27659e-07
8.07975e-07
7.88395e-07
7.68942e-07
7.49639e-07
7.3051e-07
7.11582e-07
6.9288e-07
6.74429e-07
6.56255e-07
6.38383e-07
6.20837e-07
6.03639e-07
5.8681e-07
5.7037e-07
5.54336e-07
5.38723e-07
5.23545e-07
5.08813e-07
4.94534e-07
4.80717e-07
4.67363e-07
4.54476e-07
4.42055e-07
4.30098e-07
4.18602e-07
4.07559e-07
3.96964e-07
3.86807e-07
3.77079e-07
3.67768e-07
3.58865e-07
3.50355e-07
3.42227e-07
3.34466e-07
3.2706e-07
3.19996e-07
3.13258e-07
3.06835e-07
3.00712e-07
2.94876e-07
2.89315e-07
2.84016e-07
2.78966e-07
2.74155e-07
2.69571e-07
2.65204e-07
2.61043e-07
2.57079e-07
2.53302e-07
2.49704e-07
2.46276e-07
2.43012e-07
2.39903e-07
2.36943e-07
2.34126e-07
2.31445e-07
2.28896e-07
2.26472e-07
2.24168e-07
2.21981e-07
2.19905e-07
2.17937e-07
2.16072e-07
2.14307e-07
2.12638e-07
2.11062e-07
2.09574e-07
2.08172e-07
2.06853e-07
2.05612e-07
2.04448e-07
2.03357e-07
2.02337e-07
2.01383e-07
2.00493e-07
1.99664e-07
1.98894e-07
1.98179e-07
1.97517e-07
1.96905e-07
1.96339e-07
1.95819e-07
1.9534e-07
1.949e-07
1.94497e-07
1.94129e-07
1.93793e-07
1.93487e-07
1.93209e-07
1.92957e-07
1.92729e-07
1.92523e-07
1.92337e-07
1.92169e-07
1.92019e-07
1.91884e-07
1.91764e-07
1.91657e-07
1.91561e-07
1.91476e-07
1.914e-07
1.91334e-07
1.91275e-07
1.91223e-07
1.91177e-07
1.91138e-07
1.91104e-07
1.91075e-07
1.91051e-07
1.91033e-07
1.91022e-07
)
;

boundaryField
{
    boundary
    {
        type            empty;
    }
    inlet
    {
        type            fixedValue;
        value           uniform 0;
    }
    outlet
    {
        type            zeroGradient;
    }
}


// ************************************************************************* //
