/*--------------------------------*- C++ -*----------------------------------*\
  =========                 |
  \\      /  F ield         | OpenFOAM: The Open Source CFD Toolbox
   \\    /   O peration     | Website:  https://openfoam.org
    \\  /    A nd           | Version:  7
     \\/     M anipulation  |
\*---------------------------------------------------------------------------*/
FoamFile
{
    version     2.0;
    format      ascii;
    class       volScalarField;
    location    "0.00029";
    object      N2;
}
// * * * * * * * * * * * * * * * * * * * * * * * * * * * * * * * * * * * * * //

dimensions      [0 0 0 0 0 0 0];

internalField   nonuniform List<scalar> 
500
(
0.745219
0.745219
0.745219
0.745219
0.745219
0.745219
0.745219
0.745219
0.745219
0.745219
0.745219
0.745219
0.745219
0.745219
0.745219
0.745219
0.745219
0.745219
0.745219
0.74522
0.74522
0.74522
0.74522
0.74522
0.74522
0.74522
0.74522
0.74522
0.74522
0.74522
0.74522
0.74522
0.74522
0.74522
0.74522
0.74522
0.74522
0.74522
0.74522
0.74522
0.74522
0.74522
0.74522
0.74522
0.74522
0.74522
0.74522
0.74522
0.74522
0.74522
0.74522
0.74522
0.74522
0.74522
0.74522
0.74522
0.74522
0.74522
0.74522
0.74522
0.74522
0.74522
0.74522
0.74522
0.74522
0.74522
0.74522
0.74522
0.74522
0.74522
0.74522
0.74522
0.74522
0.74522
0.74522
0.74522
0.74522
0.74522
0.74522
0.74522
0.74522
0.74522
0.74522
0.74522
0.74522
0.74522
0.74522
0.74522
0.74522
0.74522
0.74522
0.74522
0.74522
0.74522
0.74522
0.74522
0.74522
0.74522
0.74522
0.74522
0.74522
0.74522
0.74522
0.74522
0.74522
0.74522
0.74522
0.74522
0.74522
0.74522
0.74522
0.74522
0.74522
0.74522
0.74522
0.74522
0.74522
0.74522
0.74522
0.74522
0.74522
0.74522
0.74522
0.74522
0.74522
0.74522
0.74522
0.74522
0.74522
0.74522
0.74522
0.74522
0.74522
0.74522
0.74522
0.74522
0.74522
0.74522
0.74522
0.74522
0.74522
0.74522
0.74522
0.74522
0.74522
0.74522
0.74522
0.74522
0.74522
0.74522
0.74522
0.74522
0.74522
0.74522
0.74522
0.74522
0.74522
0.74522
0.74522
0.74522
0.74522
0.74522
0.74522
0.74522
0.74522
0.74522
0.74522
0.74522
0.74522
0.74522
0.74522
0.74522
0.74522
0.74522
0.74522
0.74522
0.74522
0.74522
0.74522
0.74522
0.74522
0.74522
0.74522
0.74522
0.74522
0.74522
0.74522
0.74522
0.74522
0.74522
0.74522
0.74522
0.74522
0.74522
0.74522
0.74522
0.74522
0.74522
0.74522
0.74522
0.74522
0.74522
0.74522
0.74522
0.74522
0.74522
0.74522
0.74522
0.74522
0.74522
0.74522
0.74522
0.74522
0.74522
0.74522
0.74522
0.74522
0.74522
0.74522
0.74522
0.74522
0.74522
0.74522
0.74522
0.74522
0.74522
0.74522
0.74522
0.74522
0.74522
0.74522
0.74522
0.74522
0.74522
0.74522
0.74522
0.74522
0.74522
0.74522
0.74522
0.74522
0.74522
0.74522
0.74522
0.74522
0.74522
0.74522
0.74522
0.74522
0.74522
0.74522
0.74522
0.74522
0.74522
0.74522
0.74522
0.74522
0.74522
0.74522
0.74522
0.74522
0.74522
0.74522
0.74522
0.74522
0.74522
0.74522
0.74522
0.745221
0.745222
0.745224
0.745229
0.745239
0.74526
0.7453
0.745374
0.74549
0.745609
0.74559
0.745341
0.744939
0.744403
0.74387
0.743611
0.743729
0.744035
0.744213
0.744788
0.744991
0.745132
0.745221
0.745276
0.745309
0.745327
0.745337
0.745342
0.745343
0.745343
0.745341
0.745339
0.745336
0.745334
0.745331
0.745328
0.745325
0.745323
0.74532
0.745318
0.745315
0.745313
0.74531
0.745308
0.745305
0.745302
0.745299
0.745297
0.745294
0.74529
0.745287
0.745284
0.74528
0.745276
0.745272
0.745268
0.745264
0.74526
0.745256
0.745251
0.745247
0.745242
0.745237
0.745232
0.745227
0.745222
0.745217
0.745212
0.745207
0.745202
0.745197
0.745192
0.745187
0.745182
0.745177
0.745172
0.745167
0.745163
0.745158
0.745154
0.74515
0.745146
0.745142
0.745139
0.745136
0.745134
0.745132
0.74513
0.74513
0.745129
0.74513
0.745131
0.745134
0.745137
0.745141
0.745146
0.745152
0.74516
0.745168
0.745178
0.745189
0.745201
0.745214
0.745229
0.745244
0.74526
0.745277
0.745294
0.745315
0.745337
0.74536
0.745383
0.745407
0.745431
0.745456
0.745481
0.745506
0.74553
0.745554
0.745577
0.745599
0.74562
0.74564
0.745659
0.745675
0.74569
0.745702
0.745712
0.74572
0.745726
0.745729
0.745729
0.745726
0.745721
0.745713
0.745702
0.745689
0.745673
0.745655
0.745634
0.745612
0.745587
0.74556
0.745532
0.745502
0.745472
0.74544
0.745408
0.745375
0.745342
0.745309
0.745276
0.745244
0.745213
0.745182
0.745153
0.745124
0.745098
0.745073
0.745049
0.745028
0.745008
0.74499
0.744974
0.74496
0.744948
0.744939
0.744931
0.744925
0.744921
0.744918
0.744917
0.744918
0.74492
0.744924
0.744929
0.744935
0.744942
0.74495
0.744958
0.744968
0.744977
0.744987
0.744998
0.745009
0.745019
0.74503
0.745041
0.745051
0.745062
0.745072
0.745082
0.745092
0.745101
0.74511
0.745118
0.745126
0.745134
0.745141
0.745148
0.745154
0.74516
0.745166
0.745171
0.745176
0.74518
0.745184
0.745188
0.745191
0.745194
0.745197
0.745199
0.745202
0.745204
0.745206
0.745207
0.745209
0.74521
0.745211
0.745212
0.745213
0.745214
0.745215
0.745215
0.745216
0.745216
0.745217
0.745217
0.745217
0.745218
0.745218
0.745218
)
;

boundaryField
{
    boundary
    {
        type            empty;
    }
    inlet
    {
        type            fixedValue;
        value           uniform 0.74522;
    }
    outlet
    {
        type            zeroGradient;
    }
}


// ************************************************************************* //
