/*--------------------------------*- C++ -*----------------------------------*\
  =========                 |
  \\      /  F ield         | OpenFOAM: The Open Source CFD Toolbox
   \\    /   O peration     | Website:  https://openfoam.org
    \\  /    A nd           | Version:  7
     \\/     M anipulation  |
\*---------------------------------------------------------------------------*/
FoamFile
{
    version     2.0;
    format      ascii;
    class       volScalarField;
    location    "0.00029";
    object      O2;
}
// * * * * * * * * * * * * * * * * * * * * * * * * * * * * * * * * * * * * * //

dimensions      [0 0 0 0 0 0 0];

internalField   nonuniform List<scalar> 
500
(
0.226269
0.226269
0.226269
0.226269
0.226269
0.226269
0.226269
0.226269
0.226269
0.226269
0.226269
0.226269
0.226269
0.226269
0.226269
0.226269
0.226269
0.226269
0.226269
0.226269
0.226269
0.226269
0.226269
0.226269
0.226269
0.226269
0.226269
0.226269
0.226269
0.226269
0.226269
0.226269
0.226269
0.226269
0.226269
0.226269
0.226269
0.226269
0.226269
0.226269
0.226269
0.226269
0.226269
0.226269
0.226269
0.226269
0.226269
0.226269
0.226269
0.226269
0.226269
0.226269
0.226269
0.226269
0.226269
0.226269
0.226269
0.226269
0.226269
0.226269
0.226269
0.226269
0.226269
0.226269
0.226269
0.226269
0.226269
0.226269
0.226269
0.226269
0.226269
0.226269
0.226269
0.226269
0.226269
0.226269
0.226269
0.226269
0.226269
0.226269
0.226269
0.226269
0.226269
0.226269
0.226269
0.226269
0.226269
0.226269
0.226269
0.226269
0.226269
0.226269
0.226269
0.226269
0.226269
0.226269
0.226269
0.226269
0.226269
0.226269
0.226269
0.226269
0.226269
0.226269
0.226269
0.226269
0.226269
0.226269
0.226269
0.226269
0.226269
0.226269
0.226269
0.226269
0.226269
0.226269
0.226269
0.226269
0.226269
0.226269
0.226269
0.226269
0.226269
0.226269
0.226269
0.226269
0.226269
0.226269
0.226269
0.226269
0.226269
0.226269
0.226269
0.226269
0.226269
0.226269
0.226269
0.226269
0.226269
0.226269
0.226269
0.226269
0.226269
0.226269
0.226269
0.226269
0.226269
0.226269
0.226269
0.226269
0.226269
0.226269
0.226269
0.226269
0.226269
0.226269
0.226269
0.226269
0.226269
0.226269
0.226269
0.226269
0.226269
0.226269
0.226269
0.226269
0.226269
0.226269
0.226269
0.226269
0.226269
0.226269
0.226269
0.226269
0.226269
0.226269
0.226269
0.226269
0.226269
0.226269
0.226269
0.226269
0.226269
0.226269
0.226269
0.226269
0.226269
0.226269
0.226269
0.226269
0.226269
0.226269
0.226269
0.226269
0.226269
0.226269
0.226269
0.226269
0.226269
0.226269
0.226269
0.226269
0.226269
0.226269
0.226269
0.226269
0.226269
0.226269
0.226269
0.226269
0.226269
0.226269
0.226269
0.226269
0.226269
0.226269
0.226269
0.226269
0.226269
0.226269
0.226269
0.226269
0.226269
0.226269
0.226269
0.226269
0.226269
0.226269
0.226269
0.226269
0.226269
0.226269
0.226269
0.226269
0.226269
0.226269
0.226269
0.226269
0.226269
0.226269
0.226269
0.226269
0.226269
0.226269
0.226269
0.226269
0.226269
0.226269
0.226269
0.226269
0.226269
0.226269
0.226269
0.226269
0.226269
0.226269
0.226269
0.226269
0.226269
0.226269
0.226269
0.226269
0.226269
0.226269
0.226269
0.226269
0.226269
0.226269
0.226269
0.22627
0.22627
0.226272
0.226275
0.226278
0.226275
0.226233
0.226012
0.225148
0.222503
0.216129
0.20515
0.19082
0.172618
0.14964
0.123814
0.0995756
0.0805535
0.0634496
0.0534348
0.0466664
0.042075
0.038895
0.0366185
0.034921
0.0335993
0.0325263
0.0316229
0.0308391
0.0301428
0.0295131
0.028936
0.0284018
0.0279037
0.0274366
0.0269966
0.0265808
0.0261866
0.025812
0.0254555
0.0251155
0.024791
0.0244813
0.0241946
0.0239229
0.0236604
0.0234065
0.0231606
0.0229225
0.0226914
0.0224672
0.0222493
0.0220373
0.021831
0.02163
0.0214338
0.0212423
0.0210551
0.020872
0.0206925
0.0205165
0.0203437
0.0201738
0.0200066
0.0198418
0.0196792
0.0195185
0.0193596
0.0192021
0.019046
0.0188909
0.0187367
0.0185831
0.0184301
0.0182773
0.0181245
0.0179717
0.0178186
0.0176651
0.0175109
0.0173559
0.0172
0.017043
0.0168847
0.0167251
0.0165639
0.0164011
0.0162366
0.0160702
0.0159018
0.0157315
0.0155591
0.0153846
0.015208
0.0150292
0.0148484
0.0146654
0.0144805
0.0142935
0.0141047
0.013914
0.0137216
0.0135275
0.0133317
0.0131342
0.0129343
0.0127311
0.0125356
0.012339
0.0121431
0.0119479
0.0117539
0.0115614
0.0113706
0.011182
0.0109957
0.0108121
0.0106314
0.010454
0.0102801
0.01011
0.00994385
0.00978187
0.00962424
0.00947112
0.00932265
0.00917892
0.00904003
0.00890604
0.00877699
0.0086529
0.00853376
0.00841957
0.00831028
0.00820584
0.00810618
0.00801124
0.00792093
0.00783514
0.00775378
0.00767674
0.00760392
0.00753518
0.00747043
0.00740953
0.00735239
0.00729888
0.00724889
0.00720231
0.00715903
0.00711895
0.00708196
0.00704797
0.00701689
0.00698862
0.00696307
0.00694015
0.00691978
0.00690188
0.00688635
0.00687313
0.00686212
0.00685323
0.00684639
0.00684151
0.00683849
0.00683725
0.0068377
0.00683972
0.00684323
0.00684812
0.0068543
0.00686164
0.00687005
0.00687941
0.00688961
0.00690056
0.00691213
0.00692422
0.00693673
0.00694955
0.0069626
0.00697576
0.00698897
0.00700214
0.00701518
0.00702804
0.00704064
0.00705294
0.00706488
0.00707643
0.00708754
0.00709819
0.00710836
0.00711803
0.00712719
0.00713584
0.00714397
0.0071516
0.00715872
0.00716535
0.0071715
0.0071772
0.00718245
0.00718728
0.00719171
0.00719576
0.00719946
0.00720282
0.00720586
0.00720862
0.00721111
0.00721335
0.00721536
0.00721716
0.00721877
0.00722021
0.00722149
0.00722263
0.00722364
0.00722453
0.00722532
0.00722602
0.00722663
0.00722717
0.00722764
0.00722805
0.0072284
0.0072287
0.00722893
0.00722909
)
;

boundaryField
{
    boundary
    {
        type            empty;
    }
    inlet
    {
        type            fixedValue;
        value           uniform 0.226269;
    }
    outlet
    {
        type            zeroGradient;
    }
}


// ************************************************************************* //
