/*--------------------------------*- C++ -*----------------------------------*\
  =========                 |
  \\      /  F ield         | OpenFOAM: The Open Source CFD Toolbox
   \\    /   O peration     | Website:  https://openfoam.org
    \\  /    A nd           | Version:  7
     \\/     M anipulation  |
\*---------------------------------------------------------------------------*/
FoamFile
{
    version     2.0;
    format      ascii;
    class       volScalarField;
    location    "0.00029";
    object      Qdot;
}
// * * * * * * * * * * * * * * * * * * * * * * * * * * * * * * * * * * * * * //

dimensions      [1 -1 -3 0 0 0 0];

internalField   nonuniform List<scalar> 
500
(
-2.45431e-27
-1.86764e-27
-1.74426e-27
-1.72159e-27
-1.7217e-27
-1.72807e-27
-1.73744e-27
-1.74948e-27
-1.76452e-27
-1.78307e-27
-1.80562e-27
-1.83261e-27
-1.86437e-27
-1.90106e-27
-1.94263e-27
-1.9888e-27
-2.03904e-27
-2.09259e-27
-2.14845e-27
-2.20546e-27
-2.26236e-27
-2.31787e-27
-2.37079e-27
-2.42007e-27
-2.46491e-27
-2.50477e-27
-2.5394e-27
-2.56882e-27
-2.59326e-27
-2.61313e-27
-2.62895e-27
-2.64129e-27
-2.65073e-27
-2.65781e-27
-2.66302e-27
-2.66679e-27
-2.66947e-27
-2.67134e-27
-2.67263e-27
-2.6735e-27
-2.67408e-27
-2.67446e-27
-2.67471e-27
-2.67487e-27
-2.67497e-27
-2.67504e-27
-2.67508e-27
-2.67511e-27
-2.67513e-27
-2.67515e-27
-2.67516e-27
-2.67518e-27
-2.67519e-27
-2.6752e-27
-2.67521e-27
-2.67523e-27
-2.67524e-27
-2.67525e-27
-2.67527e-27
-2.67529e-27
-2.6753e-27
-2.67532e-27
-2.67534e-27
-2.67536e-27
-2.67538e-27
-2.6754e-27
-2.67543e-27
-2.67545e-27
-2.67548e-27
-2.67551e-27
-2.67554e-27
-2.67557e-27
-2.6756e-27
-2.67563e-27
-2.67567e-27
-2.6757e-27
-2.67574e-27
-2.67578e-27
-2.67582e-27
-2.67587e-27
-2.67591e-27
-2.67596e-27
-2.67601e-27
-2.67606e-27
-2.67612e-27
-2.67617e-27
-2.67623e-27
-2.67629e-27
-2.67635e-27
-2.67642e-27
-2.67649e-27
-2.67656e-27
-2.67663e-27
-2.67671e-27
-2.67678e-27
-2.67687e-27
-2.67695e-27
-2.67704e-27
-2.67712e-27
-2.67722e-27
-2.67731e-27
-2.67741e-27
-2.67751e-27
-2.67761e-27
-2.67772e-27
-2.67783e-27
-2.67794e-27
-2.67806e-27
-2.67818e-27
-2.6783e-27
-2.67843e-27
-2.67855e-27
-2.67869e-27
-2.67882e-27
-2.67896e-27
-2.6791e-27
-2.67924e-27
-2.67939e-27
-2.67954e-27
-2.67969e-27
-2.67984e-27
-2.68e-27
-2.68016e-27
-2.68032e-27
-2.6805e-27
-2.68066e-27
-2.6808e-27
-2.68097e-27
-2.68113e-27
-2.6813e-27
-2.68146e-27
-2.68163e-27
-2.68179e-27
-2.68195e-27
-2.68211e-27
-2.68227e-27
-2.68243e-27
-2.6826e-27
-2.68277e-27
-2.68294e-27
-2.68313e-27
-2.68332e-27
-2.68352e-27
-2.68372e-27
-2.68393e-27
-2.68415e-27
-2.68436e-27
-2.68458e-27
-2.6848e-27
-2.68501e-27
-2.68522e-27
-2.68543e-27
-2.68563e-27
-2.68582e-27
-2.68601e-27
-2.68619e-27
-2.68636e-27
-2.68652e-27
-2.68668e-27
-2.68683e-27
-2.68697e-27
-2.6871e-27
-2.68722e-27
-2.68734e-27
-2.68744e-27
-2.68754e-27
-2.68762e-27
-2.68769e-27
-2.68776e-27
-2.68781e-27
-2.68784e-27
-2.68786e-27
-2.68787e-27
-2.68786e-27
-2.68784e-27
-2.6878e-27
-2.68774e-27
-2.68766e-27
-2.68756e-27
-2.68745e-27
-2.68731e-27
-2.68715e-27
-2.68696e-27
-2.68676e-27
-2.68652e-27
-2.68627e-27
-2.68598e-27
-2.68567e-27
-2.68533e-27
-2.68496e-27
-2.68456e-27
-2.68413e-27
-2.68366e-27
-2.68317e-27
-2.68264e-27
-2.68207e-27
-2.68147e-27
-2.68083e-27
-2.68015e-27
-2.67944e-27
-2.67869e-27
-2.67789e-27
-2.67706e-27
-2.67619e-27
-2.67527e-27
-2.67431e-27
-2.67331e-27
-2.67226e-27
-2.67117e-27
-2.67003e-27
-2.66885e-27
-2.66763e-27
-2.66636e-27
-2.66504e-27
-2.66368e-27
-2.66227e-27
-2.66081e-27
-2.65931e-27
-2.65776e-27
-2.65614e-27
-2.65436e-27
-2.65186e-27
-2.64573e-27
-2.6205e-27
-2.49521e-27
-1.85097e-27
1.45426e-27
1.82433e-26
1.0254e-25
5.2072e-25
2.56998e-24
1.24885e-23
5.98971e-23
2.83657e-22
1.32641e-21
6.12397e-21
2.79155e-20
1.25634e-19
5.58254e-19
2.44939e-18
1.06134e-17
4.54287e-17
1.9215e-16
8.03546e-16
3.32459e-15
1.36215e-14
5.53336e-14
2.23197e-13
8.95654e-13
3.58359e-12
1.43334e-11
5.75417e-11
2.32182e-10
9.44796e-10
3.88766e-09
1.62062e-08
6.85056e-08
2.93645e-07
1.27533e-06
5.60449e-06
2.4879e-05
0.000111384
0.00050216
0.00227725
0.0103806
0.0475578
0.219099
1.01648
4.76122
22.6109
117.18
664.271
4645.02
35024.1
297703
2.76906e+06
2.64419e+07
2.3681e+08
1.61481e+09
6.06651e+09
1.14801e+10
1.36246e+10
1.3888e+10
1.39176e+10
1.36461e+10
1.26031e+10
1.08114e+10
8.79793e+09
7.14464e+09
5.90702e+09
4.96028e+09
4.23874e+09
3.6809e+09
3.24124e+09
2.88772e+09
2.59806e+09
2.35671e+09
2.15264e+09
1.9779e+09
1.82666e+09
1.69454e+09
1.57818e+09
1.47499e+09
1.3829e+09
1.30027e+09
1.22576e+09
1.15828e+09
1.09692e+09
1.04092e+09
9.89654e+08
9.42603e+08
8.99387e+08
8.60638e+08
8.25295e+08
7.9217e+08
7.61161e+08
7.32076e+08
7.04741e+08
6.79007e+08
6.54753e+08
6.31849e+08
6.10198e+08
5.89707e+08
5.70289e+08
5.51865e+08
5.34369e+08
5.17735e+08
5.01904e+08
4.86822e+08
4.72441e+08
4.58716e+08
4.45605e+08
4.3307e+08
4.21076e+08
4.09591e+08
3.98584e+08
3.88027e+08
3.77895e+08
3.68164e+08
3.58811e+08
3.49816e+08
3.41159e+08
3.32821e+08
3.24787e+08
3.17039e+08
3.09563e+08
3.02345e+08
2.95371e+08
2.88629e+08
2.82108e+08
2.75795e+08
2.69681e+08
2.63754e+08
2.58006e+08
2.52427e+08
2.47009e+08
2.41742e+08
2.3662e+08
2.31633e+08
2.26775e+08
2.22039e+08
2.17417e+08
2.12903e+08
2.0849e+08
2.04174e+08
1.99947e+08
1.95804e+08
1.91739e+08
1.87749e+08
1.83827e+08
1.7997e+08
1.76175e+08
1.72438e+08
1.68763e+08
1.65158e+08
1.61699e+08
1.57963e+08
1.54345e+08
1.50794e+08
1.4729e+08
1.43822e+08
1.40386e+08
1.36979e+08
1.33597e+08
1.30239e+08
1.26906e+08
1.23596e+08
1.20311e+08
1.1705e+08
1.13815e+08
1.10605e+08
1.07422e+08
1.04267e+08
1.01143e+08
9.80496e+07
9.49889e+07
9.19627e+07
8.89725e+07
8.60202e+07
8.31073e+07
8.02354e+07
7.7406e+07
7.46205e+07
7.18805e+07
6.91872e+07
6.6542e+07
6.3946e+07
6.14e+07
5.89058e+07
5.6464e+07
5.40757e+07
5.17418e+07
4.9463e+07
4.72401e+07
4.5074e+07
4.29654e+07
4.0915e+07
3.89236e+07
3.69914e+07
3.51191e+07
3.33071e+07
3.15556e+07
2.98649e+07
2.82349e+07
2.66656e+07
2.51569e+07
2.37082e+07
2.2319e+07
2.0989e+07
1.97172e+07
1.85025e+07
1.73439e+07
1.62402e+07
1.51901e+07
1.41921e+07
1.32448e+07
1.23466e+07
1.14958e+07
1.06908e+07
9.92992e+06
9.21135e+06
8.53342e+06
7.89441e+06
7.29264e+06
6.72644e+06
6.19417e+06
5.69423e+06
5.22524e+06
4.78541e+06
4.37344e+06
3.98797e+06
3.62737e+06
3.29066e+06
2.97659e+06
2.68382e+06
2.41137e+06
2.15779e+06
1.92225e+06
1.70371e+06
1.50123e+06
1.31385e+06
1.14057e+06
980767
833458
697910
573413
458882
354231
258497
171074
91369.6
18828.5
-47094.7
-106491
-160313
-209811
-252522
-293318
-328885
-360825
-389565
-415427
-437979
-458088
-476155
-492259
-506333
-519000
-530188
-540105
-548878
-556668
-563611
-569951
-575869
-581136
-586302
-591530
-596531
-600831
)
;

boundaryField
{
    boundary
    {
        type            empty;
    }
    inlet
    {
        type            calculated;
        value           uniform 0;
    }
    outlet
    {
        type            calculated;
        value           uniform 0;
    }
}


// ************************************************************************* //
