/*--------------------------------*- C++ -*----------------------------------*\
  =========                 |
  \\      /  F ield         | OpenFOAM: The Open Source CFD Toolbox
   \\    /   O peration     | Website:  https://openfoam.org
    \\  /    A nd           | Version:  7
     \\/     M anipulation  |
\*---------------------------------------------------------------------------*/
FoamFile
{
    version     2.0;
    format      ascii;
    class       volScalarField;
    location    "0.00029";
    object      rho;
}
// * * * * * * * * * * * * * * * * * * * * * * * * * * * * * * * * * * * * * //

dimensions      [1 -3 0 0 0 0 0];

internalField   nonuniform List<scalar> 
500
(
0.864733
0.864715
0.864693
0.864666
0.864633
0.86459
0.864537
0.864471
0.864389
0.864289
0.864169
0.864028
0.863864
0.863679
0.863473
0.863249
0.863012
0.862765
0.862514
0.862263
0.86202
0.861788
0.861571
0.861373
0.861196
0.86104
0.860907
0.860795
0.860702
0.860627
0.860568
0.860521
0.860486
0.860459
0.860439
0.860425
0.860415
0.860408
0.860403
0.8604
0.860397
0.860396
0.860395
0.860394
0.860394
0.860394
0.860393
0.860393
0.860393
0.860393
0.860393
0.860393
0.860393
0.860393
0.860393
0.860393
0.860393
0.860393
0.860393
0.860393
0.860393
0.860393
0.860393
0.860393
0.860393
0.860392
0.860392
0.860392
0.860392
0.860392
0.860392
0.860392
0.860392
0.860392
0.860392
0.860392
0.860391
0.860391
0.860391
0.860391
0.860391
0.860391
0.860391
0.86039
0.86039
0.86039
0.86039
0.86039
0.860389
0.860389
0.860389
0.860389
0.860388
0.860388
0.860388
0.860388
0.860387
0.860387
0.860387
0.860386
0.860386
0.860386
0.860385
0.860385
0.860385
0.860384
0.860384
0.860384
0.860383
0.860383
0.860382
0.860382
0.860381
0.860381
0.86038
0.86038
0.860379
0.860379
0.860378
0.860378
0.860377
0.860377
0.860376
0.860376
0.860375
0.860375
0.860374
0.860373
0.860373
0.860372
0.860372
0.860371
0.860371
0.86037
0.860369
0.860369
0.860368
0.860368
0.860367
0.860367
0.860366
0.860365
0.860365
0.860364
0.860363
0.860362
0.860362
0.860361
0.86036
0.860359
0.860359
0.860358
0.860357
0.860356
0.860356
0.860355
0.860355
0.860354
0.860353
0.860353
0.860352
0.860352
0.860352
0.860351
0.860351
0.86035
0.86035
0.86035
0.86035
0.86035
0.860349
0.860349
0.860349
0.860349
0.860349
0.86035
0.86035
0.86035
0.86035
0.860351
0.860351
0.860352
0.860353
0.860353
0.860354
0.860355
0.860356
0.860357
0.860359
0.86036
0.860361
0.860363
0.860365
0.860366
0.860368
0.86037
0.860372
0.860375
0.860377
0.86038
0.860382
0.860385
0.860388
0.860391
0.860395
0.860398
0.860402
0.860405
0.860409
0.860413
0.860418
0.860422
0.860427
0.860431
0.860436
0.860441
0.860447
0.860452
0.860458
0.860463
0.860469
0.860475
0.860482
0.860488
0.860495
0.860501
0.860508
0.860515
0.860522
0.86053
0.860537
0.860545
0.860552
0.86056
0.860568
0.860576
0.860584
0.860593
0.860601
0.86061
0.860618
0.860627
0.860636
0.860645
0.860654
0.860663
0.860672
0.860681
0.86069
0.860699
0.860709
0.860718
0.860727
0.860737
0.860746
0.860756
0.860766
0.860776
0.860785
0.860795
0.860805
0.860815
0.860826
0.860836
0.860846
0.860857
0.860868
0.86088
0.860891
0.860897
0.860885
0.860811
0.860534
0.85963
0.856841
0.848549
0.825111
0.766358
0.655058
0.518889
0.407983
0.334393
0.286036
0.252463
0.228543
0.211821
0.199452
0.18992
0.183073
0.178019
0.17396
0.17063
0.167837
0.16545
0.163379
0.161559
0.159944
0.158497
0.157191
0.156004
0.15492
0.153925
0.153007
0.152157
0.151366
0.15063
0.14994
0.149294
0.148687
0.148115
0.147575
0.147066
0.146598
0.146161
0.145741
0.145339
0.144953
0.144583
0.144226
0.143883
0.143552
0.143232
0.142924
0.142626
0.142338
0.14206
0.14179
0.141528
0.141275
0.141029
0.14079
0.140559
0.140334
0.140115
0.139902
0.139695
0.139494
0.139299
0.139108
0.138923
0.138743
0.138567
0.138396
0.13823
0.138068
0.13791
0.137757
0.137608
0.137462
0.137321
0.137184
0.13705
0.136921
0.136795
0.136672
0.136553
0.136437
0.136325
0.136216
0.136109
0.136006
0.135905
0.135807
0.135711
0.135617
0.135525
0.135435
0.135345
0.135257
0.135169
0.135081
0.134993
0.134904
0.134813
0.13472
0.134624
0.134529
0.134431
0.134329
0.134224
0.134113
0.133998
0.133878
0.133751
0.133618
0.133479
0.133332
0.133178
0.133016
0.132847
0.13267
0.132485
0.132293
0.132093
0.131886
0.131671
0.131451
0.131224
0.130991
0.130754
0.130513
0.130268
0.13002
0.129771
0.129521
0.129271
0.129021
0.128774
0.128529
0.128288
0.128051
0.12782
0.127595
0.127377
0.127166
0.126964
0.12677
0.126585
0.12641
0.126245
0.12609
0.125946
0.125812
0.125689
0.125576
0.125474
0.125382
0.1253
0.125227
0.125164
0.125111
0.125066
0.125029
0.124999
0.124977
0.124962
0.124953
0.124949
0.124951
0.124957
0.124968
0.124982
0.124999
0.125019
0.125041
0.125065
0.12509
0.125117
0.125144
0.125172
0.1252
0.125227
0.125255
0.125282
0.125309
0.125335
0.125359
0.125383
0.125406
0.125428
0.125449
0.125469
0.125487
0.125505
0.125521
0.125536
0.12555
0.125563
0.125575
0.125586
0.125596
0.125605
0.125614
0.125621
0.125628
0.125634
0.12564
0.125645
0.125649
0.125653
0.125657
0.12566
0.125663
0.125665
0.125667
0.125669
0.12567
0.125672
0.125673
0.125673
0.125674
0.125675
0.125675
0.125675
0.125676
0.125676
0.125676
0.125676
0.125676
0.125676
)
;

boundaryField
{
    boundary
    {
        type            empty;
    }
    inlet
    {
        type            calculated;
        value           uniform 0.864744;
    }
    outlet
    {
        type            calculated;
        value           uniform 0.125676;
    }
}


// ************************************************************************* //
