/*--------------------------------*- C++ -*----------------------------------*\
  =========                 |
  \\      /  F ield         | OpenFOAM: The Open Source CFD Toolbox
   \\    /   O peration     | Website:  https://openfoam.org
    \\  /    A nd           | Version:  7
     \\/     M anipulation  |
\*---------------------------------------------------------------------------*/
FoamFile
{
    version     2.0;
    format      ascii;
    class       volScalarField;
    location    "0.00029";
    object      T;
}
// * * * * * * * * * * * * * * * * * * * * * * * * * * * * * * * * * * * * * //

dimensions      [0 0 0 1 0 0 0];

internalField   nonuniform List<scalar> 
500
(
300.004
300.01
300.018
300.027
300.039
300.053
300.072
300.095
300.123
300.158
300.2
300.249
300.306
300.37
300.442
300.519
300.602
300.688
300.776
300.863
300.948
301.029
301.105
301.174
301.236
301.291
301.337
301.376
301.409
301.435
301.456
301.472
301.485
301.494
301.501
301.506
301.51
301.512
301.514
301.515
301.516
301.516
301.517
301.517
301.517
301.517
301.517
301.517
301.517
301.517
301.517
301.517
301.517
301.517
301.517
301.517
301.517
301.517
301.517
301.517
301.517
301.517
301.517
301.518
301.518
301.518
301.518
301.518
301.518
301.518
301.518
301.518
301.518
301.518
301.518
301.518
301.518
301.518
301.518
301.518
301.518
301.518
301.518
301.518
301.518
301.519
301.519
301.519
301.519
301.519
301.519
301.519
301.519
301.519
301.519
301.519
301.52
301.52
301.52
301.52
301.52
301.52
301.52
301.52
301.52
301.521
301.521
301.521
301.521
301.521
301.521
301.522
301.522
301.522
301.522
301.522
301.522
301.523
301.523
301.523
301.523
301.523
301.524
301.524
301.524
301.524
301.524
301.525
301.525
301.525
301.525
301.525
301.526
301.526
301.526
301.526
301.526
301.527
301.527
301.527
301.527
301.527
301.528
301.528
301.528
301.529
301.529
301.529
301.529
301.53
301.53
301.53
301.53
301.531
301.531
301.531
301.531
301.531
301.532
301.532
301.532
301.532
301.532
301.533
301.533
301.533
301.533
301.533
301.533
301.533
301.533
301.533
301.533
301.533
301.533
301.533
301.533
301.533
301.533
301.533
301.533
301.532
301.532
301.532
301.532
301.531
301.531
301.53
301.53
301.53
301.529
301.529
301.528
301.527
301.527
301.526
301.525
301.524
301.524
301.523
301.522
301.521
301.52
301.519
301.517
301.516
301.515
301.514
301.512
301.511
301.509
301.508
301.506
301.505
301.503
301.501
301.499
301.497
301.495
301.493
301.491
301.489
301.487
301.485
301.483
301.48
301.478
301.475
301.473
301.47
301.468
301.465
301.462
301.46
301.457
301.454
301.451
301.448
301.445
301.442
301.439
301.436
301.433
301.43
301.427
301.424
301.421
301.417
301.414
301.411
301.408
301.404
301.401
301.398
301.394
301.391
301.388
301.384
301.381
301.377
301.374
301.37
301.367
301.363
301.36
301.356
301.353
301.35
301.348
301.35
301.364
301.41
301.549
301.953
303.117
306.455
315.929
341.705
402.779
513.745
661.184
816.538
965.59
1104.81
1229.73
1334.14
1422.8
1497.9
1557.67
1605.28
1645.86
1680.88
1711.57
1738.81
1763.23
1785.33
1805.48
1823.95
1840.99
1856.77
1871.45
1885.17
1898.01
1910.08
1921.44
1932.18
1942.34
1951.97
1961.12
1969.83
1978.13
1986.02
1993.35
2000.24
2006.9
2013.32
2019.53
2025.54
2031.35
2036.98
2042.44
2047.74
2052.88
2057.87
2062.72
2067.43
2072.01
2076.48
2080.82
2085.05
2089.16
2093.18
2097.09
2100.9
2104.61
2108.23
2111.76
2115.2
2118.56
2121.83
2125.02
2128.13
2131.16
2134.11
2136.98
2139.78
2142.5
2145.15
2147.72
2150.23
2152.66
2155.02
2157.31
2159.54
2161.69
2163.78
2165.81
2167.77
2169.67
2171.51
2173.3
2175.02
2176.7
2178.33
2179.92
2181.46
2182.97
2184.46
2185.91
2187.35
2188.78
2190.21
2191.64
2193.09
2194.57
2196.08
2197.61
2199.19
2200.82
2202.52
2204.3
2206.16
2208.12
2210.19
2212.38
2214.68
2217.12
2219.69
2222.4
2225.26
2228.28
2231.44
2234.76
2238.24
2241.86
2245.63
2249.55
2253.61
2257.79
2262.1
2266.52
2271.03
2275.64
2280.31
2285.05
2289.83
2294.63
2299.45
2304.26
2309.05
2313.8
2318.5
2323.12
2327.66
2332.11
2336.43
2340.64
2344.7
2348.62
2352.39
2355.99
2359.42
2362.67
2365.75
2368.65
2371.37
2373.91
2376.28
2378.46
2380.48
2382.32
2384.01
2385.54
2386.93
2388.17
2389.28
2390.27
2391.13
2391.89
2392.56
2393.12
2393.61
2394.02
2394.36
2394.64
2394.87
2395.05
2395.19
2395.29
2395.36
2395.4
2395.43
2395.43
2395.42
2395.4
2395.37
2395.34
2395.3
2395.25
2395.21
2395.16
2395.12
2395.07
2395.03
2394.99
2394.96
2394.92
2394.89
2394.87
2394.84
2394.82
2394.8
2394.79
2394.77
2394.76
2394.76
2394.75
2394.75
2394.74
2394.74
2394.74
2394.74
2394.75
2394.75
2394.75
2394.76
2394.76
2394.77
2394.78
2394.78
2394.79
2394.8
2394.8
2394.81
2394.82
2394.83
2394.84
2394.84
2394.85
2394.85
)
;

boundaryField
{
    boundary
    {
        type            empty;
    }
    inlet
    {
        type            fixedValue;
        value           uniform 300;
    }
    outlet
    {
        type            zeroGradient;
    }
}


// ************************************************************************* //
