/*--------------------------------*- C++ -*----------------------------------*\
  =========                 |
  \\      /  F ield         | OpenFOAM: The Open Source CFD Toolbox
   \\    /   O peration     | Website:  https://openfoam.org
    \\  /    A nd           | Version:  7
     \\/     M anipulation  |
\*---------------------------------------------------------------------------*/
FoamFile
{
    version     2.0;
    format      ascii;
    class       volScalarField;
    location    "0.00015";
    object      H2O2;
}
// * * * * * * * * * * * * * * * * * * * * * * * * * * * * * * * * * * * * * //

dimensions      [0 0 0 0 0 0 0];

internalField   nonuniform List<scalar> 
125
(
2.04505e-52
6.62769e-52
1.32799e-51
2.2018e-51
3.2788e-51
4.54172e-51
5.95744e-51
7.47603e-51
9.03409e-51
1.05621e-50
1.19938e-50
1.32759e-50
1.43733e-50
1.52721e-50
1.59775e-50
1.65085e-50
1.68926e-50
1.716e-50
1.73393e-50
1.74555e-50
1.75283e-50
1.75723e-50
1.75983e-50
1.7613e-50
1.76212e-50
1.76256e-50
1.76279e-50
1.76291e-50
1.76296e-50
1.76299e-50
1.763e-50
1.76301e-50
1.76301e-50
1.76301e-50
1.763e-50
1.763e-50
1.763e-50
1.763e-50
1.763e-50
1.763e-50
1.763e-50
1.763e-50
1.763e-50
1.763e-50
1.763e-50
1.763e-50
1.763e-50
1.763e-50
1.76301e-50
1.76301e-50
1.76302e-50
1.76302e-50
1.76303e-50
1.76304e-50
1.76305e-50
1.76306e-50
1.76307e-50
1.76308e-50
1.76309e-50
1.7631e-50
1.76312e-50
1.76314e-50
1.76315e-50
1.76317e-50
1.76319e-50
1.76321e-50
1.76324e-50
1.76326e-50
1.76329e-50
1.76332e-50
1.76335e-50
1.76338e-50
1.76341e-50
1.76344e-50
1.76348e-50
1.76352e-50
1.76356e-50
1.7636e-50
1.76365e-50
1.76369e-50
1.76374e-50
1.76379e-50
1.76384e-50
1.7639e-50
1.76396e-50
1.76402e-50
1.76408e-50
1.76414e-50
1.76421e-50
1.76428e-50
1.76435e-50
1.76442e-50
1.7645e-50
1.76458e-50
1.76466e-50
1.76474e-50
1.76483e-50
1.76492e-50
1.76501e-50
1.76511e-50
1.7652e-50
1.7653e-50
1.76541e-50
1.76551e-50
1.76562e-50
1.76573e-50
1.76584e-50
1.76596e-50
1.76608e-50
1.7662e-50
1.76632e-50
1.76644e-50
1.76657e-50
1.7667e-50
1.76683e-50
1.76697e-50
1.76711e-50
1.76724e-50
1.76738e-50
1.76751e-50
1.76761e-50
1.76761e-50
1.76731e-50
1.76632e-50
1.76432e-50
)
;

boundaryField
{
    boundary
    {
        type            empty;
    }
    inlet
    {
        type            fixedValue;
        value           uniform 0;
    }
    outlet
    {
        type            zeroGradient;
    }
    procBoundary2to3
    {
        type            processor;
        value           uniform 1.76206e-50;
    }
}


// ************************************************************************* //
