/*--------------------------------*- C++ -*----------------------------------*\
  =========                 |
  \\      /  F ield         | OpenFOAM: The Open Source CFD Toolbox
   \\    /   O peration     | Website:  https://openfoam.org
    \\  /    A nd           | Version:  7
     \\/     M anipulation  |
\*---------------------------------------------------------------------------*/
FoamFile
{
    version     2.0;
    format      ascii;
    class       volScalarField;
    location    "1e-05";
    object      H;
}
// * * * * * * * * * * * * * * * * * * * * * * * * * * * * * * * * * * * * * //

dimensions      [0 0 0 0 0 0 0];

internalField   nonuniform List<scalar> 
125
(
1.92233e-29
1.02316e-28
5.40596e-28
2.8502e-27
1.49882e-26
7.85486e-26
4.09845e-25
2.12673e-24
1.09623e-23
5.60624e-23
2.84126e-22
1.42543e-21
7.07372e-21
3.47273e-20
1.68993e-19
8.19498e-19
4.0013e-18
2.00001e-17
1.0452e-16
5.81659e-16
3.46576e-15
2.18652e-14
1.43149e-13
9.90773e-13
7.64737e-12
6.71123e-11
5.80063e-10
4.85248e-09
4.05485e-08
3.37771e-07
2.75992e-06
2.03112e-05
0.000106045
0.000293269
0.000531901
0.000748311
0.000849038
0.000831614
0.000751348
0.000650446
0.000550563
0.000460874
0.000384254
0.000320658
0.000268821
0.000227084
0.000193776
0.000167377
0.000146572
0.000130254
0.000117512
0.000107602
9.99251e-05
9.40002e-05
8.94437e-05
8.59522e-05
8.32859e-05
8.12567e-05
7.97174e-05
7.85535e-05
7.76761e-05
7.70361e-05
7.65618e-05
7.62002e-05
7.59255e-05
7.57173e-05
7.556e-05
7.54415e-05
7.53523e-05
7.52853e-05
7.5235e-05
7.51973e-05
7.51689e-05
7.51474e-05
7.51311e-05
7.51186e-05
7.51089e-05
7.51012e-05
7.5095e-05
7.50899e-05
7.50856e-05
7.50818e-05
7.50784e-05
7.50753e-05
7.50724e-05
7.50696e-05
7.50669e-05
7.50642e-05
7.50616e-05
7.5059e-05
7.50564e-05
7.50538e-05
7.50512e-05
7.50486e-05
7.5046e-05
7.50434e-05
7.50408e-05
7.50382e-05
7.50355e-05
7.50329e-05
7.50303e-05
7.50277e-05
7.50251e-05
7.50225e-05
7.50199e-05
7.50173e-05
7.50147e-05
7.50122e-05
7.50097e-05
7.50071e-05
7.50046e-05
7.50022e-05
7.49997e-05
7.49973e-05
7.49949e-05
7.49925e-05
7.49901e-05
7.49876e-05
7.49852e-05
7.49827e-05
7.49801e-05
7.49774e-05
7.49746e-05
7.49718e-05
7.49691e-05
)
;

boundaryField
{
    boundary
    {
        type            empty;
    }
    inlet
    {
        type            fixedValue;
        value           nonuniform 0();
    }
    outlet
    {
        type            zeroGradient;
    }
    procBoundary1to0
    {
        type            processor;
        value           uniform 7.49673e-05;
    }
    procBoundary1to3
    {
        type            processor;
        value           uniform 3.65904e-30;
    }
}


// ************************************************************************* //
