/*--------------------------------*- C++ -*----------------------------------*\
  =========                 |
  \\      /  F ield         | OpenFOAM: The Open Source CFD Toolbox
   \\    /   O peration     | Website:  https://openfoam.org
    \\  /    A nd           | Version:  7
     \\/     M anipulation  |
\*---------------------------------------------------------------------------*/
FoamFile
{
    version     2.0;
    format      ascii;
    class       volScalarField;
    location    "1e-05";
    object      H2O2;
}
// * * * * * * * * * * * * * * * * * * * * * * * * * * * * * * * * * * * * * //

dimensions      [0 0 0 0 0 0 0];

internalField   nonuniform List<scalar> 
125
(
1.54292e-41
8.39358e-41
4.45702e-40
2.38466e-39
1.33685e-38
9.03835e-38
9.75099e-37
1.74555e-35
3.90876e-34
9.17855e-33
2.14664e-31
4.93777e-30
1.11294e-28
2.45317e-27
5.28063e-26
1.10955e-24
2.27557e-23
4.55705e-22
8.92177e-21
1.71206e-19
3.23517e-18
6.06279e-17
1.13721e-15
2.15563e-14
4.15998e-13
8.18004e-12
1.62405e-10
3.18725e-09
5.94894e-08
9.75438e-07
1.12976e-05
4.53075e-05
3.80006e-05
1.81876e-05
7.52856e-06
3.78183e-06
2.71006e-06
2.11844e-06
1.56075e-06
1.11044e-06
7.96303e-07
5.91752e-07
4.61528e-07
3.78307e-07
3.24092e-07
2.87786e-07
2.62711e-07
2.44865e-07
2.31825e-07
2.22093e-07
2.14719e-07
2.09071e-07
2.04721e-07
2.01359e-07
1.9876e-07
1.96753e-07
1.95204e-07
1.94013e-07
1.93098e-07
1.92397e-07
1.91861e-07
1.91464e-07
1.91163e-07
1.90929e-07
1.90746e-07
1.90603e-07
1.9049e-07
1.904e-07
1.90327e-07
1.90267e-07
1.90218e-07
1.90175e-07
1.90138e-07
1.90106e-07
1.90076e-07
1.90048e-07
1.90022e-07
1.89996e-07
1.89972e-07
1.89948e-07
1.89925e-07
1.89901e-07
1.89878e-07
1.89855e-07
1.89832e-07
1.89809e-07
1.89786e-07
1.89763e-07
1.89741e-07
1.89718e-07
1.89696e-07
1.89673e-07
1.89651e-07
1.89628e-07
1.89606e-07
1.89584e-07
1.89563e-07
1.89541e-07
1.8952e-07
1.89499e-07
1.89478e-07
1.89458e-07
1.89438e-07
1.89418e-07
1.89399e-07
1.8938e-07
1.89361e-07
1.89343e-07
1.89325e-07
1.89308e-07
1.89291e-07
1.89274e-07
1.89258e-07
1.89243e-07
1.89227e-07
1.89213e-07
1.89199e-07
1.89185e-07
1.89172e-07
1.89159e-07
1.89147e-07
1.89135e-07
1.89123e-07
1.8911e-07
1.89096e-07
)
;

boundaryField
{
    boundary
    {
        type            empty;
    }
    inlet
    {
        type            fixedValue;
        value           nonuniform 0();
    }
    outlet
    {
        type            zeroGradient;
    }
    procBoundary1to0
    {
        type            processor;
        value           uniform 1.89088e-07;
    }
    procBoundary1to3
    {
        type            processor;
        value           uniform 2.4611e-42;
    }
}


// ************************************************************************* //
