/*--------------------------------*- C++ -*----------------------------------*\
  =========                 |
  \\      /  F ield         | OpenFOAM: The Open Source CFD Toolbox
   \\    /   O peration     | Website:  https://openfoam.org
    \\  /    A nd           | Version:  7
     \\/     M anipulation  |
\*---------------------------------------------------------------------------*/
FoamFile
{
    version     2.0;
    format      ascii;
    class       volScalarField;
    location    "1e-05";
    object      HO2;
}
// * * * * * * * * * * * * * * * * * * * * * * * * * * * * * * * * * * * * * //

dimensions      [0 0 0 0 0 0 0];

internalField   nonuniform List<scalar> 
125
(
1.32625e-26
7.18729e-26
3.81126e-25
2.01695e-24
1.06721e-23
5.64759e-23
2.99026e-22
1.58512e-21
8.41262e-21
4.45813e-20
2.35825e-19
1.24515e-18
6.56315e-18
3.45414e-17
1.81135e-16
9.45651e-16
4.91394e-15
2.54464e-14
1.32024e-13
6.96139e-13
3.82784e-12
2.24831e-11
1.40211e-10
9.00099e-10
5.77534e-09
3.67391e-08
2.34529e-07
1.51593e-06
9.66583e-06
5.68897e-05
0.000256419
0.000545911
0.000480833
0.000316195
0.000170984
8.58117e-05
4.18569e-05
2.07086e-05
1.07436e-05
6.02581e-06
3.7629e-06
2.66152e-06
2.11949e-06
1.85278e-06
1.72469e-06
1.66747e-06
1.64644e-06
1.64331e-06
1.64838e-06
1.6565e-06
1.6651e-06
1.67298e-06
1.67969e-06
1.68517e-06
1.6895e-06
1.69288e-06
1.69547e-06
1.69745e-06
1.69896e-06
1.7001e-06
1.70097e-06
1.70163e-06
1.70213e-06
1.70253e-06
1.70286e-06
1.70314e-06
1.70338e-06
1.70359e-06
1.70378e-06
1.70396e-06
1.70414e-06
1.7043e-06
1.70446e-06
1.70463e-06
1.70479e-06
1.70495e-06
1.70512e-06
1.70529e-06
1.70546e-06
1.70563e-06
1.70581e-06
1.70599e-06
1.70617e-06
1.70635e-06
1.70654e-06
1.70673e-06
1.70693e-06
1.70712e-06
1.70732e-06
1.70752e-06
1.70772e-06
1.70792e-06
1.70813e-06
1.70834e-06
1.70854e-06
1.70875e-06
1.70896e-06
1.70917e-06
1.70939e-06
1.7096e-06
1.70981e-06
1.71002e-06
1.71024e-06
1.71045e-06
1.71066e-06
1.71087e-06
1.71108e-06
1.71129e-06
1.7115e-06
1.7117e-06
1.71191e-06
1.71211e-06
1.7123e-06
1.7125e-06
1.7127e-06
1.71289e-06
1.71309e-06
1.71329e-06
1.71347e-06
1.71366e-06
1.71385e-06
1.71404e-06
1.71427e-06
1.7146e-06
1.71527e-06
)
;

boundaryField
{
    boundary
    {
        type            empty;
    }
    inlet
    {
        type            fixedValue;
        value           nonuniform 0();
    }
    outlet
    {
        type            zeroGradient;
    }
    procBoundary1to0
    {
        type            processor;
        value           uniform 1.71572e-06;
    }
    procBoundary1to3
    {
        type            processor;
        value           uniform 2.19033e-27;
    }
}


// ************************************************************************* //
