/*--------------------------------*- C++ -*----------------------------------*\
  =========                 |
  \\      /  F ield         | OpenFOAM: The Open Source CFD Toolbox
   \\    /   O peration     | Website:  https://openfoam.org
    \\  /    A nd           | Version:  7
     \\/     M anipulation  |
\*---------------------------------------------------------------------------*/
FoamFile
{
    version     2.0;
    format      ascii;
    class       volScalarField;
    location    "1e-05";
    object      p;
}
// * * * * * * * * * * * * * * * * * * * * * * * * * * * * * * * * * * * * * //

dimensions      [1 -1 -2 0 0 0 0];

internalField   nonuniform List<scalar> 
125
(
101623
101619
101616
101614
101612
101611
101610
101610
101611
101612
101614
101617
101620
101623
101627
101631
101636
101641
101646
101652
101657
101663
101669
101675
101681
101687
101693
101699
101705
101711
101716
101720
101721
101720
101718
101715
101712
101710
101707
101705
101702
101700
101698
101695
101693
101691
101689
101686
101684
101682
101680
101677
101675
101673
101670
101668
101666
101663
101661
101659
101656
101654
101652
101650
101647
101645
101643
101641
101639
101636
101634
101632
101630
101628
101626
101624
101622
101620
101618
101616
101614
101612
101610
101609
101607
101606
101604
101603
101601
101600
101599
101598
101597
101596
101595
101595
101594
101593
101593
101593
101593
101593
101593
101593
101593
101594
101594
101595
101596
101597
101598
101599
101600
101602
101603
101605
101607
101609
101611
101613
101616
101618
101621
101624
101626
)
;

boundaryField
{
    boundary
    {
        type            empty;
    }
    inlet
    {
        type            zeroGradient;
    }
    outlet
    {
        type            waveTransmissive;
        gamma           1.4;
        value           nonuniform 0();
    }
    procBoundary1to0
    {
        type            processor;
        value           uniform 101629;
    }
    procBoundary1to3
    {
        type            processor;
        value           uniform 101627;
    }
}


// ************************************************************************* //
