/*--------------------------------*- C++ -*----------------------------------*\
  =========                 |
  \\      /  F ield         | OpenFOAM: The Open Source CFD Toolbox
   \\    /   O peration     | Website:  https://openfoam.org
    \\  /    A nd           | Version:  7
     \\/     M anipulation  |
\*---------------------------------------------------------------------------*/
FoamFile
{
    version     2.0;
    format      ascii;
    class       surfaceScalarField;
    location    "1e-05";
    object      phi;
}
// * * * * * * * * * * * * * * * * * * * * * * * * * * * * * * * * * * * * * //

dimensions      [1 0 -1 0 0 0 0];

internalField   nonuniform List<scalar> 
124
(
4.45645e-06
4.47047e-06
4.47895e-06
4.48189e-06
4.47933e-06
4.47134e-06
4.45804e-06
4.43958e-06
4.41615e-06
4.38799e-06
4.35534e-06
4.31851e-06
4.27782e-06
4.23362e-06
4.18629e-06
4.13623e-06
4.08384e-06
4.02953e-06
3.97373e-06
3.91687e-06
3.85937e-06
3.80161e-06
3.744e-06
3.68688e-06
3.6306e-06
3.57546e-06
3.52208e-06
3.47269e-06
3.43737e-06
3.47644e-06
4.08394e-06
5.75863e-06
5.78571e-06
5.52236e-06
4.90513e-06
4.22306e-06
3.63646e-06
3.1782e-06
2.83482e-06
2.58552e-06
2.41053e-06
2.29249e-06
2.21662e-06
2.17076e-06
2.14527e-06
2.13283e-06
2.12813e-06
2.1275e-06
2.12853e-06
2.12976e-06
2.13037e-06
2.12995e-06
2.12838e-06
2.12569e-06
2.122e-06
2.11744e-06
2.11216e-06
2.1063e-06
2.09999e-06
2.09332e-06
2.0864e-06
2.0797e-06
2.07285e-06
2.06589e-06
2.05884e-06
2.05173e-06
2.04459e-06
2.03743e-06
2.03029e-06
2.02316e-06
2.01606e-06
2.00901e-06
2.00203e-06
1.99512e-06
1.9883e-06
1.98158e-06
1.97497e-06
1.96849e-06
1.96213e-06
1.95592e-06
1.94987e-06
1.94398e-06
1.93828e-06
1.93276e-06
1.92745e-06
1.92236e-06
1.91749e-06
1.91286e-06
1.90849e-06
1.90437e-06
1.90054e-06
1.89698e-06
1.89373e-06
1.89078e-06
1.88816e-06
1.88586e-06
1.88391e-06
1.88231e-06
1.88106e-06
1.88019e-06
1.87969e-06
1.87958e-06
1.87986e-06
1.88055e-06
1.88164e-06
1.88315e-06
1.88508e-06
1.88743e-06
1.89022e-06
1.89344e-06
1.8971e-06
1.90119e-06
1.90573e-06
1.91072e-06
1.91615e-06
1.92202e-06
1.92834e-06
1.93511e-06
1.94231e-06
1.94995e-06
1.95803e-06
1.96653e-06
1.97546e-06
1.98481e-06
)
;

boundaryField
{
    boundary
    {
        type            empty;
        value           nonuniform 0();
    }
    inlet
    {
        type            calculated;
        value           nonuniform 0();
    }
    outlet
    {
        type            calculated;
        value           nonuniform 0();
    }
    procBoundary1to0
    {
        type            processor;
        value           uniform 1.99456e-06;
    }
    procBoundary1to3
    {
        type            processor;
        value           uniform -4.43683e-06;
    }
}


// ************************************************************************* //
