/*--------------------------------*- C++ -*----------------------------------*\
  =========                 |
  \\      /  F ield         | OpenFOAM: The Open Source CFD Toolbox
   \\    /   O peration     | Website:  https://openfoam.org
    \\  /    A nd           | Version:  7
     \\/     M anipulation  |
\*---------------------------------------------------------------------------*/
FoamFile
{
    version     2.0;
    format      ascii;
    class       volScalarField;
    location    "1e-05";
    object      Qdot;
}
// * * * * * * * * * * * * * * * * * * * * * * * * * * * * * * * * * * * * * //

dimensions      [1 -1 -3 0 0 0 0];

internalField   nonuniform List<scalar> 
125
(
2.7185e-15
1.44529e-14
7.6734e-14
4.06976e-13
2.1555e-12
1.13934e-11
6.00502e-11
3.15254e-10
1.64644e-09
8.54241e-09
4.39705e-08
2.24158e-07
1.12948e-06
5.61207e-06
2.74341e-05
0.000131779
0.00062256
0.00290835
0.0136236
0.0657029
0.338162
1.90791
12.5541
101.544
957.58
8205.16
71923.4
608360
5.16713e+06
4.55192e+07
4.3618e+08
3.32388e+09
9.00179e+09
9.02729e+09
5.86503e+09
4.33094e+09
2.86991e+09
1.49959e+09
6.66786e+08
2.42766e+08
4.03434e+07
-5.04989e+07
-8.58606e+07
-9.39696e+07
-8.92004e+07
-7.89716e+07
-6.70902e+07
-5.54579e+07
-4.49504e+07
-3.58937e+07
-2.83236e+07
-2.21301e+07
-1.71452e+07
-1.31762e+07
-1.00568e+07
-7.61366e+06
-5.71494e+06
-4.24602e+06
-3.11514e+06
-2.24498e+06
-1.58005e+06
-1.08675e+06
-716731
-429169
-207296
-36490.1
94922.3
195680
272799
331699
376573
410653
436420
455773
470157
480672
488151
493233
496320
497773
497860
496779
494677
491664
487821
483250
478121
472497
466202
459059
451092
442414
433215
423496
413205
402353
390876
378918
366502
353524
339983
325882
311456
296675
281509
265882
249949
233752
217278
200429
183371
165862
148582
130674
112535
94261.5
75649
57246
38530.6
19497.5
598.802
-19296.6
-41100.6
-66748.4
-100111
)
;

boundaryField
{
    boundary
    {
        type            empty;
    }
    inlet
    {
        type            calculated;
        value           nonuniform 0();
    }
    outlet
    {
        type            calculated;
        value           nonuniform 0();
    }
    procBoundary1to0
    {
        type            processor;
        value           uniform 0;
    }
    procBoundary1to3
    {
        type            processor;
        value           uniform 0;
    }
}


// ************************************************************************* //
