/*--------------------------------*- C++ -*----------------------------------*\
  =========                 |
  \\      /  F ield         | OpenFOAM: The Open Source CFD Toolbox
   \\    /   O peration     | Website:  https://openfoam.org
    \\  /    A nd           | Version:  7
     \\/     M anipulation  |
\*---------------------------------------------------------------------------*/
FoamFile
{
    version     2.0;
    format      ascii;
    class       volScalarField;
    location    "1e-05";
    object      T;
}
// * * * * * * * * * * * * * * * * * * * * * * * * * * * * * * * * * * * * * //

dimensions      [0 0 0 1 0 0 0];

internalField   nonuniform List<scalar> 
125
(
300.153
300.139
300.124
300.11
300.096
300.083
300.07
300.057
300.045
300.033
300.022
300.011
300.001
299.991
299.983
299.974
299.967
299.96
299.954
299.949
299.944
299.94
299.937
299.934
299.932
299.932
299.939
299.996
300.357
302.404
315.947
389.209
583.8
821.337
1092.31
1365.04
1610.06
1810
1965.69
2083.72
2171.29
2234.98
2280.51
2312.59
2334.95
2350.44
2361.16
2368.59
2373.78
2377.44
2380.06
2381.95
2383.33
2384.36
2385.13
2385.71
2386.15
2386.48
2386.74
2386.94
2387.09
2387.2
2387.29
2387.36
2387.41
2387.46
2387.49
2387.52
2387.55
2387.57
2387.59
2387.61
2387.63
2387.65
2387.66
2387.68
2387.7
2387.72
2387.73
2387.75
2387.77
2387.79
2387.81
2387.83
2387.85
2387.87
2387.89
2387.91
2387.94
2387.96
2387.99
2388.01
2388.04
2388.06
2388.09
2388.12
2388.14
2388.17
2388.2
2388.23
2388.26
2388.29
2388.32
2388.35
2388.39
2388.42
2388.45
2388.48
2388.52
2388.55
2388.59
2388.62
2388.66
2388.69
2388.73
2388.76
2388.8
2388.83
2388.87
2388.91
2388.94
2388.98
2389.02
2389.05
2389.09
)
;

boundaryField
{
    boundary
    {
        type            empty;
    }
    inlet
    {
        type            fixedValue;
        value           nonuniform 0();
    }
    outlet
    {
        type            zeroGradient;
    }
    procBoundary1to0
    {
        type            processor;
        value           uniform 2389.13;
    }
    procBoundary1to3
    {
        type            processor;
        value           uniform 300.168;
    }
}


// ************************************************************************* //
