/*--------------------------------*- C++ -*----------------------------------*\
  =========                 |
  \\      /  F ield         | OpenFOAM: The Open Source CFD Toolbox
   \\    /   O peration     | Website:  https://openfoam.org
    \\  /    A nd           | Version:  7
     \\/     M anipulation  |
\*---------------------------------------------------------------------------*/
FoamFile
{
    version     2.0;
    format      ascii;
    class       volVectorField;
    location    "1e-05";
    object      U;
}
// * * * * * * * * * * * * * * * * * * * * * * * * * * * * * * * * * * * * * //

dimensions      [0 1 -1 0 0 0 0];

internalField   nonuniform List<vector> 
125
(
(1.53018 0 0)
(1.536 0 0)
(1.53978 0 0)
(1.54171 0 0)
(1.54173 0 0)
(1.53984 0 0)
(1.53614 0 0)
(1.53056 0 0)
(1.52332 0 0)
(1.51435 0 0)
(1.50379 0 0)
(1.49173 0 0)
(1.47821 0 0)
(1.46351 0 0)
(1.44788 0 0)
(1.43064 0 0)
(1.41362 0 0)
(1.39462 0 0)
(1.37565 0 0)
(1.35632 0 0)
(1.33653 0 0)
(1.31649 0 0)
(1.29699 0 0)
(1.27678 0 0)
(1.25783 0 0)
(1.23798 0 0)
(1.21986 0 0)
(1.20129 0 0)
(1.18775 0 0)
(1.19457 0 0)
(1.35392 0 0)
(1.83983 0 0)
(3.0556 0 0)
(4.88634 0 0)
(6.08854 0 0)
(6.62946 0 0)
(6.67954 0 0)
(6.46169 0 0)
(6.14776 0 0)
(5.83816 0 0)
(5.57559 0 0)
(5.3726 0 0)
(5.22932 0 0)
(5.13708 0 0)
(5.08118 0 0)
(5.05235 0 0)
(5.03923 0 0)
(5.03416 0 0)
(5.03509 0 0)
(5.03502 0 0)
(5.0341 0 0)
(5.03287 0 0)
(5.02801 0 0)
(5.02124 0 0)
(5.01185 0 0)
(5.00067 0 0)
(4.9882 0 0)
(4.97441 0 0)
(4.95957 0 0)
(4.94505 0 0)
(4.92915 0 0)
(4.91052 0 0)
(4.89426 0 0)
(4.87927 0 0)
(4.86289 0 0)
(4.84613 0 0)
(4.82936 0 0)
(4.81263 0 0)
(4.79589 0 0)
(4.77918 0 0)
(4.7624 0 0)
(4.74631 0 0)
(4.73072 0 0)
(4.71285 0 0)
(4.69562 0 0)
(4.68125 0 0)
(4.66693 0 0)
(4.65099 0 0)
(4.63551 0 0)
(4.62102 0 0)
(4.60671 0 0)
(4.5928 0 0)
(4.57931 0 0)
(4.5662 0 0)
(4.55337 0 0)
(4.54115 0 0)
(4.53006 0 0)
(4.51937 0 0)
(4.50858 0 0)
(4.49815 0 0)
(4.48896 0 0)
(4.48068 0 0)
(4.47284 0 0)
(4.46561 0 0)
(4.45914 0 0)
(4.45347 0 0)
(4.44858 0 0)
(4.44451 0 0)
(4.44126 0 0)
(4.43887 0 0)
(4.43736 0 0)
(4.43675 0 0)
(4.43705 0 0)
(4.43828 0 0)
(4.44047 0 0)
(4.44362 0 0)
(4.44775 0 0)
(4.45287 0 0)
(4.459 0 0)
(4.46614 0 0)
(4.47431 0 0)
(4.4835 0 0)
(4.49373 0 0)
(4.505 0 0)
(4.51733 0 0)
(4.53072 0 0)
(4.54511 0 0)
(4.56008 0 0)
(4.57655 0 0)
(4.59521 0 0)
(4.6138 0 0)
(4.6322 0 0)
(4.65221 0 0)
(4.675 0 0)
(4.6976 0 0)
)
;

boundaryField
{
    boundary
    {
        type            empty;
    }
    inlet
    {
        type            fixedValue;
        value           nonuniform 0();
    }
    outlet
    {
        type            zeroGradient;
    }
    procBoundary1to0
    {
        type            processor;
        value           uniform (4.72065 0 0);
    }
    procBoundary1to3
    {
        type            processor;
        value           uniform (1.52244 0 0);
    }
}


// ************************************************************************* //
