/*--------------------------------*- C++ -*----------------------------------*\
  =========                 |
  \\      /  F ield         | OpenFOAM: The Open Source CFD Toolbox
   \\    /   O peration     | Website:  https://openfoam.org
    \\  /    A nd           | Version:  7
     \\/     M anipulation  |
\*---------------------------------------------------------------------------*/
FoamFile
{
    version     2.0;
    format      ascii;
    class       volScalarField;
    location    "0.00012";
    object      H2O2;
}
// * * * * * * * * * * * * * * * * * * * * * * * * * * * * * * * * * * * * * //

dimensions      [0 0 0 0 0 0 0];

internalField   nonuniform List<scalar> 
124
(
2.19603e-07
2.16641e-07
2.13918e-07
2.11425e-07
2.0915e-07
2.07078e-07
2.05195e-07
2.03486e-07
2.01939e-07
2.00541e-07
1.99281e-07
1.98147e-07
1.97129e-07
1.96217e-07
1.95403e-07
1.94677e-07
1.94032e-07
1.93459e-07
1.92953e-07
1.92506e-07
1.92113e-07
1.91768e-07
1.91465e-07
1.91201e-07
1.90971e-07
1.90771e-07
1.90597e-07
1.90447e-07
1.90317e-07
1.90205e-07
1.90109e-07
1.90027e-07
1.89956e-07
1.89896e-07
1.89844e-07
1.898e-07
1.89763e-07
1.89731e-07
1.89703e-07
1.8968e-07
1.8966e-07
1.89643e-07
1.89628e-07
1.89616e-07
1.89605e-07
1.89595e-07
1.89586e-07
1.89579e-07
1.89572e-07
1.89566e-07
1.8956e-07
1.89555e-07
1.8955e-07
1.89546e-07
1.89542e-07
1.89537e-07
1.89534e-07
1.8953e-07
1.89526e-07
1.89522e-07
1.89519e-07
1.89515e-07
1.89512e-07
1.89509e-07
1.89505e-07
1.89502e-07
1.89499e-07
1.89495e-07
1.89492e-07
1.89489e-07
1.89486e-07
1.89482e-07
1.89479e-07
1.89476e-07
1.89473e-07
1.8947e-07
1.89466e-07
1.89463e-07
1.8946e-07
1.89457e-07
1.89454e-07
1.89451e-07
1.89448e-07
1.89445e-07
1.89442e-07
1.89439e-07
1.89436e-07
1.89433e-07
1.8943e-07
1.89428e-07
1.89425e-07
1.89422e-07
1.89419e-07
1.89417e-07
1.89414e-07
1.89411e-07
1.89409e-07
1.89406e-07
1.89404e-07
1.89401e-07
1.89399e-07
1.89396e-07
1.89394e-07
1.89392e-07
1.89389e-07
1.89387e-07
1.89385e-07
1.89383e-07
1.89381e-07
1.89378e-07
1.89376e-07
1.89374e-07
1.89372e-07
1.89371e-07
1.89369e-07
1.89367e-07
1.89365e-07
1.89364e-07
1.89362e-07
1.8936e-07
1.89359e-07
1.89357e-07
1.89356e-07
1.89355e-07
)
;

boundaryField
{
    boundary
    {
        type            empty;
    }
    inlet
    {
        type            fixedValue;
        value           nonuniform 0();
    }
    outlet
    {
        type            zeroGradient;
    }
    procBoundary0to1
    {
        type            processor;
        value           uniform 2.22755e-07;
    }
}


// ************************************************************************* //
