/*--------------------------------*- C++ -*----------------------------------*\
  =========                 |
  \\      /  F ield         | OpenFOAM: The Open Source CFD Toolbox
   \\    /   O peration     | Website:  https://openfoam.org
    \\  /    A nd           | Version:  7
     \\/     M anipulation  |
\*---------------------------------------------------------------------------*/
FoamFile
{
    version     2.0;
    format      ascii;
    class       volScalarField;
    location    "7e-05";
    object      H;
}
// * * * * * * * * * * * * * * * * * * * * * * * * * * * * * * * * * * * * * //

dimensions      [0 0 0 0 0 0 0];

internalField   nonuniform List<scalar> 
125
(
1.5259e-41
2.21329e-41
2.50603e-41
2.70609e-41
2.86802e-41
2.99681e-41
3.09232e-41
3.15777e-41
3.19931e-41
3.22383e-41
3.23738e-41
3.2444e-41
3.24782e-41
3.24936e-41
3.24999e-41
3.25019e-41
3.2502e-41
3.25012e-41
3.25001e-41
3.24987e-41
3.24972e-41
3.24956e-41
3.24939e-41
3.24922e-41
3.24904e-41
3.24886e-41
3.24867e-41
3.24847e-41
3.24826e-41
3.24805e-41
3.24784e-41
3.24762e-41
3.24739e-41
3.24716e-41
3.24692e-41
3.24667e-41
3.24643e-41
3.24617e-41
3.24591e-41
3.24565e-41
3.24538e-41
3.24511e-41
3.24483e-41
3.24455e-41
3.24427e-41
3.24398e-41
3.24369e-41
3.2434e-41
3.2431e-41
3.2428e-41
3.24249e-41
3.24219e-41
3.24188e-41
3.24157e-41
3.24125e-41
3.24094e-41
3.24062e-41
3.2403e-41
3.23998e-41
3.23966e-41
3.23934e-41
3.23902e-41
3.2387e-41
3.23838e-41
3.23806e-41
3.23773e-41
3.23741e-41
3.23709e-41
3.23677e-41
3.23645e-41
3.23614e-41
3.23582e-41
3.23551e-41
3.23519e-41
3.23488e-41
3.23458e-41
3.23427e-41
3.23397e-41
3.23367e-41
3.23337e-41
3.23308e-41
3.23279e-41
3.23251e-41
3.23222e-41
3.23195e-41
3.23167e-41
3.2314e-41
3.23114e-41
3.23088e-41
3.23062e-41
3.23037e-41
3.23013e-41
3.22989e-41
3.22965e-41
3.22942e-41
3.2292e-41
3.22898e-41
3.22877e-41
3.22856e-41
3.22836e-41
3.22816e-41
3.22797e-41
3.22779e-41
3.22761e-41
3.22744e-41
3.22727e-41
3.22711e-41
3.22695e-41
3.22681e-41
3.22666e-41
3.22652e-41
3.22639e-41
3.22626e-41
3.22614e-41
3.22602e-41
3.22591e-41
3.2258e-41
3.2257e-41
3.2256e-41
3.22551e-41
3.22541e-41
3.2253e-41
3.22515e-41
3.22491e-41
3.22452e-41
)
;

boundaryField
{
    boundary
    {
        type            empty;
    }
    inlet
    {
        type            fixedValue;
        value           uniform 0;
    }
    outlet
    {
        type            zeroGradient;
    }
    procBoundary2to3
    {
        type            processor;
        value           uniform 3.22399e-41;
    }
}


// ************************************************************************* //
