/*--------------------------------*- C++ -*----------------------------------*\
  =========                 |
  \\      /  F ield         | OpenFOAM: The Open Source CFD Toolbox
   \\    /   O peration     | Website:  https://openfoam.org
    \\  /    A nd           | Version:  7
     \\/     M anipulation  |
\*---------------------------------------------------------------------------*/
FoamFile
{
    version     2.0;
    format      ascii;
    class       volScalarField;
    location    "7e-05";
    object      H2O;
}
// * * * * * * * * * * * * * * * * * * * * * * * * * * * * * * * * * * * * * //

dimensions      [0 0 0 0 0 0 0];

internalField   nonuniform List<scalar> 
125
(
8.2721e-48
2.36255e-47
4.12572e-47
5.8823e-47
7.45052e-47
8.72414e-47
9.67404e-47
1.03295e-46
1.07507e-46
1.10043e-46
1.11481e-46
1.12253e-46
1.12647e-46
1.12838e-46
1.12927e-46
1.12967e-46
1.12984e-46
1.12991e-46
1.12994e-46
1.12995e-46
1.12995e-46
1.12995e-46
1.12994e-46
1.12994e-46
1.12994e-46
1.12994e-46
1.12994e-46
1.12993e-46
1.12993e-46
1.12993e-46
1.12993e-46
1.12993e-46
1.12993e-46
1.12992e-46
1.12992e-46
1.12992e-46
1.12992e-46
1.12992e-46
1.12992e-46
1.12993e-46
1.12993e-46
1.12993e-46
1.12993e-46
1.12994e-46
1.12994e-46
1.12995e-46
1.12995e-46
1.12996e-46
1.12996e-46
1.12997e-46
1.12998e-46
1.12999e-46
1.13e-46
1.13001e-46
1.13002e-46
1.13004e-46
1.13005e-46
1.13007e-46
1.13008e-46
1.1301e-46
1.13012e-46
1.13014e-46
1.13016e-46
1.13018e-46
1.1302e-46
1.13023e-46
1.13025e-46
1.13028e-46
1.1303e-46
1.13033e-46
1.13036e-46
1.1304e-46
1.13043e-46
1.13046e-46
1.1305e-46
1.13054e-46
1.13058e-46
1.13062e-46
1.13066e-46
1.1307e-46
1.13074e-46
1.13079e-46
1.13084e-46
1.13089e-46
1.13094e-46
1.13099e-46
1.13104e-46
1.1311e-46
1.13116e-46
1.13122e-46
1.13128e-46
1.13134e-46
1.1314e-46
1.13147e-46
1.13153e-46
1.1316e-46
1.13167e-46
1.13174e-46
1.13182e-46
1.13189e-46
1.13197e-46
1.13205e-46
1.13213e-46
1.13221e-46
1.13229e-46
1.13237e-46
1.13246e-46
1.13255e-46
1.13264e-46
1.13273e-46
1.13282e-46
1.13291e-46
1.13301e-46
1.13311e-46
1.1332e-46
1.1333e-46
1.1334e-46
1.13351e-46
1.13361e-46
1.13369e-46
1.13372e-46
1.13353e-46
1.13249e-46
1.12846e-46
1.11398e-46
)
;

boundaryField
{
    boundary
    {
        type            empty;
    }
    inlet
    {
        type            fixedValue;
        value           uniform 0;
    }
    outlet
    {
        type            zeroGradient;
    }
    procBoundary2to3
    {
        type            processor;
        value           uniform 1.08953e-46;
    }
}


// ************************************************************************* //
