/*--------------------------------*- C++ -*----------------------------------*\
  =========                 |
  \\      /  F ield         | OpenFOAM: The Open Source CFD Toolbox
   \\    /   O peration     | Website:  https://openfoam.org
    \\  /    A nd           | Version:  7
     \\/     M anipulation  |
\*---------------------------------------------------------------------------*/
FoamFile
{
    version     2.0;
    format      ascii;
    class       volScalarField;
    location    "7e-05";
    object      H2O2;
}
// * * * * * * * * * * * * * * * * * * * * * * * * * * * * * * * * * * * * * //

dimensions      [0 0 0 0 0 0 0];

internalField   nonuniform List<scalar> 
125
(
1.89706e-52
5.81651e-52
1.07699e-51
1.60741e-51
2.10622e-51
2.52591e-51
2.8459e-51
3.06925e-51
3.2132e-51
3.29955e-51
3.34806e-51
3.37374e-51
3.38662e-51
3.39275e-51
3.39554e-51
3.39675e-51
3.39725e-51
3.39745e-51
3.39752e-51
3.39754e-51
3.39754e-51
3.39754e-51
3.39753e-51
3.39752e-51
3.39751e-51
3.3975e-51
3.39749e-51
3.39748e-51
3.39748e-51
3.39747e-51
3.39746e-51
3.39745e-51
3.39745e-51
3.39744e-51
3.39744e-51
3.39743e-51
3.39743e-51
3.39743e-51
3.39743e-51
3.39743e-51
3.39743e-51
3.39744e-51
3.39744e-51
3.39745e-51
3.39746e-51
3.39747e-51
3.39748e-51
3.3975e-51
3.39752e-51
3.39754e-51
3.39756e-51
3.39758e-51
3.39761e-51
3.39764e-51
3.39767e-51
3.3977e-51
3.39774e-51
3.39778e-51
3.39783e-51
3.39787e-51
3.39792e-51
3.39798e-51
3.39804e-51
3.3981e-51
3.39816e-51
3.39823e-51
3.3983e-51
3.39838e-51
3.39846e-51
3.39854e-51
3.39863e-51
3.39872e-51
3.39881e-51
3.39892e-51
3.39902e-51
3.39913e-51
3.39924e-51
3.39936e-51
3.39949e-51
3.39961e-51
3.39975e-51
3.39988e-51
3.40003e-51
3.40018e-51
3.40033e-51
3.40049e-51
3.40065e-51
3.40082e-51
3.40099e-51
3.40117e-51
3.40136e-51
3.40155e-51
3.40174e-51
3.40194e-51
3.40215e-51
3.40236e-51
3.40258e-51
3.4028e-51
3.40303e-51
3.40326e-51
3.4035e-51
3.40375e-51
3.404e-51
3.40426e-51
3.40452e-51
3.40479e-51
3.40506e-51
3.40534e-51
3.40562e-51
3.40591e-51
3.40621e-51
3.40651e-51
3.40681e-51
3.40712e-51
3.40744e-51
3.40776e-51
3.40808e-51
3.40841e-51
3.40873e-51
3.40904e-51
3.4092e-51
3.4087e-51
3.40543e-51
3.39128e-51
3.33619e-51
)
;

boundaryField
{
    boundary
    {
        type            empty;
    }
    inlet
    {
        type            fixedValue;
        value           uniform 0;
    }
    outlet
    {
        type            zeroGradient;
    }
    procBoundary2to3
    {
        type            processor;
        value           uniform 3.23502e-51;
    }
}


// ************************************************************************* //
