/*--------------------------------*- C++ -*----------------------------------*\
  =========                 |
  \\      /  F ield         | OpenFOAM: The Open Source CFD Toolbox
   \\    /   O peration     | Website:  https://openfoam.org
    \\  /    A nd           | Version:  7
     \\/     M anipulation  |
\*---------------------------------------------------------------------------*/
FoamFile
{
    version     2.0;
    format      ascii;
    class       volScalarField;
    location    "7e-05";
    object      HO2;
}
// * * * * * * * * * * * * * * * * * * * * * * * * * * * * * * * * * * * * * //

dimensions      [0 0 0 0 0 0 0];

internalField   nonuniform List<scalar> 
125
(
5.78922e-38
1.32852e-37
2.05443e-37
2.70996e-37
3.25888e-37
3.68425e-37
3.98956e-37
4.19315e-37
4.31981e-37
4.39366e-37
4.4342e-37
4.45524e-37
4.4656e-37
4.47045e-37
4.47262e-37
4.47353e-37
4.47389e-37
4.47401e-37
4.47403e-37
4.474e-37
4.47397e-37
4.47392e-37
4.47387e-37
4.47382e-37
4.47377e-37
4.47371e-37
4.47366e-37
4.4736e-37
4.47354e-37
4.47348e-37
4.47341e-37
4.47335e-37
4.47328e-37
4.47322e-37
4.47315e-37
4.47308e-37
4.47301e-37
4.47294e-37
4.47286e-37
4.47279e-37
4.47272e-37
4.47264e-37
4.47257e-37
4.47249e-37
4.47242e-37
4.47234e-37
4.47227e-37
4.47219e-37
4.47212e-37
4.47204e-37
4.47197e-37
4.4719e-37
4.47182e-37
4.47175e-37
4.47168e-37
4.47161e-37
4.47154e-37
4.47147e-37
4.4714e-37
4.47133e-37
4.47127e-37
4.4712e-37
4.47114e-37
4.47108e-37
4.47102e-37
4.47096e-37
4.47091e-37
4.47085e-37
4.4708e-37
4.47075e-37
4.4707e-37
4.47066e-37
4.47061e-37
4.47057e-37
4.47053e-37
4.4705e-37
4.47047e-37
4.47044e-37
4.47041e-37
4.47038e-37
4.47036e-37
4.47034e-37
4.47033e-37
4.47032e-37
4.47031e-37
4.4703e-37
4.4703e-37
4.4703e-37
4.47031e-37
4.47032e-37
4.47033e-37
4.47034e-37
4.47036e-37
4.47039e-37
4.47041e-37
4.47044e-37
4.47048e-37
4.47052e-37
4.47056e-37
4.4706e-37
4.47065e-37
4.47071e-37
4.47076e-37
4.47083e-37
4.47089e-37
4.47096e-37
4.47103e-37
4.47111e-37
4.47119e-37
4.47127e-37
4.47136e-37
4.47145e-37
4.47155e-37
4.47164e-37
4.47175e-37
4.47185e-37
4.47196e-37
4.47207e-37
4.47217e-37
4.47226e-37
4.47225e-37
4.47178e-37
4.46934e-37
4.45913e-37
4.41933e-37
)
;

boundaryField
{
    boundary
    {
        type            empty;
    }
    inlet
    {
        type            fixedValue;
        value           uniform 0;
    }
    outlet
    {
        type            zeroGradient;
    }
    procBoundary2to3
    {
        type            processor;
        value           uniform 4.3469e-37;
    }
}


// ************************************************************************* //
