/*--------------------------------*- C++ -*----------------------------------*\
  =========                 |
  \\      /  F ield         | OpenFOAM: The Open Source CFD Toolbox
   \\    /   O peration     | Website:  https://openfoam.org
    \\  /    A nd           | Version:  7
     \\/     M anipulation  |
\*---------------------------------------------------------------------------*/
FoamFile
{
    version     2.0;
    format      ascii;
    class       volScalarField;
    location    "7e-05";
    object      O;
}
// * * * * * * * * * * * * * * * * * * * * * * * * * * * * * * * * * * * * * //

dimensions      [0 0 0 0 0 0 0];

internalField   nonuniform List<scalar> 
125
(
1.66914e-47
4.04125e-47
6.37603e-47
8.52477e-47
1.0368e-46
1.18393e-46
1.29328e-46
1.36914e-46
1.41847e-46
1.44865e-46
1.46611e-46
1.47571e-46
1.48072e-46
1.48323e-46
1.48443e-46
1.48498e-46
1.48521e-46
1.4853e-46
1.48532e-46
1.48532e-46
1.48531e-46
1.48528e-46
1.48526e-46
1.48523e-46
1.48521e-46
1.48518e-46
1.48515e-46
1.48512e-46
1.48509e-46
1.48506e-46
1.48503e-46
1.48499e-46
1.48496e-46
1.48493e-46
1.48489e-46
1.48486e-46
1.48482e-46
1.48478e-46
1.48475e-46
1.48471e-46
1.48467e-46
1.48463e-46
1.48459e-46
1.48456e-46
1.48452e-46
1.48448e-46
1.48444e-46
1.4844e-46
1.48436e-46
1.48432e-46
1.48428e-46
1.48424e-46
1.4842e-46
1.48417e-46
1.48413e-46
1.48409e-46
1.48405e-46
1.48401e-46
1.48398e-46
1.48394e-46
1.48391e-46
1.48387e-46
1.48384e-46
1.4838e-46
1.48377e-46
1.48374e-46
1.4837e-46
1.48367e-46
1.48364e-46
1.48361e-46
1.48358e-46
1.48356e-46
1.48353e-46
1.4835e-46
1.48348e-46
1.48346e-46
1.48343e-46
1.48341e-46
1.48339e-46
1.48337e-46
1.48336e-46
1.48334e-46
1.48333e-46
1.48331e-46
1.4833e-46
1.48329e-46
1.48328e-46
1.48327e-46
1.48327e-46
1.48326e-46
1.48326e-46
1.48325e-46
1.48325e-46
1.48325e-46
1.48326e-46
1.48326e-46
1.48327e-46
1.48327e-46
1.48328e-46
1.48329e-46
1.48331e-46
1.48332e-46
1.48334e-46
1.48335e-46
1.48337e-46
1.48339e-46
1.48341e-46
1.48344e-46
1.48346e-46
1.48349e-46
1.48352e-46
1.48354e-46
1.48358e-46
1.48361e-46
1.48364e-46
1.48368e-46
1.48371e-46
1.48375e-46
1.48377e-46
1.48377e-46
1.48367e-46
1.48318e-46
1.48146e-46
1.47602e-46
1.46048e-46
)
;

boundaryField
{
    boundary
    {
        type            empty;
    }
    inlet
    {
        type            fixedValue;
        value           uniform 0;
    }
    outlet
    {
        type            zeroGradient;
    }
    procBoundary2to3
    {
        type            processor;
        value           uniform 1.44029e-46;
    }
}


// ************************************************************************* //
