/*--------------------------------*- C++ -*----------------------------------*\
  =========                 |
  \\      /  F ield         | OpenFOAM: The Open Source CFD Toolbox
   \\    /   O peration     | Website:  https://openfoam.org
    \\  /    A nd           | Version:  7
     \\/     M anipulation  |
\*---------------------------------------------------------------------------*/
FoamFile
{
    version     2.0;
    format      ascii;
    class       volScalarField;
    location    "7e-05";
    object      OH;
}
// * * * * * * * * * * * * * * * * * * * * * * * * * * * * * * * * * * * * * //

dimensions      [0 0 0 0 0 0 0];

internalField   nonuniform List<scalar> 
125
(
1.01538e-47
2.10006e-47
2.95859e-47
3.63318e-47
4.15048e-47
4.53096e-47
4.79607e-47
4.96997e-47
5.07718e-47
5.13937e-47
5.17341e-47
5.19104e-47
5.19969e-47
5.20369e-47
5.20542e-47
5.20608e-47
5.20625e-47
5.2062e-47
5.20606e-47
5.20587e-47
5.20566e-47
5.20543e-47
5.20519e-47
5.20494e-47
5.20467e-47
5.2044e-47
5.20411e-47
5.20382e-47
5.20351e-47
5.2032e-47
5.20287e-47
5.20254e-47
5.20219e-47
5.20183e-47
5.20147e-47
5.2011e-47
5.20071e-47
5.20032e-47
5.19992e-47
5.19951e-47
5.19909e-47
5.19867e-47
5.19823e-47
5.19779e-47
5.19734e-47
5.19688e-47
5.19641e-47
5.19594e-47
5.19546e-47
5.19498e-47
5.19448e-47
5.19398e-47
5.19348e-47
5.19296e-47
5.19245e-47
5.19192e-47
5.19139e-47
5.19086e-47
5.19032e-47
5.18977e-47
5.18922e-47
5.18867e-47
5.18811e-47
5.18755e-47
5.18699e-47
5.18642e-47
5.18584e-47
5.18527e-47
5.18469e-47
5.1841e-47
5.18352e-47
5.18293e-47
5.18234e-47
5.18175e-47
5.18116e-47
5.18056e-47
5.17997e-47
5.17937e-47
5.17877e-47
5.17817e-47
5.17757e-47
5.17697e-47
5.17637e-47
5.17577e-47
5.17516e-47
5.17456e-47
5.17396e-47
5.17336e-47
5.17276e-47
5.17216e-47
5.17156e-47
5.17097e-47
5.17037e-47
5.16977e-47
5.16918e-47
5.16859e-47
5.168e-47
5.16741e-47
5.16682e-47
5.16624e-47
5.16565e-47
5.16507e-47
5.16449e-47
5.16391e-47
5.16334e-47
5.16276e-47
5.16219e-47
5.16162e-47
5.16105e-47
5.16049e-47
5.15992e-47
5.15936e-47
5.1588e-47
5.15824e-47
5.15768e-47
5.15712e-47
5.15657e-47
5.15601e-47
5.15545e-47
5.15487e-47
5.15421e-47
5.15329e-47
5.15145e-47
5.14679e-47
5.13607e-47
)
;

boundaryField
{
    boundary
    {
        type            empty;
    }
    inlet
    {
        type            fixedValue;
        value           uniform 0;
    }
    outlet
    {
        type            zeroGradient;
    }
    procBoundary2to3
    {
        type            processor;
        value           uniform 5.12423e-47;
    }
}


// ************************************************************************* //
