/*--------------------------------*- C++ -*----------------------------------*\
  =========                 |
  \\      /  F ield         | OpenFOAM: The Open Source CFD Toolbox
   \\    /   O peration     | Website:  https://openfoam.org
    \\  /    A nd           | Version:  7
     \\/     M anipulation  |
\*---------------------------------------------------------------------------*/
FoamFile
{
    version     2.0;
    format      ascii;
    class       volScalarField;
    location    "7e-05";
    object      p;
}
// * * * * * * * * * * * * * * * * * * * * * * * * * * * * * * * * * * * * * //

dimensions      [1 -1 -2 0 0 0 0];

internalField   nonuniform List<scalar> 
125
(
102870
102870
102870
102870
102870
102870
102870
102870
102870
102870
102870
102870
102870
102870
102870
102870
102870
102870
102870
102870
102870
102870
102870
102870
102870
102870
102870
102870
102870
102870
102870
102870
102870
102870
102870
102870
102870
102870
102870
102870
102870
102870
102870
102870
102870
102870
102870
102870
102870
102870
102870
102870
102870
102870
102870
102870
102870
102870
102870
102870
102870
102871
102871
102871
102871
102871
102871
102871
102871
102871
102871
102871
102871
102871
102871
102871
102871
102871
102871
102871
102871
102871
102872
102872
102872
102872
102872
102872
102872
102872
102872
102872
102872
102872
102872
102872
102872
102872
102872
102872
102872
102872
102872
102872
102872
102872
102872
102872
102872
102872
102872
102872
102872
102872
102872
102872
102872
102872
102872
102872
102872
102872
102872
102872
102872
)
;

boundaryField
{
    boundary
    {
        type            empty;
    }
    inlet
    {
        type            zeroGradient;
    }
    outlet
    {
        type            waveTransmissive;
        gamma           1.4;
        value           nonuniform 0();
    }
    procBoundary2to3
    {
        type            processor;
        value           uniform 102872;
    }
}


// ************************************************************************* //
