/*--------------------------------*- C++ -*----------------------------------*\
  =========                 |
  \\      /  F ield         | OpenFOAM: The Open Source CFD Toolbox
   \\    /   O peration     | Website:  https://openfoam.org
    \\  /    A nd           | Version:  7
     \\/     M anipulation  |
\*---------------------------------------------------------------------------*/
FoamFile
{
    version     2.0;
    format      ascii;
    class       surfaceScalarField;
    location    "7e-05";
    object      phi;
}
// * * * * * * * * * * * * * * * * * * * * * * * * * * * * * * * * * * * * * //

dimensions      [1 0 -1 0 0 0 0];

internalField   nonuniform List<scalar> 
124
(
6.91632e-06
6.91705e-06
6.91663e-06
6.91618e-06
6.91635e-06
6.91746e-06
6.91955e-06
6.92253e-06
6.92618e-06
6.9303e-06
6.9347e-06
6.93927e-06
6.9439e-06
6.94856e-06
6.95321e-06
6.95783e-06
6.96242e-06
6.96696e-06
6.97147e-06
6.97593e-06
6.98034e-06
6.9847e-06
6.989e-06
6.99325e-06
6.99744e-06
7.00158e-06
7.00564e-06
7.00965e-06
7.01359e-06
7.01746e-06
7.02126e-06
7.02498e-06
7.02863e-06
7.03221e-06
7.0357e-06
7.03911e-06
7.04244e-06
7.04568e-06
7.04884e-06
7.05191e-06
7.05489e-06
7.05777e-06
7.06056e-06
7.06326e-06
7.06585e-06
7.06835e-06
7.07075e-06
7.07304e-06
7.07523e-06
7.07732e-06
7.0793e-06
7.08117e-06
7.08293e-06
7.08458e-06
7.08612e-06
7.08754e-06
7.08885e-06
7.09005e-06
7.09113e-06
7.09209e-06
7.09294e-06
7.09367e-06
7.09427e-06
7.09476e-06
7.09513e-06
7.09538e-06
7.0955e-06
7.0955e-06
7.09538e-06
7.09514e-06
7.09478e-06
7.09429e-06
7.09368e-06
7.09295e-06
7.09209e-06
7.09112e-06
7.09002e-06
7.08879e-06
7.08745e-06
7.08599e-06
7.0844e-06
7.08269e-06
7.08087e-06
7.07893e-06
7.07686e-06
7.07469e-06
7.07239e-06
7.06998e-06
7.06746e-06
7.06482e-06
7.06207e-06
7.05921e-06
7.05624e-06
7.05317e-06
7.04998e-06
7.0467e-06
7.0433e-06
7.03981e-06
7.03622e-06
7.03252e-06
7.02873e-06
7.02485e-06
7.02087e-06
7.0168e-06
7.01263e-06
7.00838e-06
7.00405e-06
6.99963e-06
6.99513e-06
6.99054e-06
6.98588e-06
6.98114e-06
6.97633e-06
6.97144e-06
6.96648e-06
6.96145e-06
6.95636e-06
6.9512e-06
6.94598e-06
6.9407e-06
6.93535e-06
6.92995e-06
6.9245e-06
6.91899e-06
)
;

boundaryField
{
    boundary
    {
        type            empty;
        value           nonuniform 0();
    }
    inlet
    {
        type            calculated;
        value           uniform -6.91277e-06;
    }
    outlet
    {
        type            calculated;
        value           nonuniform 0();
    }
    procBoundary2to3
    {
        type            processor;
        value           uniform 6.91343e-06;
    }
}


// ************************************************************************* //
