/*--------------------------------*- C++ -*----------------------------------*\
  =========                 |
  \\      /  F ield         | OpenFOAM: The Open Source CFD Toolbox
   \\    /   O peration     | Website:  https://openfoam.org
    \\  /    A nd           | Version:  7
     \\/     M anipulation  |
\*---------------------------------------------------------------------------*/
FoamFile
{
    version     2.0;
    format      ascii;
    class       volScalarField;
    location    "7e-05";
    object      Qdot;
}
// * * * * * * * * * * * * * * * * * * * * * * * * * * * * * * * * * * * * * //

dimensions      [1 -1 -3 0 0 0 0];

internalField   nonuniform List<scalar> 
125
(
-2.46718e-27
-2.00766e-27
-2.01323e-27
-2.11803e-27
-2.22976e-27
-2.32251e-27
-2.39031e-27
-2.43522e-27
-2.46252e-27
-2.47788e-27
-2.48594e-27
-2.4899e-27
-2.49174e-27
-2.49254e-27
-2.49286e-27
-2.49297e-27
-2.493e-27
-2.493e-27
-2.49298e-27
-2.49295e-27
-2.49292e-27
-2.49289e-27
-2.49286e-27
-2.49283e-27
-2.4928e-27
-2.49276e-27
-2.49273e-27
-2.4927e-27
-2.49266e-27
-2.49263e-27
-2.4926e-27
-2.49256e-27
-2.49253e-27
-2.49249e-27
-2.49246e-27
-2.49242e-27
-2.49239e-27
-2.49236e-27
-2.49232e-27
-2.49229e-27
-2.49226e-27
-2.49222e-27
-2.49219e-27
-2.49216e-27
-2.49213e-27
-2.49211e-27
-2.49208e-27
-2.49205e-27
-2.49203e-27
-2.492e-27
-2.49198e-27
-2.49196e-27
-2.49194e-27
-2.49193e-27
-2.49191e-27
-2.4919e-27
-2.49189e-27
-2.49188e-27
-2.49188e-27
-2.49188e-27
-2.49188e-27
-2.49188e-27
-2.49189e-27
-2.49189e-27
-2.49191e-27
-2.49192e-27
-2.49194e-27
-2.49196e-27
-2.49199e-27
-2.49202e-27
-2.49205e-27
-2.49209e-27
-2.49213e-27
-2.49217e-27
-2.49222e-27
-2.49227e-27
-2.49233e-27
-2.49239e-27
-2.49246e-27
-2.49253e-27
-2.4926e-27
-2.49268e-27
-2.49276e-27
-2.49285e-27
-2.49294e-27
-2.49304e-27
-2.49314e-27
-2.49325e-27
-2.49336e-27
-2.49347e-27
-2.49359e-27
-2.49372e-27
-2.49385e-27
-2.49398e-27
-2.49412e-27
-2.49426e-27
-2.49441e-27
-2.49456e-27
-2.49472e-27
-2.49487e-27
-2.49504e-27
-2.4952e-27
-2.49537e-27
-2.49555e-27
-2.49572e-27
-2.4959e-27
-2.49609e-27
-2.49627e-27
-2.49646e-27
-2.49665e-27
-2.49684e-27
-2.49703e-27
-2.49723e-27
-2.49742e-27
-2.49762e-27
-2.49782e-27
-2.49802e-27
-2.49821e-27
-2.49841e-27
-2.49861e-27
-2.4988e-27
-2.49899e-27
-2.49915e-27
-2.49924e-27
-2.49912e-27
)
;

boundaryField
{
    boundary
    {
        type            empty;
    }
    inlet
    {
        type            calculated;
        value           uniform 0;
    }
    outlet
    {
        type            calculated;
        value           nonuniform 0();
    }
    procBoundary2to3
    {
        type            processor;
        value           uniform 0;
    }
}


// ************************************************************************* //
