/*--------------------------------*- C++ -*----------------------------------*\
  =========                 |
  \\      /  F ield         | OpenFOAM: The Open Source CFD Toolbox
   \\    /   O peration     | Website:  https://openfoam.org
    \\  /    A nd           | Version:  7
     \\/     M anipulation  |
\*---------------------------------------------------------------------------*/
FoamFile
{
    version     2.0;
    format      ascii;
    class       volScalarField;
    location    "7e-05";
    object      rho;
}
// * * * * * * * * * * * * * * * * * * * * * * * * * * * * * * * * * * * * * //

dimensions      [1 -3 0 0 0 0 0];

internalField   nonuniform List<scalar> 
125
(
0.862272
0.8617
0.861053
0.860439
0.85992
0.859517
0.85923
0.859039
0.858922
0.858854
0.858817
0.858798
0.858789
0.858785
0.858783
0.858783
0.858783
0.858783
0.858783
0.858783
0.858783
0.858783
0.858784
0.858784
0.858784
0.858784
0.858785
0.858785
0.858785
0.858785
0.858786
0.858786
0.858786
0.858787
0.858787
0.858787
0.858788
0.858788
0.858789
0.858789
0.858789
0.85879
0.85879
0.858791
0.858791
0.858792
0.858792
0.858793
0.858793
0.858794
0.858794
0.858795
0.858795
0.858796
0.858796
0.858797
0.858798
0.858798
0.858799
0.858799
0.8588
0.858801
0.858801
0.858802
0.858802
0.858803
0.858804
0.858804
0.858805
0.858805
0.858806
0.858807
0.858807
0.858808
0.858808
0.858809
0.85881
0.85881
0.858811
0.858811
0.858812
0.858812
0.858813
0.858813
0.858814
0.858814
0.858815
0.858815
0.858816
0.858816
0.858817
0.858817
0.858817
0.858818
0.858818
0.858818
0.858818
0.858819
0.858819
0.858819
0.858819
0.858819
0.858819
0.858819
0.858819
0.858819
0.858819
0.858819
0.858818
0.858818
0.858818
0.858817
0.858817
0.858817
0.858816
0.858816
0.858815
0.858814
0.858814
0.858813
0.858812
0.858812
0.858811
0.85881
0.85881
)
;

boundaryField
{
    boundary
    {
        type            empty;
    }
    inlet
    {
        type            calculated;
        value           uniform 0.862507;
    }
    outlet
    {
        type            calculated;
        value           nonuniform 0();
    }
    procBoundary2to3
    {
        type            processor;
        value           uniform 0.858811;
    }
}


// ************************************************************************* //
