/*--------------------------------*- C++ -*----------------------------------*\
  =========                 |
  \\      /  F ield         | OpenFOAM: The Open Source CFD Toolbox
   \\    /   O peration     | Website:  https://openfoam.org
    \\  /    A nd           | Version:  7
     \\/     M anipulation  |
\*---------------------------------------------------------------------------*/
FoamFile
{
    version     2.0;
    format      ascii;
    class       volScalarField;
    location    "7e-05";
    object      T;
}
// * * * * * * * * * * * * * * * * * * * * * * * * * * * * * * * * * * * * * //

dimensions      [0 0 0 1 0 0 0];

internalField   nonuniform List<scalar> 
125
(
300.082
300.281
300.507
300.721
300.902
301.043
301.144
301.211
301.252
301.276
301.289
301.295
301.299
301.3
301.301
301.301
301.301
301.301
301.301
301.301
301.301
301.301
301.3
301.3
301.3
301.3
301.3
301.3
301.3
301.3
301.3
301.3
301.3
301.3
301.299
301.299
301.299
301.299
301.299
301.299
301.299
301.299
301.299
301.298
301.298
301.298
301.298
301.298
301.298
301.298
301.298
301.298
301.297
301.297
301.297
301.297
301.297
301.297
301.297
301.297
301.297
301.297
301.296
301.296
301.296
301.296
301.296
301.296
301.296
301.296
301.296
301.296
301.296
301.296
301.296
301.295
301.295
301.295
301.295
301.295
301.295
301.295
301.295
301.295
301.295
301.295
301.295
301.295
301.295
301.295
301.295
301.295
301.295
301.295
301.295
301.295
301.295
301.295
301.295
301.295
301.295
301.295
301.296
301.296
301.296
301.296
301.296
301.296
301.296
301.296
301.296
301.296
301.296
301.296
301.296
301.297
301.297
301.297
301.297
301.297
301.297
301.297
301.297
301.297
301.297
)
;

boundaryField
{
    boundary
    {
        type            empty;
    }
    inlet
    {
        type            fixedValue;
        value           uniform 300;
    }
    outlet
    {
        type            zeroGradient;
    }
    procBoundary2to3
    {
        type            processor;
        value           uniform 301.296;
    }
}


// ************************************************************************* //
