/*--------------------------------*- C++ -*----------------------------------*\
  =========                 |
  \\      /  F ield         | OpenFOAM: The Open Source CFD Toolbox
   \\    /   O peration     | Website:  https://openfoam.org
    \\  /    A nd           | Version:  7
     \\/     M anipulation  |
\*---------------------------------------------------------------------------*/
FoamFile
{
    version     2.0;
    format      ascii;
    class       volVectorField;
    location    "7e-05";
    object      U;
}
// * * * * * * * * * * * * * * * * * * * * * * * * * * * * * * * * * * * * * //

dimensions      [0 1 -1 0 0 0 0];

internalField   nonuniform List<vector> 
125
(
(2.3501 0 0)
(2.3532 0 0)
(2.35464 0 0)
(2.35562 0 0)
(2.35696 0 0)
(2.35842 0 0)
(2.3598 0 0)
(2.36118 0 0)
(2.36265 0 0)
(2.36417 0 0)
(2.36574 0 0)
(2.36734 0 0)
(2.36893 0 0)
(2.37053 0 0)
(2.37213 0 0)
(2.37371 0 0)
(2.37528 0 0)
(2.37684 0 0)
(2.37839 0 0)
(2.37992 0 0)
(2.38143 0 0)
(2.38292 0 0)
(2.3844 0 0)
(2.38586 0 0)
(2.3873 0 0)
(2.38872 0 0)
(2.39011 0 0)
(2.3915 0 0)
(2.39287 0 0)
(2.39418 0 0)
(2.39547 0 0)
(2.39676 0 0)
(2.39803 0 0)
(2.39926 0 0)
(2.40047 0 0)
(2.40164 0 0)
(2.40279 0 0)
(2.40391 0 0)
(2.405 0 0)
(2.40606 0 0)
(2.4071 0 0)
(2.40809 0 0)
(2.40906 0 0)
(2.41 0 0)
(2.4109 0 0)
(2.41177 0 0)
(2.41259 0 0)
(2.4134 0 0)
(2.41416 0 0)
(2.41489 0 0)
(2.41558 0 0)
(2.41624 0 0)
(2.41685 0 0)
(2.41744 0 0)
(2.41798 0 0)
(2.41848 0 0)
(2.41895 0 0)
(2.41937 0 0)
(2.41976 0 0)
(2.42011 0 0)
(2.42041 0 0)
(2.42068 0 0)
(2.42091 0 0)
(2.42109 0 0)
(2.42124 0 0)
(2.42134 0 0)
(2.4214 0 0)
(2.42142 0 0)
(2.4214 0 0)
(2.42135 0 0)
(2.42123 0 0)
(2.42108 0 0)
(2.4209 0 0)
(2.42066 0 0)
(2.42039 0 0)
(2.42008 0 0)
(2.41972 0 0)
(2.41932 0 0)
(2.41888 0 0)
(2.4184 0 0)
(2.41788 0 0)
(2.41732 0 0)
(2.41671 0 0)
(2.41607 0 0)
(2.41539 0 0)
(2.41466 0 0)
(2.4139 0 0)
(2.41309 0 0)
(2.41224 0 0)
(2.41137 0 0)
(2.41044 0 0)
(2.40949 0 0)
(2.40849 0 0)
(2.40746 0 0)
(2.40639 0 0)
(2.40528 0 0)
(2.40415 0 0)
(2.40297 0 0)
(2.40176 0 0)
(2.40051 0 0)
(2.39924 0 0)
(2.39793 0 0)
(2.39658 0 0)
(2.39521 0 0)
(2.3938 0 0)
(2.39237 0 0)
(2.39091 0 0)
(2.3894 0 0)
(2.38789 0 0)
(2.38634 0 0)
(2.38476 0 0)
(2.38315 0 0)
(2.38152 0 0)
(2.37987 0 0)
(2.37819 0 0)
(2.37649 0 0)
(2.37476 0 0)
(2.37301 0 0)
(2.37124 0 0)
(2.36945 0 0)
(2.36763 0 0)
(2.3658 0 0)
(2.36395 0 0)
(2.36209 0 0)
(2.36015 0 0)
)
;

boundaryField
{
    boundary
    {
        type            empty;
    }
    inlet
    {
        type            fixedValue;
        value           uniform (2.34893 0 0);
    }
    outlet
    {
        type            zeroGradient;
    }
    procBoundary2to3
    {
        type            processor;
        value           uniform (2.35822 0 0);
    }
}


// ************************************************************************* //
