/*--------------------------------*- C++ -*----------------------------------*\
  =========                 |
  \\      /  F ield         | OpenFOAM: The Open Source CFD Toolbox
   \\    /   O peration     | Website:  https://openfoam.org
    \\  /    A nd           | Version:  7
     \\/     M anipulation  |
\*---------------------------------------------------------------------------*/
FoamFile
{
    version     2.0;
    format      ascii;
    class       volScalarField;
    location    "0.00033";
    object      cellCpuTimes;
}
// * * * * * * * * * * * * * * * * * * * * * * * * * * * * * * * * * * * * * //

dimensions      [0 0 0 0 0 0 0];

internalField   nonuniform List<scalar> 
124
(
0.000112
0.00011
0.00011
0.00011
0.000109
0.00011
0.00011
0.00011
0.00011
0.00011
0.000109
0.000112
0.000107
0.000107
0.000112
0.000112
0.000112
0.000111
0.000111
0.000112
0.000145
0.000106
0.000105
0.000103
0.000101
0.000101
9.8e-05
9.9e-05
9.9e-05
0.000101
0.000101
0.000102
0.000102
0.000102
0.000103
0.000101
0.000101
0.000108
0.000102
0.000101
0.000102
0.000101
0.000101
0.000102
0.000101
0.0001
0.000102
0.0001
0.000101
0.000102
0.0001
0.000101
0.000101
9.7e-05
9.6e-05
9.7e-05
9.7e-05
9.5e-05
9.7e-05
9.7e-05
9.6e-05
9.8e-05
9.7e-05
9.6e-05
9.8e-05
9.6e-05
9.6e-05
0.0001
9.6e-05
9.7e-05
9.9e-05
9.7e-05
9.6e-05
9.7e-05
9.6e-05
9.6e-05
0.000101
9.6e-05
9.6e-05
9.8e-05
9.7e-05
9.6e-05
9.8e-05
9.6e-05
9.3e-05
9.7e-05
9.5e-05
9.5e-05
9.6e-05
9.5e-05
9.5e-05
9.7e-05
9e-05
9.1e-05
9.6e-05
9.5e-05
8.8e-05
9e-05
8.8e-05
8.9e-05
8.9e-05
8.9e-05
8.9e-05
8.9e-05
8.8e-05
8.8e-05
9e-05
8.6e-05
8.7e-05
9e-05
8.5e-05
8.2e-05
8.4e-05
8.6e-05
8.3e-05
8.5e-05
8.3e-05
8.4e-05
8.5e-05
8.3e-05
9.3e-05
8.6e-05
8.2e-05
8.6e-05
)
;

boundaryField
{
    boundary
    {
        type            empty;
    }
    inlet
    {
        type            calculated;
        value           nonuniform 0();
    }
    outlet
    {
        type            calculated;
        value           uniform 0;
    }
    procBoundary0to1
    {
        type            processor;
        value           uniform 0;
    }
}


// ************************************************************************* //
