/*--------------------------------*- C++ -*----------------------------------*\
  =========                 |
  \\      /  F ield         | OpenFOAM: The Open Source CFD Toolbox
   \\    /   O peration     | Website:  https://openfoam.org
    \\  /    A nd           | Version:  7
     \\/     M anipulation  |
\*---------------------------------------------------------------------------*/
FoamFile
{
    version     2.0;
    format      ascii;
    class       volScalarField;
    location    "0.00083";
    object      H;
}
// * * * * * * * * * * * * * * * * * * * * * * * * * * * * * * * * * * * * * //

dimensions      [0 0 0 0 0 0 0];

internalField   nonuniform List<scalar> 
500
(
1.48614e-41
2.01351e-41
2.12763e-41
2.15256e-41
2.15813e-41
2.15933e-41
2.15935e-41
2.15883e-41
2.1579e-41
2.15657e-41
2.15486e-41
2.1528e-41
2.15045e-41
2.14787e-41
2.14514e-41
2.14235e-41
2.13959e-41
2.13697e-41
2.13457e-41
2.13247e-41
2.13074e-41
2.12945e-41
2.12862e-41
2.1283e-41
2.12851e-41
2.12925e-41
2.13054e-41
2.13238e-41
2.13478e-41
2.13777e-41
2.14135e-41
2.14556e-41
2.15046e-41
2.15609e-41
2.16253e-41
2.16986e-41
2.17819e-41
2.18762e-41
2.19826e-41
2.21025e-41
2.2237e-41
2.23874e-41
2.2555e-41
2.27409e-41
2.29462e-41
2.31718e-41
2.34183e-41
2.36863e-41
2.3976e-41
2.42872e-41
2.46196e-41
2.49725e-41
2.53445e-41
2.57344e-41
2.61401e-41
2.65595e-41
2.699e-41
2.74288e-41
2.78729e-41
2.8319e-41
2.87638e-41
2.9204e-41
2.96364e-41
3.00578e-41
3.04654e-41
3.08566e-41
3.1229e-41
3.15809e-41
3.19108e-41
3.22176e-41
3.25008e-41
3.27601e-41
3.29957e-41
3.32082e-41
3.33984e-41
3.35674e-41
3.37164e-41
3.38468e-41
3.39601e-41
3.40579e-41
3.41416e-41
3.42129e-41
3.42731e-41
3.43236e-41
3.43658e-41
3.44006e-41
3.44294e-41
3.44528e-41
3.44719e-41
3.44873e-41
3.44997e-41
3.45096e-41
3.45174e-41
3.45237e-41
3.45286e-41
3.45324e-41
3.45355e-41
3.45378e-41
3.45397e-41
3.45412e-41
3.45424e-41
3.45434e-41
3.45442e-41
3.45449e-41
3.45455e-41
3.4546e-41
3.45465e-41
3.4547e-41
3.45475e-41
3.45479e-41
3.45484e-41
3.45488e-41
3.45493e-41
3.45498e-41
3.45503e-41
3.45509e-41
3.45514e-41
3.4552e-41
3.45526e-41
3.45532e-41
3.45539e-41
3.45546e-41
3.45552e-41
3.45558e-41
3.45561e-41
3.45565e-41
3.45575e-41
3.45586e-41
3.45599e-41
3.45614e-41
3.4563e-41
3.45648e-41
3.45667e-41
3.45686e-41
3.45706e-41
3.45725e-41
3.45743e-41
3.45761e-41
3.45777e-41
3.45791e-41
3.45805e-41
3.45817e-41
3.45827e-41
3.45837e-41
3.45846e-41
3.45855e-41
3.45863e-41
3.45872e-41
3.45881e-41
3.45891e-41
3.45902e-41
3.45914e-41
3.45928e-41
3.45942e-41
3.45957e-41
3.45974e-41
3.45991e-41
3.4601e-41
3.46029e-41
3.46048e-41
3.46068e-41
3.46089e-41
3.4611e-41
3.46131e-41
3.46152e-41
3.46173e-41
3.46195e-41
3.46217e-41
3.46239e-41
3.46261e-41
3.46284e-41
3.46306e-41
3.46329e-41
3.46352e-41
3.46376e-41
3.46399e-41
3.46423e-41
3.46447e-41
3.46471e-41
3.46495e-41
3.4652e-41
3.46544e-41
3.46569e-41
3.46593e-41
3.46618e-41
3.46642e-41
3.46667e-41
3.46691e-41
3.46715e-41
3.46738e-41
3.46762e-41
3.46784e-41
3.46806e-41
3.46828e-41
3.46849e-41
3.46868e-41
3.46888e-41
3.46906e-41
3.46923e-41
3.46939e-41
3.46954e-41
3.46967e-41
3.46979e-41
3.4699e-41
3.47e-41
3.47008e-41
3.47015e-41
3.47022e-41
3.47033e-41
3.47064e-41
3.4716e-41
3.47475e-41
3.48509e-41
3.51875e-41
3.62768e-41
3.97859e-41
5.10437e-41
8.70252e-41
2.01625e-40
5.65421e-40
1.71671e-39
5.34949e-39
1.6781e-38
5.26612e-38
1.65011e-37
5.16028e-37
1.6105e-36
5.01671e-36
1.55996e-35
4.84297e-35
1.50135e-34
4.64827e-34
1.43749e-33
4.44103e-33
1.37086e-32
4.22855e-32
1.30362e-31
4.01734e-31
1.23778e-30
3.81394e-30
1.17562e-29
3.62681e-29
1.12052e-28
3.47015e-28
1.07865e-27
3.37156e-27
1.06249e-26
3.38767e-26
1.09785e-25
3.63628e-25
1.23853e-24
4.38606e-24
1.6077e-23
6.12249e-23
2.4222e-22
9.91922e-22
4.18207e-21
1.80489e-20
7.93255e-20
3.53612e-19
1.5945e-18
7.26328e-18
3.34271e-17
1.55671e-16
7.35934e-16
3.5488e-15
1.7562e-14
8.97374e-14
4.77076e-13
2.88278e-12
2.35063e-11
2.43239e-10
2.27554e-09
2.13573e-08
1.96183e-07
1.675e-06
1.19907e-05
6.17375e-05
0.000199102
0.000432844
0.00074565
0.00110539
0.00144966
0.00171172
0.00186475
0.00192419
0.00191503
0.00186747
0.00180046
0.00172576
0.00165004
0.00157684
0.00150782
0.00144358
0.0013842
0.00132943
0.00127893
0.00123231
0.0011892
0.00114923
0.00111209
0.00107748
0.00104516
0.0010149
0.000986493
0.000959782
0.000934609
0.000910842
0.000888362
0.000867065
0.000846857
0.000827655
0.000809919
0.000793383
0.000777501
0.000762233
0.000747545
0.000733403
0.000719775
0.000706634
0.000693952
0.000681704
0.000669869
0.000658425
0.000647351
0.00063663
0.000626244
0.000616178
0.000606415
0.000596943
0.000587748
0.000578817
0.000570139
0.000561703
0.000553498
0.000545516
0.000537747
0.000530182
0.000522812
0.000515632
0.000508632
0.000501806
0.000495148
0.000488652
0.00048231
0.000476119
0.000470072
0.000464164
0.000458391
0.000452748
0.000447231
0.000441835
0.000436556
0.000431391
0.000426335
0.000421386
0.00041654
0.000411794
0.000407145
0.000402589
0.000398125
0.000393749
0.000389459
0.000385252
0.000381126
0.000377079
0.000373108
0.000369213
0.000365389
0.000361637
0.000357954
0.000354339
0.00035079
0.000347306
0.000343887
0.00034053
0.000337224
0.000333963
0.000330757
0.000327605
0.000324505
0.000321458
0.00031846
0.00031551
0.000312609
0.000309754
0.000306945
0.00030418
0.000301459
0.00029878
0.000296143
0.000293546
0.000290988
0.00028847
0.00028599
0.000283546
0.000281139
0.000278768
0.000276431
0.000274128
0.000271859
0.000269622
0.000267417
0.000265244
0.000263101
0.000260988
0.000258905
0.00025685
0.000254824
0.000252825
0.000250854
0.000248909
0.000246991
0.000245098
0.00024323
0.000241387
0.000239568
0.000237773
0.000236001
0.000234252
0.000232526
0.000230821
0.000229139
0.000227478
0.000225838
0.000224218
0.000222619
0.00022104
0.000219481
0.00021794
0.000216419
0.000214917
0.000213433
0.000211967
0.000210518
0.000209088
0.000207675
0.000206278
0.000204899
0.000203536
0.00020219
0.000200859
0.000199545
0.000198246
0.000196962
0.000195694
0.000194441
0.000193202
0.000191978
0.000190769
0.000189574
0.000188393
0.000187226
0.000186073
0.000184933
0.000183807
0.000182694
0.000181594
0.000180508
0.000179434
0.000178373
0.000177325
0.000176289
0.000175266
0.000174255
0.000173257
0.00017227
0.000171296
0.000170333
0.000169383
0.000168445
0.000167518
0.000166603
0.0001657
0.000164808
0.000163928
0.00016306
0.000162203
0.000161358
0.000160524
0.000159702
0.000158891
0.000158092
0.000157305
0.000156529
0.000155766
0.000155014
0.000154276
0.00015355
0.000152839
0.000152142
0.000151463
0.000150803
0.000150166
0.000149558
0.000148986
0.000148465
0.000148014
0.000147664
0.00014746
)
;

boundaryField
{
    boundary
    {
        type            empty;
    }
    inlet
    {
        type            fixedValue;
        value           uniform 0;
    }
    outlet
    {
        type            zeroGradient;
    }
}


// ************************************************************************* //
