/*--------------------------------*- C++ -*----------------------------------*\
  =========                 |
  \\      /  F ield         | OpenFOAM: The Open Source CFD Toolbox
   \\    /   O peration     | Website:  https://openfoam.org
    \\  /    A nd           | Version:  7
     \\/     M anipulation  |
\*---------------------------------------------------------------------------*/
FoamFile
{
    version     2.0;
    format      ascii;
    class       volScalarField;
    location    "0.00083";
    object      H2;
}
// * * * * * * * * * * * * * * * * * * * * * * * * * * * * * * * * * * * * * //

dimensions      [0 0 0 0 0 0 0];

internalField   nonuniform List<scalar> 
500
(
0.0285116
0.0285116
0.0285116
0.0285116
0.0285116
0.0285116
0.0285116
0.0285116
0.0285116
0.0285116
0.0285116
0.0285116
0.0285116
0.0285116
0.0285116
0.0285116
0.0285116
0.0285116
0.0285116
0.0285116
0.0285116
0.0285116
0.0285116
0.0285116
0.0285116
0.0285116
0.0285116
0.0285116
0.0285116
0.0285116
0.0285116
0.0285116
0.0285116
0.0285116
0.0285116
0.0285116
0.0285116
0.0285116
0.0285116
0.0285116
0.0285116
0.0285116
0.0285116
0.0285116
0.0285116
0.0285116
0.0285116
0.0285116
0.0285116
0.0285116
0.0285116
0.0285116
0.0285116
0.0285116
0.0285116
0.0285116
0.0285116
0.0285116
0.0285116
0.0285116
0.0285116
0.0285116
0.0285116
0.0285116
0.0285116
0.0285116
0.0285116
0.0285116
0.0285116
0.0285116
0.0285116
0.0285116
0.0285116
0.0285116
0.0285116
0.0285116
0.0285116
0.0285116
0.0285116
0.0285116
0.0285116
0.0285116
0.0285116
0.0285116
0.0285116
0.0285116
0.0285116
0.0285116
0.0285116
0.0285116
0.0285116
0.0285116
0.0285116
0.0285116
0.0285116
0.0285116
0.0285116
0.0285116
0.0285116
0.0285116
0.0285116
0.0285116
0.0285116
0.0285116
0.0285116
0.0285116
0.0285116
0.0285116
0.0285116
0.0285116
0.0285116
0.0285116
0.0285116
0.0285116
0.0285116
0.0285116
0.0285116
0.0285116
0.0285116
0.0285116
0.0285116
0.0285116
0.0285116
0.0285116
0.0285116
0.0285116
0.0285116
0.0285116
0.0285116
0.0285116
0.0285116
0.0285116
0.0285116
0.0285116
0.0285116
0.0285116
0.0285116
0.0285116
0.0285116
0.0285116
0.0285116
0.0285116
0.0285116
0.0285116
0.0285116
0.0285116
0.0285116
0.0285116
0.0285116
0.0285116
0.0285116
0.0285116
0.0285116
0.0285116
0.0285116
0.0285116
0.0285116
0.0285116
0.0285116
0.0285116
0.0285116
0.0285116
0.0285116
0.0285116
0.0285116
0.0285116
0.0285116
0.0285116
0.0285116
0.0285116
0.0285116
0.0285116
0.0285116
0.0285116
0.0285116
0.0285116
0.0285116
0.0285116
0.0285116
0.0285116
0.0285116
0.0285116
0.0285116
0.0285116
0.0285116
0.0285116
0.0285116
0.0285116
0.0285116
0.0285116
0.0285116
0.0285116
0.0285116
0.0285116
0.0285116
0.0285116
0.0285116
0.0285116
0.0285116
0.0285116
0.0285116
0.0285116
0.0285116
0.0285116
0.0285116
0.0285116
0.0285116
0.0285116
0.0285116
0.0285116
0.0285116
0.0285116
0.0285116
0.0285116
0.0285116
0.0285116
0.0285116
0.0285116
0.0285116
0.0285116
0.0285116
0.0285116
0.0285116
0.0285116
0.0285116
0.0285116
0.0285116
0.0285116
0.0285116
0.0285116
0.0285116
0.0285116
0.0285116
0.0285116
0.0285116
0.0285116
0.0285116
0.0285116
0.0285116
0.0285116
0.0285116
0.0285116
0.0285116
0.0285116
0.0285116
0.0285116
0.0285116
0.0285116
0.0285116
0.0285116
0.0285116
0.0285116
0.0285116
0.0285116
0.0285116
0.0285116
0.0285116
0.0285116
0.0285116
0.0285116
0.0285116
0.0285115
0.0285115
0.0285114
0.0285112
0.0285108
0.0285098
0.028508
0.0285041
0.0284959
0.0284789
0.0284435
0.0283699
0.0282182
0.0279109
0.0273149
0.0262551
0.0245936
0.0223689
0.0197542
0.0168415
0.0137728
0.0108734
0.00849232
0.00676955
0.00553361
0.00480879
0.00436023
0.00408407
0.00391221
0.00380224
0.00372851
0.0036758
0.00363519
0.0036015
0.00357175
0.00354425
0.00351806
0.00349265
0.00346777
0.00344327
0.0034191
0.00339525
0.00337171
0.00334849
0.0033256
0.00330306
0.00328088
0.00325905
0.00323759
0.00321649
0.00319577
0.00317602
0.00315706
0.00313837
0.00311994
0.00310177
0.00308384
0.00306616
0.00304873
0.00303153
0.00301456
0.00299783
0.00298133
0.00296504
0.00294897
0.00293312
0.00291747
0.00290203
0.00288679
0.00287175
0.00285689
0.00284223
0.00282775
0.00281345
0.00279932
0.00278537
0.00277158
0.00275796
0.0027445
0.0027312
0.00271805
0.00270506
0.00269221
0.00267951
0.00266696
0.00265454
0.00264226
0.00263012
0.00261811
0.00260624
0.00259449
0.00258287
0.00257137
0.00256
0.00254876
0.00253763
0.00252662
0.00251573
0.00250495
0.00249429
0.00248374
0.00247331
0.00246298
0.00245277
0.00244266
0.00243266
0.00242277
0.00241298
0.0024033
0.00239372
0.00238424
0.00237487
0.0023656
0.00235642
0.00234734
0.00233834
0.00232941
0.00232056
0.00231179
0.00230312
0.00229452
0.00228601
0.00227757
0.00226922
0.00226094
0.00225274
0.00224461
0.00223656
0.00222858
0.00222067
0.00221283
0.00220506
0.00219736
0.00218972
0.00218215
0.00217465
0.00216721
0.00215983
0.00215251
0.00214525
0.00213805
0.00213091
0.00212383
0.00211681
0.00210985
0.00210294
0.00209608
0.00208928
0.00208254
0.00207585
0.00206921
0.00206262
0.00205608
0.0020496
0.00204317
0.00203678
0.00203045
0.00202416
0.00201792
0.00201173
0.00200558
0.00199949
0.00199344
0.00198743
0.00198147
0.00197555
0.00196968
0.00196385
0.00195806
0.00195232
0.00194662
0.00194096
0.00193535
0.00192977
0.00192424
0.00191874
0.00191329
0.00190788
0.00190251
0.00189717
0.00189188
0.00188663
0.00188141
0.00187624
0.00187111
0.00186601
0.00186096
0.00185594
0.00185096
0.00184603
0.00184113
0.00183628
0.00183146
0.00182669
0.00182195
0.00181726
0.00181261
0.00180801
0.00180345
0.00179893
0.00179445
0.00179002
0.00178564
0.0017813
0.00177701
0.00177277
0.00176858
0.00176444
0.00176035
0.00175631
0.00175233
0.0017484
0.00174453
0.00174071
0.00173696
0.00173326
0.00172963
0.00172606
0.00172256
0.00171913
0.00171577
0.00171248
0.00170928
0.00170615
0.0017031
0.00170015
0.00169728
0.00169452
0.00169187
0.00168934
0.00168694
0.0016847
0.00168262
0.00168074
0.0016791
0.00167771
0.00167663
0.00167588
0.00167549
)
;

boundaryField
{
    boundary
    {
        type            empty;
    }
    inlet
    {
        type            fixedValue;
        value           uniform 0.0285116;
    }
    outlet
    {
        type            zeroGradient;
    }
}


// ************************************************************************* //
