/*--------------------------------*- C++ -*----------------------------------*\
  =========                 |
  \\      /  F ield         | OpenFOAM: The Open Source CFD Toolbox
   \\    /   O peration     | Website:  https://openfoam.org
    \\  /    A nd           | Version:  7
     \\/     M anipulation  |
\*---------------------------------------------------------------------------*/
FoamFile
{
    version     2.0;
    format      ascii;
    class       volScalarField;
    location    "0.00083";
    object      HO2;
}
// * * * * * * * * * * * * * * * * * * * * * * * * * * * * * * * * * * * * * //

dimensions      [0 0 0 0 0 0 0];

internalField   nonuniform List<scalar> 
500
(
5.59254e-38
1.2728e-37
1.98893e-37
2.70546e-37
3.4217e-37
4.13726e-37
4.85182e-37
5.56509e-37
6.27679e-37
6.98677e-37
7.69494e-37
8.40134e-37
9.10614e-37
9.80965e-37
1.05123e-36
1.12146e-36
1.19172e-36
1.26207e-36
1.33257e-36
1.40331e-36
1.47432e-36
1.54566e-36
1.61739e-36
1.68953e-36
1.76213e-36
1.8352e-36
1.9088e-36
1.98294e-36
2.05769e-36
2.13309e-36
2.20922e-36
2.28617e-36
2.36405e-36
2.44301e-36
2.52319e-36
2.60477e-36
2.68795e-36
2.77294e-36
2.85998e-36
2.9493e-36
3.04112e-36
3.13568e-36
3.23318e-36
3.3338e-36
3.43768e-36
3.5449e-36
3.65549e-36
3.76942e-36
3.88656e-36
4.00672e-36
4.12961e-36
4.25484e-36
4.38196e-36
4.51043e-36
4.63963e-36
4.76889e-36
4.89749e-36
5.0247e-36
5.14976e-36
5.27192e-36
5.39048e-36
5.50476e-36
5.61417e-36
5.71817e-36
5.81633e-36
5.90831e-36
5.99387e-36
6.07287e-36
6.14528e-36
6.21115e-36
6.27063e-36
6.32394e-36
6.37135e-36
6.41321e-36
6.4499e-36
6.48181e-36
6.50936e-36
6.53298e-36
6.55307e-36
6.57004e-36
6.58427e-36
6.59612e-36
6.60592e-36
6.61396e-36
6.62052e-36
6.62583e-36
6.63011e-36
6.63352e-36
6.63623e-36
6.63837e-36
6.64005e-36
6.64136e-36
6.64238e-36
6.64317e-36
6.64378e-36
6.64425e-36
6.64461e-36
6.64489e-36
6.64511e-36
6.64529e-36
6.64542e-36
6.64554e-36
6.64564e-36
6.64572e-36
6.6458e-36
6.64587e-36
6.64594e-36
6.64601e-36
6.64608e-36
6.64615e-36
6.64622e-36
6.6463e-36
6.64637e-36
6.64645e-36
6.64654e-36
6.64663e-36
6.64672e-36
6.64682e-36
6.64692e-36
6.64702e-36
6.64711e-36
6.64716e-36
6.64701e-36
6.64606e-36
6.64202e-36
6.634e-36
6.63415e-36
6.63431e-36
6.63448e-36
6.63466e-36
6.63485e-36
6.63505e-36
6.63527e-36
6.63549e-36
6.63571e-36
6.63594e-36
6.63617e-36
6.63641e-36
6.63664e-36
6.63688e-36
6.63712e-36
6.63736e-36
6.63762e-36
6.63789e-36
6.63819e-36
6.63851e-36
6.63888e-36
6.63928e-36
6.63974e-36
6.64025e-36
6.64082e-36
6.64144e-36
6.64213e-36
6.64287e-36
6.64365e-36
6.64447e-36
6.64532e-36
6.64618e-36
6.64704e-36
6.64789e-36
6.64871e-36
6.64948e-36
6.65021e-36
6.65087e-36
6.65147e-36
6.65201e-36
6.65249e-36
6.65292e-36
6.65329e-36
6.65364e-36
6.65396e-36
6.65427e-36
6.65458e-36
6.65491e-36
6.65527e-36
6.65566e-36
6.6561e-36
6.65659e-36
6.65714e-36
6.65773e-36
6.65838e-36
6.65907e-36
6.6598e-36
6.66057e-36
6.66136e-36
6.66216e-36
6.66298e-36
6.66379e-36
6.6646e-36
6.6654e-36
6.66617e-36
6.66691e-36
6.66763e-36
6.6683e-36
6.66894e-36
6.66954e-36
6.6701e-36
6.67062e-36
6.67109e-36
6.67153e-36
6.67192e-36
6.67227e-36
6.67258e-36
6.67285e-36
6.67307e-36
6.67326e-36
6.67341e-36
6.67352e-36
6.6736e-36
6.67364e-36
6.67367e-36
6.67376e-36
6.67412e-36
6.67549e-36
6.68025e-36
6.69608e-36
6.74782e-36
6.91535e-36
7.45457e-36
9.18266e-36
1.47013e-35
3.22704e-35
8.80517e-35
2.64742e-34
8.23354e-34
2.58697e-33
8.15071e-33
2.57034e-32
8.11357e-32
2.5659e-31
8.14062e-31
2.59556e-30
8.33503e-30
2.70281e-29
8.87668e-29
2.96215e-28
1.00755e-27
3.503e-27
1.24735e-26
4.55284e-26
1.70264e-25
6.51329e-25
2.54219e-24
1.00932e-23
4.06347e-23
1.65396e-22
6.78864e-22
2.80363e-21
1.16299e-20
4.83899e-20
2.01745e-19
8.46929e-19
3.54664e-18
1.48276e-17
6.19712e-17
2.58986e-16
1.08231e-15
4.52314e-15
1.89045e-14
7.90247e-14
3.30416e-13
1.38192e-12
5.78145e-12
2.41947e-11
1.01278e-10
4.2401e-10
1.77519e-09
7.43068e-09
3.1087e-08
1.29853e-07
5.40382e-07
2.22432e-06
8.96329e-06
3.44059e-05
0.000118275
0.000315834
0.000504556
0.000499847
0.000401875
0.000291827
0.00020542
0.000143876
0.000100531
7.06076e-05
5.0925e-05
3.57972e-05
2.75164e-05
2.21704e-05
1.86222e-05
1.61794e-05
1.4425e-05
1.311e-05
1.20843e-05
1.12564e-05
1.05686e-05
9.98419e-06
9.47836e-06
9.03425e-06
8.63983e-06
8.2863e-06
7.96699e-06
7.67676e-06
7.41155e-06
7.16807e-06
6.94363e-06
6.73601e-06
6.54333e-06
6.364e-06
6.19669e-06
6.04024e-06
5.89371e-06
5.75633e-06
5.63131e-06
5.51489e-06
5.4042e-06
5.29883e-06
5.1984e-06
5.10257e-06
5.01102e-06
4.92348e-06
4.83969e-06
4.75943e-06
4.68247e-06
4.60862e-06
4.5377e-06
4.46954e-06
4.40399e-06
4.3409e-06
4.28015e-06
4.22161e-06
4.16517e-06
4.11073e-06
4.05817e-06
4.00742e-06
3.95838e-06
3.91097e-06
3.86513e-06
3.82077e-06
3.77783e-06
3.73624e-06
3.69596e-06
3.65692e-06
3.61907e-06
3.58236e-06
3.54674e-06
3.51216e-06
3.4786e-06
3.44599e-06
3.41432e-06
3.38353e-06
3.3536e-06
3.32448e-06
3.29616e-06
3.2686e-06
3.24176e-06
3.21563e-06
3.19017e-06
3.16536e-06
3.14118e-06
3.1176e-06
3.0946e-06
3.07216e-06
3.05026e-06
3.02887e-06
3.00799e-06
2.9876e-06
2.96767e-06
2.94819e-06
2.92915e-06
2.91053e-06
2.89232e-06
2.8745e-06
2.85707e-06
2.84003e-06
2.82336e-06
2.80707e-06
2.79111e-06
2.77539e-06
2.75998e-06
2.74488e-06
2.73009e-06
2.71558e-06
2.70137e-06
2.68743e-06
2.67376e-06
2.66036e-06
2.64722e-06
2.63433e-06
2.62169e-06
2.60928e-06
2.59712e-06
2.58518e-06
2.57346e-06
2.56196e-06
2.55068e-06
2.5396e-06
2.52873e-06
2.51805e-06
2.50757e-06
2.49728e-06
2.48717e-06
2.47724e-06
2.46748e-06
2.4579e-06
2.44848e-06
2.43923e-06
2.43013e-06
2.42119e-06
2.4124e-06
2.40376e-06
2.39527e-06
2.38692e-06
2.3787e-06
2.37062e-06
2.36267e-06
2.35485e-06
2.34715e-06
2.33958e-06
2.33213e-06
2.32479e-06
2.31757e-06
2.31047e-06
2.30347e-06
2.29659e-06
2.28981e-06
2.28313e-06
2.27656e-06
2.27009e-06
2.26372e-06
2.25744e-06
2.25126e-06
2.24517e-06
2.23918e-06
2.23327e-06
2.22745e-06
2.22172e-06
2.21608e-06
2.21052e-06
2.20504e-06
2.19965e-06
2.19433e-06
2.18909e-06
2.18392e-06
2.17884e-06
2.17382e-06
2.16887e-06
2.164e-06
2.15919e-06
2.15445e-06
2.14977e-06
2.14516e-06
2.14061e-06
2.13611e-06
2.13167e-06
2.12729e-06
2.12296e-06
2.11868e-06
2.11446e-06
2.11028e-06
2.10614e-06
2.10205e-06
2.098e-06
2.09398e-06
2.09001e-06
2.08606e-06
2.08215e-06
2.07827e-06
2.07442e-06
2.07059e-06
2.06678e-06
2.06299e-06
2.05922e-06
2.05547e-06
2.05172e-06
2.04798e-06
2.04424e-06
2.04051e-06
2.03677e-06
2.03303e-06
2.02928e-06
2.02551e-06
2.02172e-06
2.01791e-06
2.01407e-06
2.0102e-06
2.00628e-06
2.00232e-06
1.99831e-06
1.99424e-06
1.9901e-06
1.98589e-06
1.98161e-06
1.97724e-06
1.9728e-06
1.96829e-06
1.96374e-06
1.95921e-06
1.95483e-06
1.95092e-06
1.94813e-06
)
;

boundaryField
{
    boundary
    {
        type            empty;
    }
    inlet
    {
        type            fixedValue;
        value           uniform 0;
    }
    outlet
    {
        type            zeroGradient;
    }
}


// ************************************************************************* //
