/*--------------------------------*- C++ -*----------------------------------*\
  =========                 |
  \\      /  F ield         | OpenFOAM: The Open Source CFD Toolbox
   \\    /   O peration     | Website:  https://openfoam.org
    \\  /    A nd           | Version:  7
     \\/     M anipulation  |
\*---------------------------------------------------------------------------*/
FoamFile
{
    version     2.0;
    format      ascii;
    class       volScalarField;
    location    "0.00083";
    object      O;
}
// * * * * * * * * * * * * * * * * * * * * * * * * * * * * * * * * * * * * * //

dimensions      [0 0 0 0 0 0 0];

internalField   nonuniform List<scalar> 
500
(
1.57741e-47
3.76342e-47
5.96121e-47
8.15882e-47
1.03529e-46
1.25419e-46
1.47245e-46
1.68998e-46
1.90668e-46
2.12251e-46
2.33745e-46
2.55153e-46
2.76483e-46
2.97747e-46
3.18961e-46
3.40146e-46
3.61324e-46
3.82519e-46
4.03756e-46
4.25059e-46
4.46451e-46
4.67954e-46
4.89586e-46
5.11365e-46
5.33308e-46
5.55432e-46
5.77753e-46
6.00293e-46
6.23073e-46
6.46124e-46
6.69477e-46
6.93174e-46
7.17263e-46
7.41799e-46
7.66847e-46
7.92478e-46
8.18768e-46
8.45802e-46
8.73666e-46
9.02451e-46
9.32244e-46
9.63131e-46
9.95192e-46
1.0285e-45
1.0631e-45
1.09904e-45
1.13635e-45
1.17501e-45
1.21501e-45
1.25628e-45
1.29873e-45
1.34227e-45
1.38674e-45
1.43196e-45
1.47775e-45
1.52387e-45
1.5701e-45
1.61617e-45
1.66182e-45
1.70679e-45
1.75082e-45
1.79365e-45
1.83504e-45
1.87479e-45
1.9127e-45
1.94861e-45
1.98239e-45
2.01395e-45
2.04323e-45
2.0702e-45
2.09487e-45
2.11727e-45
2.13748e-45
2.15557e-45
2.17165e-45
2.18585e-45
2.19829e-45
2.20912e-45
2.21848e-45
2.22651e-45
2.23335e-45
2.23915e-45
2.24402e-45
2.24809e-45
2.25146e-45
2.25424e-45
2.25651e-45
2.25836e-45
2.25986e-45
2.26106e-45
2.26202e-45
2.26278e-45
2.26338e-45
2.26385e-45
2.26422e-45
2.26451e-45
2.26474e-45
2.26491e-45
2.26505e-45
2.26516e-45
2.26524e-45
2.26531e-45
2.26537e-45
2.26542e-45
2.26546e-45
2.2655e-45
2.26553e-45
2.26557e-45
2.2656e-45
2.26563e-45
2.26567e-45
2.2657e-45
2.26574e-45
2.26577e-45
2.26581e-45
2.26585e-45
2.26589e-45
2.26593e-45
2.26597e-45
2.26601e-45
2.26603e-45
2.26601e-45
2.26583e-45
2.26524e-45
2.26342e-45
2.26078e-45
2.26085e-45
2.26092e-45
2.261e-45
2.26108e-45
2.26116e-45
2.26126e-45
2.26135e-45
2.26145e-45
2.26156e-45
2.26167e-45
2.26179e-45
2.26191e-45
2.26204e-45
2.26218e-45
2.26233e-45
2.26249e-45
2.26267e-45
2.26286e-45
2.26308e-45
2.26331e-45
2.26358e-45
2.26386e-45
2.26417e-45
2.26451e-45
2.26487e-45
2.26524e-45
2.26563e-45
2.26604e-45
2.26645e-45
2.26686e-45
2.26726e-45
2.26766e-45
2.26805e-45
2.26842e-45
2.26877e-45
2.26911e-45
2.26942e-45
2.26971e-45
2.26998e-45
2.27023e-45
2.27046e-45
2.27067e-45
2.27088e-45
2.27107e-45
2.27125e-45
2.27143e-45
2.2716e-45
2.27177e-45
2.27194e-45
2.27212e-45
2.27229e-45
2.27247e-45
2.27265e-45
2.27284e-45
2.27304e-45
2.27324e-45
2.27345e-45
2.27366e-45
2.27387e-45
2.27409e-45
2.27431e-45
2.27453e-45
2.27476e-45
2.27499e-45
2.27526e-45
2.27563e-45
2.27642e-45
2.27871e-45
2.28637e-45
2.31318e-45
2.40773e-45
2.74069e-45
3.90793e-45
7.97865e-45
2.20991e-44
7.08173e-44
2.38008e-43
8.08744e-43
2.7469e-42
9.29479e-42
3.13042e-41
1.04915e-40
3.49907e-40
1.16137e-39
3.83655e-39
1.26155e-38
4.12971e-38
1.34598e-37
4.36836e-37
1.41197e-36
4.54591e-36
1.45806e-35
4.65973e-35
1.48405e-34
4.711e-34
1.49084e-33
4.70414e-33
1.48026e-32
4.64605e-32
1.45477e-31
4.54513e-31
1.41715e-30
4.41037e-30
1.37024e-29
4.2506e-29
1.31674e-28
4.07387e-28
1.25901e-27
3.88707e-27
1.19904e-26
3.69573e-26
1.13832e-25
3.50393e-25
1.07795e-24
3.31443e-24
1.01859e-23
3.12881e-23
9.60609e-23
2.94781e-22
9.04131e-22
2.77162e-21
8.4918e-21
2.60028e-20
7.95772e-20
2.43393e-19
7.47362e-19
2.28964e-18
6.99776e-18
2.1366e-17
6.52045e-17
1.98942e-16
6.06928e-16
1.85166e-15
5.65001e-15
1.72441e-14
5.26464e-14
1.6079e-13
4.9128e-13
1.50171e-12
4.59234e-12
1.40497e-11
4.30012e-11
1.31661e-10
4.03285e-10
1.23616e-09
3.79828e-09
1.17882e-08
3.80833e-08
1.4077e-07
7.02332e-07
4.74026e-06
2.98745e-05
0.000138578
0.00051358
0.00137558
0.00265574
0.00400472
0.00510431
0.00584597
0.00626702
0.00642707
0.00644175
0.00636873
0.00624572
0.0060966
0.00593594
0.00577235
0.00561079
0.00545395
0.00530322
0.0051592
0.00502203
0.00489158
0.00476762
0.0046498
0.00453778
0.00443119
0.0043297
0.00423297
0.00414069
0.00405257
0.00396835
0.00388778
0.00381064
0.00373674
0.00366593
0.00360012
0.00353791
0.00347778
0.00341958
0.00336323
0.00330863
0.0032557
0.00320437
0.00315455
0.00310618
0.00305919
0.00301354
0.00296915
0.00292599
0.00288399
0.00284312
0.00280332
0.00276455
0.00272678
0.00268997
0.00265409
0.00261908
0.00258494
0.00255162
0.0025191
0.00248734
0.00245633
0.00242603
0.00239642
0.00236749
0.0023392
0.00231153
0.00228447
0.00225799
0.00223208
0.00220672
0.00218189
0.00215757
0.00213374
0.0021104
0.00208753
0.0020651
0.00204311
0.00202155
0.0020004
0.00197964
0.00195927
0.00193928
0.00191965
0.00190037
0.00188143
0.00186283
0.00184455
0.00182658
0.00180893
0.00179156
0.00177449
0.0017577
0.00174119
0.00172495
0.00170898
0.00169327
0.00167782
0.00166263
0.00164766
0.00163286
0.00161828
0.00160392
0.00158978
0.00157585
0.00156212
0.00154861
0.00153529
0.00152217
0.00150924
0.0014965
0.00148395
0.00147157
0.00145938
0.00144735
0.0014355
0.00142382
0.0014123
0.00140095
0.00138975
0.0013787
0.00136781
0.00135707
0.00134648
0.00133602
0.00132571
0.00131554
0.0013055
0.0012956
0.00128582
0.00127618
0.00126665
0.00125726
0.00124798
0.00123882
0.00122978
0.00122085
0.00121203
0.00120332
0.00119473
0.00118623
0.00117785
0.00116956
0.00116138
0.0011533
0.00114531
0.00113742
0.00112963
0.00112193
0.00111432
0.0011068
0.00109937
0.00109203
0.00108478
0.00107761
0.00107053
0.00106352
0.00105661
0.00104977
0.00104301
0.00103633
0.00102973
0.0010232
0.00101675
0.00101037
0.00100407
0.000997835
0.000991673
0.000985581
0.000979558
0.000973602
0.000967713
0.000961889
0.00095613
0.000950434
0.0009448
0.000939227
0.000933715
0.000928261
0.000922866
0.000917528
0.000912245
0.000907018
0.000901845
0.000896724
0.000891655
0.000886638
0.00088167
0.000876751
0.00087188
0.000867056
0.000862277
0.000857544
0.000852854
0.000848207
0.000843602
0.000839038
0.000834513
0.000830027
0.000825578
0.000821165
0.000816788
0.000812444
0.000808133
0.000803853
0.000799603
0.000795381
0.000791187
0.00078702
0.000782877
0.000778759
0.000774665
0.000770596
0.000766554
0.000762541
0.000758566
0.000754642
0.000750792
0.000747056
0.000743505
0.000740265
0.000737562
0.000735812
)
;

boundaryField
{
    boundary
    {
        type            empty;
    }
    inlet
    {
        type            fixedValue;
        value           uniform 0;
    }
    outlet
    {
        type            zeroGradient;
    }
}


// ************************************************************************* //
