/*--------------------------------*- C++ -*----------------------------------*\
  =========                 |
  \\      /  F ield         | OpenFOAM: The Open Source CFD Toolbox
   \\    /   O peration     | Website:  https://openfoam.org
    \\  /    A nd           | Version:  7
     \\/     M anipulation  |
\*---------------------------------------------------------------------------*/
FoamFile
{
    version     2.0;
    format      ascii;
    class       volScalarField;
    location    "0.00083";
    object      O2;
}
// * * * * * * * * * * * * * * * * * * * * * * * * * * * * * * * * * * * * * //

dimensions      [0 0 0 0 0 0 0];

internalField   nonuniform List<scalar> 
500
(
0.226269
0.226269
0.226269
0.226269
0.226269
0.226269
0.226269
0.226269
0.226269
0.226269
0.226269
0.226269
0.226269
0.226269
0.226269
0.226269
0.226269
0.226269
0.226269
0.226269
0.226269
0.226269
0.226269
0.226269
0.226269
0.226269
0.226269
0.226269
0.226269
0.226269
0.226269
0.226269
0.226269
0.226269
0.226269
0.226269
0.226269
0.226269
0.226269
0.226269
0.226269
0.226269
0.226269
0.226269
0.226269
0.226269
0.226269
0.226269
0.226269
0.226269
0.226269
0.226269
0.226269
0.226269
0.226269
0.226269
0.226269
0.226269
0.226269
0.226269
0.226269
0.226269
0.226269
0.226269
0.226269
0.226269
0.226269
0.226269
0.226269
0.226269
0.226269
0.226269
0.226269
0.226269
0.226269
0.226269
0.226269
0.226269
0.226269
0.226269
0.226269
0.226269
0.226269
0.226269
0.226269
0.226269
0.226269
0.226269
0.226269
0.226269
0.226269
0.226269
0.226269
0.226269
0.226269
0.226269
0.226269
0.226269
0.226269
0.226269
0.226269
0.226269
0.226269
0.226269
0.226269
0.226269
0.226269
0.226269
0.226269
0.226269
0.226269
0.226269
0.226269
0.226269
0.226269
0.226269
0.226269
0.226269
0.226269
0.226269
0.226269
0.226269
0.226269
0.226269
0.226269
0.226269
0.226269
0.226269
0.226269
0.226269
0.226269
0.226269
0.226269
0.226269
0.226269
0.226269
0.226269
0.226269
0.226269
0.226269
0.226269
0.226269
0.226269
0.226269
0.226269
0.226269
0.226269
0.226269
0.226269
0.226269
0.226269
0.226269
0.226269
0.226269
0.226269
0.226269
0.226269
0.226269
0.226269
0.226269
0.226269
0.226269
0.226269
0.226269
0.226269
0.226269
0.226269
0.226269
0.226269
0.226269
0.226269
0.226269
0.226269
0.226269
0.226269
0.226269
0.226269
0.226269
0.226269
0.226269
0.226269
0.226269
0.226269
0.226269
0.226269
0.226269
0.226269
0.226269
0.226269
0.226269
0.226269
0.226269
0.226269
0.226269
0.226269
0.226269
0.226269
0.226269
0.226269
0.226269
0.226269
0.226269
0.226269
0.226269
0.226269
0.226269
0.226269
0.226269
0.226269
0.226269
0.226269
0.226269
0.226269
0.226269
0.226269
0.226269
0.226269
0.226269
0.226269
0.226269
0.226269
0.226269
0.226269
0.226269
0.226269
0.226269
0.226269
0.226269
0.226269
0.226269
0.226269
0.226269
0.226269
0.226269
0.226269
0.226269
0.226269
0.226269
0.226269
0.226269
0.226269
0.226269
0.226269
0.226269
0.226269
0.226269
0.226269
0.226269
0.226269
0.226269
0.226269
0.226269
0.226269
0.226269
0.226269
0.226269
0.226269
0.226269
0.226269
0.226269
0.226269
0.226269
0.226269
0.226269
0.226269
0.226269
0.226269
0.22627
0.226271
0.226272
0.226275
0.226278
0.226271
0.226209
0.22591
0.2248
0.221571
0.214231
0.202504
0.187511
0.168365
0.144533
0.118609
0.0951055
0.0771407
0.0611423
0.0518825
0.045629
0.0413737
0.0384093
0.0362708
0.0346629
0.0334005
0.0323681
0.0314936
0.0307311
0.0300515
0.0294352
0.0288694
0.028345
0.0278555
0.0273961
0.0269631
0.0265535
0.0261651
0.0257957
0.0254438
0.0251079
0.0247868
0.0244794
0.024185
0.0239029
0.0236411
0.0233921
0.0231509
0.0229171
0.0226901
0.0224697
0.0222554
0.0220471
0.0218445
0.0216471
0.0214549
0.0212676
0.021085
0.0209068
0.0207329
0.0205631
0.0203973
0.0202353
0.0200769
0.0199221
0.0197707
0.0196226
0.0194776
0.0193357
0.0191967
0.0190606
0.0189273
0.0187966
0.0186686
0.0185431
0.01842
0.0182992
0.0181807
0.0180645
0.0179504
0.0178383
0.0177283
0.0176202
0.017514
0.0174096
0.0173069
0.017206
0.0171067
0.017009
0.0169128
0.0168181
0.0167249
0.016633
0.0165424
0.0164532
0.0163652
0.0162784
0.0161928
0.0161083
0.0160249
0.0159425
0.0158612
0.0157809
0.0157016
0.0156232
0.0155458
0.0154693
0.0153938
0.0153193
0.0152456
0.0151724
0.0150999
0.0150283
0.0149574
0.0148873
0.014818
0.0147495
0.0146817
0.0146146
0.0145483
0.0144827
0.0144178
0.0143536
0.0142902
0.0142274
0.0141653
0.0141038
0.014043
0.0139829
0.0139234
0.0138645
0.0138063
0.0137486
0.0136916
0.0136351
0.0135793
0.013524
0.0134692
0.0134151
0.0133614
0.0133083
0.0132557
0.0132037
0.0131521
0.013101
0.0130505
0.0130004
0.0129508
0.0129016
0.0128529
0.0128047
0.0127569
0.0127096
0.0126626
0.0126162
0.0125701
0.0125245
0.0124792
0.0124344
0.01239
0.012346
0.0123024
0.0122592
0.0122164
0.0121739
0.0121319
0.0120902
0.0120489
0.0120079
0.0119673
0.0119271
0.0118873
0.0118477
0.0118086
0.0117698
0.0117313
0.0116931
0.0116553
0.0116178
0.0115806
0.0115437
0.011507
0.0114707
0.0114347
0.0113989
0.0113634
0.0113282
0.0112932
0.0112585
0.0112239
0.0111896
0.0111555
0.0111216
0.0110879
0.0110544
0.011021
0.0109877
0.0109547
0.0109217
0.0108888
0.0108561
0.0108234
0.0107908
0.0107583
0.0107258
0.0106933
0.0106608
0.0106284
0.0105958
0.0105633
0.0105307
0.0104979
0.0104651
0.0104321
0.010399
0.0103656
0.0103321
0.0102983
0.0102642
0.0102298
0.010195
0.0101598
0.0101242
0.0100881
0.0100516
0.0100145
0.00997684
0.00993879
0.00990052
0.00986254
0.00982598
0.00979336
0.00977039
)
;

boundaryField
{
    boundary
    {
        type            empty;
    }
    inlet
    {
        type            fixedValue;
        value           uniform 0.226269;
    }
    outlet
    {
        type            zeroGradient;
    }
}


// ************************************************************************* //
