/*--------------------------------*- C++ -*----------------------------------*\
  =========                 |
  \\      /  F ield         | OpenFOAM: The Open Source CFD Toolbox
   \\    /   O peration     | Website:  https://openfoam.org
    \\  /    A nd           | Version:  7
     \\/     M anipulation  |
\*---------------------------------------------------------------------------*/
FoamFile
{
    version     2.0;
    format      ascii;
    class       volScalarField;
    location    "0.00083";
    object      OH;
}
// * * * * * * * * * * * * * * * * * * * * * * * * * * * * * * * * * * * * * //

dimensions      [0 0 0 0 0 0 0];

internalField   nonuniform List<scalar> 
500
(
9.38477e-48
1.82909e-47
2.43812e-47
2.85053e-47
3.12911e-47
3.31726e-47
3.4443e-47
3.53e-47
3.58764e-47
3.62614e-47
3.65155e-47
3.66797e-47
3.67822e-47
3.68427e-47
3.6875e-47
3.68893e-47
3.6893e-47
3.68918e-47
3.68901e-47
3.68913e-47
3.6898e-47
3.69122e-47
3.69352e-47
3.6968e-47
3.70114e-47
3.70658e-47
3.71314e-47
3.72085e-47
3.72974e-47
3.73983e-47
3.7512e-47
3.76391e-47
3.77807e-47
3.79381e-47
3.81129e-47
3.83071e-47
3.85228e-47
3.87624e-47
3.90286e-47
3.93243e-47
3.96521e-47
4.00151e-47
4.04161e-47
4.08577e-47
4.13426e-47
4.18727e-47
4.245e-47
4.30756e-47
4.37503e-47
4.4474e-47
4.52461e-47
4.6065e-47
4.69283e-47
4.78328e-47
4.87744e-47
4.97482e-47
5.07486e-47
5.17691e-47
5.28028e-47
5.38423e-47
5.488e-47
5.59082e-47
5.69193e-47
5.79059e-47
5.88612e-47
5.9779e-47
6.06539e-47
6.14814e-47
6.22577e-47
6.29805e-47
6.3648e-47
6.42597e-47
6.4816e-47
6.53179e-47
6.57673e-47
6.61666e-47
6.65188e-47
6.68271e-47
6.7095e-47
6.73261e-47
6.75241e-47
6.76925e-47
6.78347e-47
6.7954e-47
6.80534e-47
6.81357e-47
6.82034e-47
6.82586e-47
6.83035e-47
6.83398e-47
6.83688e-47
6.8392e-47
6.84105e-47
6.84251e-47
6.84365e-47
6.84456e-47
6.84527e-47
6.84582e-47
6.84626e-47
6.84661e-47
6.84689e-47
6.84711e-47
6.8473e-47
6.84746e-47
6.8476e-47
6.84773e-47
6.84785e-47
6.84796e-47
6.84807e-47
6.84817e-47
6.84828e-47
6.84839e-47
6.84851e-47
6.84863e-47
6.84875e-47
6.84887e-47
6.84901e-47
6.84914e-47
6.84929e-47
6.84943e-47
6.84958e-47
6.84973e-47
6.84985e-47
6.84988e-47
6.84964e-47
6.84921e-47
6.84945e-47
6.84972e-47
6.85002e-47
6.85037e-47
6.85075e-47
6.85117e-47
6.85161e-47
6.85206e-47
6.85252e-47
6.85297e-47
6.8534e-47
6.85381e-47
6.8542e-47
6.85455e-47
6.85488e-47
6.85517e-47
6.85544e-47
6.8557e-47
6.85593e-47
6.85617e-47
6.8564e-47
6.85665e-47
6.85691e-47
6.8572e-47
6.85751e-47
6.85785e-47
6.85821e-47
6.85861e-47
6.85903e-47
6.85948e-47
6.85994e-47
6.86042e-47
6.86092e-47
6.86142e-47
6.86194e-47
6.86246e-47
6.86298e-47
6.8635e-47
6.86403e-47
6.86456e-47
6.86508e-47
6.86561e-47
6.86614e-47
6.86668e-47
6.86721e-47
6.86775e-47
6.86829e-47
6.86884e-47
6.86939e-47
6.86995e-47
6.87051e-47
6.87108e-47
6.87165e-47
6.87223e-47
6.87281e-47
6.8734e-47
6.87399e-47
6.87458e-47
6.87517e-47
6.87575e-47
6.87634e-47
6.87692e-47
6.8775e-47
6.87807e-47
6.87863e-47
6.87921e-47
6.87984e-47
6.88072e-47
6.88253e-47
6.88768e-47
6.90468e-47
6.96347e-47
7.1686e-47
7.8832e-47
1.03618e-46
1.89149e-46
4.82746e-46
1.48525e-45
4.89055e-45
1.6398e-44
5.50874e-44
1.84517e-43
6.15384e-43
2.04284e-42
6.74978e-42
2.21996e-41
7.26856e-41
2.36947e-40
7.69158e-40
2.48657e-39
8.00704e-39
2.56861e-38
8.21014e-38
2.61518e-37
8.30281e-37
2.62784e-36
8.29279e-36
2.6098e-35
8.19217e-35
2.56539e-34
8.01579e-34
2.49952e-33
7.77966e-33
2.4173e-32
7.49961e-32
2.32358e-31
7.19044e-31
2.22281e-30
6.86547e-30
2.119e-29
6.53679e-29
2.01588e-28
6.21642e-28
1.91752e-27
5.91907e-27
1.82958e-26
5.66781e-26
1.76191e-25
5.50584e-25
1.73381e-24
5.52034e-24
1.78486e-23
5.89155e-23
1.99723e-22
6.9941e-22
2.55518e-21
9.68031e-21
3.80444e-20
1.54776e-19
6.48547e-19
2.78255e-18
1.21553e-17
5.38066e-17
2.4045e-16
1.08172e-15
4.88901e-15
2.21677e-14
1.00732e-13
4.58414e-13
2.08819e-12
9.51822e-12
4.34044e-11
1.98237e-10
9.17596e-10
4.28397e-09
2.01449e-08
9.60798e-08
4.80522e-07
2.71828e-06
1.81103e-05
0.000116177
0.000432972
0.000742502
0.000898137
0.00116481
0.00179913
0.0028674
0.00420636
0.00557548
0.00696653
0.00800355
0.00882462
0.00946629
0.00996619
0.0103575
0.0106664
0.0109125
0.01111
0.0112698
0.0113994
0.0115049
0.0115905
0.0116598
0.0117153
0.0117593
0.0117934
0.011819
0.0118374
0.0118495
0.0118561
0.0118579
0.0118556
0.0118495
0.0118402
0.0118281
0.0118134
0.0117971
0.0117794
0.0117601
0.0117395
0.0117175
0.0116943
0.0116701
0.0116449
0.0116188
0.011592
0.0115644
0.0115362
0.0115075
0.0114782
0.0114485
0.0114184
0.011388
0.0113573
0.0113263
0.011295
0.0112636
0.011232
0.0112003
0.0111685
0.0111366
0.0111046
0.0110726
0.0110406
0.0110086
0.0109766
0.0109446
0.0109126
0.0108808
0.0108489
0.0108172
0.0107855
0.0107539
0.0107224
0.0106911
0.0106598
0.0106286
0.0105975
0.0105666
0.0105357
0.010505
0.0104744
0.0104439
0.0104135
0.0103833
0.0103531
0.0103231
0.0102932
0.0102635
0.0102338
0.0102043
0.0101749
0.0101456
0.0101165
0.0100874
0.0100585
0.0100297
0.0100011
0.00997259
0.00994423
0.00991596
0.00988771
0.00985959
0.0098316
0.00980375
0.00977603
0.00974846
0.00972101
0.00969371
0.00966655
0.00963953
0.00961265
0.00958591
0.00955932
0.00953288
0.00950658
0.00948042
0.00945441
0.00942855
0.00940284
0.00937727
0.00935184
0.00932657
0.00930143
0.00927644
0.0092516
0.0092269
0.00920234
0.00917792
0.00915364
0.0091295
0.0091055
0.00908163
0.00905791
0.00903431
0.00901086
0.00898753
0.00896434
0.00894128
0.00891835
0.00889556
0.00887289
0.00885035
0.00882794
0.00880566
0.00878351
0.00876148
0.00873958
0.00871781
0.00869617
0.00867465
0.00865326
0.00863199
0.00861085
0.00858984
0.00856895
0.00854819
0.00852755
0.00850704
0.00848665
0.00846639
0.00844626
0.00842625
0.00840636
0.00838659
0.00836695
0.00834743
0.00832804
0.00830876
0.00828961
0.00827057
0.00825165
0.00823285
0.00821417
0.0081956
0.00817714
0.0081588
0.00814057
0.00812244
0.00810443
0.00808652
0.00806872
0.00805102
0.00803342
0.00801592
0.00799852
0.00798121
0.007964
0.00794688
0.00792985
0.00791291
0.00789605
0.00787928
0.00786259
0.00784598
0.00782944
0.00781298
0.00779658
0.00778026
0.007764
0.0077478
0.00773166
0.00771556
0.00769952
0.00768352
0.00766757
0.00765164
0.00763574
0.00761987
0.00760402
0.00758818
0.00757235
0.00755654
0.00754073
0.00752495
0.00750921
0.00749354
0.007478
0.00746272
0.00744785
0.00743373
0.00742089
0.00741023
0.00740335
)
;

boundaryField
{
    boundary
    {
        type            empty;
    }
    inlet
    {
        type            fixedValue;
        value           uniform 0;
    }
    outlet
    {
        type            zeroGradient;
    }
}


// ************************************************************************* //
