/*--------------------------------*- C++ -*----------------------------------*\
  =========                 |
  \\      /  F ield         | OpenFOAM: The Open Source CFD Toolbox
   \\    /   O peration     | Website:  https://openfoam.org
    \\  /    A nd           | Version:  7
     \\/     M anipulation  |
\*---------------------------------------------------------------------------*/
FoamFile
{
    version     2.0;
    format      ascii;
    class       volScalarField;
    location    "0.00083";
    object      T;
}
// * * * * * * * * * * * * * * * * * * * * * * * * * * * * * * * * * * * * * //

dimensions      [0 0 0 1 0 0 0];

internalField   nonuniform List<scalar> 
500
(
300.001
300.001
300.002
300.003
300.003
300.003
300.003
300.002
300.001
299.999
299.996
299.993
299.99
299.986
299.982
299.978
299.974
299.97
299.966
299.963
299.96
299.958
299.957
299.957
299.957
299.958
299.96
299.963
299.966
299.971
299.976
299.982
299.99
299.998
300.008
300.018
300.031
300.044
300.06
300.077
300.097
300.118
300.142
300.168
300.197
300.228
300.262
300.299
300.338
300.379
300.423
300.468
300.516
300.565
300.615
300.666
300.718
300.77
300.822
300.873
300.923
300.972
301.019
301.065
301.108
301.149
301.188
301.224
301.258
301.289
301.317
301.343
301.366
301.386
301.405
301.421
301.435
301.448
301.459
301.468
301.476
301.483
301.488
301.493
301.497
301.5
301.503
301.505
301.507
301.508
301.509
301.51
301.511
301.512
301.512
301.512
301.513
301.513
301.513
301.513
301.513
301.513
301.514
301.514
301.514
301.514
301.514
301.514
301.514
301.514
301.514
301.514
301.514
301.514
301.514
301.514
301.514
301.514
301.514
301.514
301.514
301.515
301.515
301.515
301.515
301.515
301.515
301.515
301.515
301.515
301.515
301.515
301.516
301.516
301.516
301.516
301.516
301.517
301.517
301.517
301.517
301.517
301.517
301.517
301.517
301.517
301.517
301.518
301.518
301.518
301.518
301.518
301.518
301.518
301.518
301.519
301.519
301.519
301.519
301.519
301.519
301.52
301.52
301.52
301.52
301.52
301.521
301.521
301.521
301.521
301.521
301.522
301.522
301.522
301.522
301.523
301.523
301.523
301.523
301.523
301.524
301.524
301.524
301.524
301.525
301.525
301.525
301.525
301.525
301.526
301.526
301.526
301.526
301.527
301.527
301.527
301.527
301.527
301.527
301.528
301.528
301.528
301.528
301.528
301.528
301.528
301.528
301.528
301.528
301.528
301.528
301.528
301.528
301.528
301.528
301.528
301.528
301.528
301.527
301.527
301.527
301.527
301.526
301.526
301.526
301.525
301.525
301.524
301.524
301.523
301.523
301.522
301.521
301.521
301.52
301.519
301.518
301.517
301.516
301.515
301.514
301.513
301.512
301.511
301.51
301.508
301.507
301.506
301.504
301.503
301.501
301.499
301.498
301.496
301.494
301.492
301.49
301.489
301.487
301.485
301.483
301.481
301.479
301.476
301.474
301.473
301.474
301.479
301.499
301.561
301.74
302.253
303.716
307.883
319.612
350.849
421.495
541.801
692.719
847.249
994.448
1131.24
1252.68
1353.12
1438.05
1510.26
1567.82
1613.81
1653.16
1687.23
1717.17
1743.8
1767.73
1789.41
1809.21
1827.38
1844.16
1859.72
1874.21
1887.75
1900.44
1912.37
1923.61
1934.24
1944.3
1953.84
1962.91
1971.55
1979.78
1987.64
1995.15
2002.33
2009
2015.29
2021.38
2027.27
2032.97
2038.49
2043.85
2049.05
2054.1
2059
2063.77
2068.41
2072.92
2077.32
2081.6
2085.77
2089.84
2093.81
2097.69
2101.47
2105.17
2108.78
2112.31
2115.77
2119.15
2122.45
2125.69
2128.87
2131.97
2135.02
2138.01
2140.94
2143.81
2146.63
2149.39
2152.11
2154.78
2157.4
2159.97
2162.5
2164.98
2167.42
2169.82
2172.18
2174.51
2176.79
2179.04
2181.25
2183.42
2185.57
2187.67
2189.75
2191.79
2193.81
2195.79
2197.74
2199.67
2201.56
2203.43
2205.27
2207.08
2208.87
2210.62
2212.35
2214.05
2215.74
2217.41
2219.06
2220.69
2222.29
2223.88
2225.44
2226.98
2228.51
2230.02
2231.5
2232.97
2234.42
2235.86
2237.28
2238.68
2240.06
2241.43
2242.78
2244.12
2245.44
2246.75
2248.04
2249.32
2250.58
2251.83
2253.07
2254.29
2255.5
2256.7
2257.88
2259.06
2260.22
2261.36
2262.5
2263.63
2264.74
2265.84
2266.93
2268.01
2269.08
2270.14
2271.19
2272.22
2273.25
2274.27
2275.28
2276.28
2277.26
2278.24
2279.21
2280.18
2281.13
2282.07
2283.01
2283.94
2284.85
2285.76
2286.67
2287.56
2288.45
2289.33
2290.2
2291.06
2291.92
2292.77
2293.61
2294.45
2295.28
2296.1
2296.91
2297.72
2298.52
2299.32
2300.1
2300.89
2301.66
2302.43
2303.19
2303.95
2304.7
2305.45
2306.18
2306.92
2307.64
2308.37
2309.08
2309.79
2310.49
2311.19
2311.88
2312.57
2313.25
2313.93
2314.6
2315.26
2315.92
2316.57
2317.22
2317.86
2318.5
2319.13
2319.75
2320.37
2320.99
2321.59
2322.19
2322.79
2323.38
2323.96
2324.54
2325.1
2325.67
2326.22
2326.77
2327.3
2327.83
2328.35
2328.86
2329.35
2329.81
2330.2
2330.45
)
;

boundaryField
{
    boundary
    {
        type            empty;
    }
    inlet
    {
        type            fixedValue;
        value           uniform 300;
    }
    outlet
    {
        type            zeroGradient;
    }
}


// ************************************************************************* //
