/*--------------------------------*- C++ -*----------------------------------*\
  =========                 |
  \\      /  F ield         | OpenFOAM: The Open Source CFD Toolbox
   \\    /   O peration     | Website:  https://openfoam.org
    \\  /    A nd           | Version:  7
     \\/     M anipulation  |
\*---------------------------------------------------------------------------*/
FoamFile
{
    version     2.0;
    format      ascii;
    class       volVectorField;
    location    "0.00083";
    object      U;
}
// * * * * * * * * * * * * * * * * * * * * * * * * * * * * * * * * * * * * * //

dimensions      [0 1 -1 0 0 0 0];

internalField   nonuniform List<vector> 
500
(
(2.34893 0 0)
(2.34891 0 0)
(2.34889 0 0)
(2.34887 0 0)
(2.34885 0 0)
(2.34882 0 0)
(2.3488 0 0)
(2.34878 0 0)
(2.34875 0 0)
(2.34873 0 0)
(2.34871 0 0)
(2.34868 0 0)
(2.34866 0 0)
(2.34864 0 0)
(2.34862 0 0)
(2.3486 0 0)
(2.34859 0 0)
(2.34857 0 0)
(2.34855 0 0)
(2.34854 0 0)
(2.34853 0 0)
(2.34851 0 0)
(2.3485 0 0)
(2.34849 0 0)
(2.34848 0 0)
(2.34847 0 0)
(2.34846 0 0)
(2.34844 0 0)
(2.34843 0 0)
(2.34842 0 0)
(2.34841 0 0)
(2.3484 0 0)
(2.34839 0 0)
(2.34838 0 0)
(2.34838 0 0)
(2.34837 0 0)
(2.34836 0 0)
(2.34836 0 0)
(2.34836 0 0)
(2.34835 0 0)
(2.34835 0 0)
(2.34836 0 0)
(2.34836 0 0)
(2.34836 0 0)
(2.34836 0 0)
(2.34837 0 0)
(2.34837 0 0)
(2.34838 0 0)
(2.34838 0 0)
(2.34838 0 0)
(2.34838 0 0)
(2.34838 0 0)
(2.34838 0 0)
(2.34837 0 0)
(2.34836 0 0)
(2.34835 0 0)
(2.34834 0 0)
(2.34832 0 0)
(2.3483 0 0)
(2.34828 0 0)
(2.34825 0 0)
(2.34822 0 0)
(2.34819 0 0)
(2.34815 0 0)
(2.34812 0 0)
(2.34808 0 0)
(2.34804 0 0)
(2.348 0 0)
(2.34796 0 0)
(2.34792 0 0)
(2.34788 0 0)
(2.34784 0 0)
(2.3478 0 0)
(2.34777 0 0)
(2.34773 0 0)
(2.34769 0 0)
(2.34766 0 0)
(2.34763 0 0)
(2.3476 0 0)
(2.34757 0 0)
(2.34754 0 0)
(2.34752 0 0)
(2.34749 0 0)
(2.34747 0 0)
(2.34744 0 0)
(2.34742 0 0)
(2.3474 0 0)
(2.34738 0 0)
(2.34736 0 0)
(2.34734 0 0)
(2.34732 0 0)
(2.34731 0 0)
(2.34729 0 0)
(2.34727 0 0)
(2.34725 0 0)
(2.34724 0 0)
(2.34722 0 0)
(2.3472 0 0)
(2.34719 0 0)
(2.34717 0 0)
(2.34716 0 0)
(2.34714 0 0)
(2.34712 0 0)
(2.34711 0 0)
(2.34709 0 0)
(2.34708 0 0)
(2.34706 0 0)
(2.34704 0 0)
(2.34703 0 0)
(2.34701 0 0)
(2.347 0 0)
(2.34698 0 0)
(2.34697 0 0)
(2.34695 0 0)
(2.34693 0 0)
(2.34692 0 0)
(2.3469 0 0)
(2.34689 0 0)
(2.34687 0 0)
(2.34686 0 0)
(2.34684 0 0)
(2.34683 0 0)
(2.34681 0 0)
(2.3468 0 0)
(2.34678 0 0)
(2.34676 0 0)
(2.34675 0 0)
(2.34673 0 0)
(2.34672 0 0)
(2.3467 0 0)
(2.34669 0 0)
(2.34667 0 0)
(2.34666 0 0)
(2.34664 0 0)
(2.34663 0 0)
(2.34661 0 0)
(2.3466 0 0)
(2.34658 0 0)
(2.34657 0 0)
(2.34655 0 0)
(2.34654 0 0)
(2.34652 0 0)
(2.3465 0 0)
(2.34649 0 0)
(2.34647 0 0)
(2.34646 0 0)
(2.34644 0 0)
(2.34643 0 0)
(2.34641 0 0)
(2.3464 0 0)
(2.34638 0 0)
(2.34637 0 0)
(2.34635 0 0)
(2.34634 0 0)
(2.34632 0 0)
(2.3463 0 0)
(2.34629 0 0)
(2.34627 0 0)
(2.34626 0 0)
(2.34624 0 0)
(2.34623 0 0)
(2.34621 0 0)
(2.3462 0 0)
(2.34618 0 0)
(2.34616 0 0)
(2.34615 0 0)
(2.34613 0 0)
(2.34612 0 0)
(2.3461 0 0)
(2.34608 0 0)
(2.34607 0 0)
(2.34605 0 0)
(2.34604 0 0)
(2.34602 0 0)
(2.346 0 0)
(2.34599 0 0)
(2.34597 0 0)
(2.34596 0 0)
(2.34594 0 0)
(2.34592 0 0)
(2.34591 0 0)
(2.34589 0 0)
(2.34588 0 0)
(2.34586 0 0)
(2.34584 0 0)
(2.34583 0 0)
(2.34581 0 0)
(2.34579 0 0)
(2.34578 0 0)
(2.34576 0 0)
(2.34574 0 0)
(2.34573 0 0)
(2.34571 0 0)
(2.34569 0 0)
(2.34568 0 0)
(2.34566 0 0)
(2.34564 0 0)
(2.34563 0 0)
(2.34561 0 0)
(2.34559 0 0)
(2.34558 0 0)
(2.34556 0 0)
(2.34554 0 0)
(2.34553 0 0)
(2.34551 0 0)
(2.34549 0 0)
(2.34547 0 0)
(2.34546 0 0)
(2.34544 0 0)
(2.34542 0 0)
(2.34541 0 0)
(2.34539 0 0)
(2.34537 0 0)
(2.34535 0 0)
(2.34534 0 0)
(2.34532 0 0)
(2.3453 0 0)
(2.34529 0 0)
(2.34527 0 0)
(2.34525 0 0)
(2.34523 0 0)
(2.34522 0 0)
(2.3452 0 0)
(2.34518 0 0)
(2.34516 0 0)
(2.34515 0 0)
(2.34513 0 0)
(2.34511 0 0)
(2.34509 0 0)
(2.34508 0 0)
(2.34506 0 0)
(2.34504 0 0)
(2.34502 0 0)
(2.34501 0 0)
(2.34499 0 0)
(2.34497 0 0)
(2.34495 0 0)
(2.34494 0 0)
(2.34492 0 0)
(2.3449 0 0)
(2.34488 0 0)
(2.34486 0 0)
(2.34485 0 0)
(2.34483 0 0)
(2.34481 0 0)
(2.34479 0 0)
(2.34478 0 0)
(2.34476 0 0)
(2.34474 0 0)
(2.34472 0 0)
(2.3447 0 0)
(2.34468 0 0)
(2.34467 0 0)
(2.34465 0 0)
(2.34463 0 0)
(2.34461 0 0)
(2.34459 0 0)
(2.34458 0 0)
(2.34456 0 0)
(2.34454 0 0)
(2.34452 0 0)
(2.3445 0 0)
(2.34449 0 0)
(2.34447 0 0)
(2.34445 0 0)
(2.34443 0 0)
(2.34441 0 0)
(2.34442 0 0)
(2.34451 0 0)
(2.3449 0 0)
(2.34622 0 0)
(2.35039 0 0)
(2.36255 0 0)
(2.39495 0 0)
(2.4743 0 0)
(2.65884 0 0)
(3.05525 0 0)
(3.84356 0 0)
(4.97037 0 0)
(6.21024 0 0)
(7.38032 0 0)
(8.41815 0 0)
(9.31041 0 0)
(10.0544 0 0)
(10.6701 0 0)
(11.1816 0 0)
(11.5955 0 0)
(11.9241 0 0)
(12.1938 0 0)
(12.4252 0 0)
(12.6281 0 0)
(12.8076 0 0)
(12.9679 0 0)
(13.1123 0 0)
(13.2434 0 0)
(13.3633 0 0)
(13.4735 0 0)
(13.5753 0 0)
(13.6697 0 0)
(13.7577 0 0)
(13.8399 0 0)
(13.9169 0 0)
(13.9893 0 0)
(14.0576 0 0)
(14.122 0 0)
(14.183 0 0)
(14.2409 0 0)
(14.2959 0 0)
(14.3482 0 0)
(14.398 0 0)
(14.4455 0 0)
(14.4908 0 0)
(14.5329 0 0)
(14.5723 0 0)
(14.6106 0 0)
(14.6476 0 0)
(14.6834 0 0)
(14.718 0 0)
(14.7514 0 0)
(14.7839 0 0)
(14.8154 0 0)
(14.8459 0 0)
(14.8756 0 0)
(14.9044 0 0)
(14.9324 0 0)
(14.9597 0 0)
(14.9862 0 0)
(15.012 0 0)
(15.0372 0 0)
(15.0617 0 0)
(15.0856 0 0)
(15.1089 0 0)
(15.1317 0 0)
(15.1539 0 0)
(15.1756 0 0)
(15.1968 0 0)
(15.2175 0 0)
(15.2378 0 0)
(15.2576 0 0)
(15.277 0 0)
(15.296 0 0)
(15.3146 0 0)
(15.3328 0 0)
(15.3507 0 0)
(15.3682 0 0)
(15.3853 0 0)
(15.4021 0 0)
(15.4186 0 0)
(15.4348 0 0)
(15.4506 0 0)
(15.4662 0 0)
(15.4815 0 0)
(15.4965 0 0)
(15.5113 0 0)
(15.5258 0 0)
(15.54 0 0)
(15.554 0 0)
(15.5678 0 0)
(15.5813 0 0)
(15.5946 0 0)
(15.6077 0 0)
(15.6206 0 0)
(15.6333 0 0)
(15.6457 0 0)
(15.658 0 0)
(15.6701 0 0)
(15.682 0 0)
(15.6937 0 0)
(15.7053 0 0)
(15.7166 0 0)
(15.7278 0 0)
(15.7389 0 0)
(15.7497 0 0)
(15.7604 0 0)
(15.7709 0 0)
(15.7813 0 0)
(15.7915 0 0)
(15.8016 0 0)
(15.8116 0 0)
(15.8215 0 0)
(15.8312 0 0)
(15.8408 0 0)
(15.8503 0 0)
(15.8597 0 0)
(15.8689 0 0)
(15.878 0 0)
(15.887 0 0)
(15.8959 0 0)
(15.9047 0 0)
(15.9133 0 0)
(15.9219 0 0)
(15.9303 0 0)
(15.9387 0 0)
(15.9469 0 0)
(15.9551 0 0)
(15.9631 0 0)
(15.9711 0 0)
(15.9789 0 0)
(15.9867 0 0)
(15.9944 0 0)
(16.002 0 0)
(16.0095 0 0)
(16.0169 0 0)
(16.0242 0 0)
(16.0315 0 0)
(16.0386 0 0)
(16.0457 0 0)
(16.0527 0 0)
(16.0597 0 0)
(16.0665 0 0)
(16.0733 0 0)
(16.08 0 0)
(16.0867 0 0)
(16.0933 0 0)
(16.0998 0 0)
(16.1062 0 0)
(16.1126 0 0)
(16.1189 0 0)
(16.1251 0 0)
(16.1313 0 0)
(16.1374 0 0)
(16.1434 0 0)
(16.1494 0 0)
(16.1553 0 0)
(16.1612 0 0)
(16.167 0 0)
(16.1728 0 0)
(16.1784 0 0)
(16.1841 0 0)
(16.1897 0 0)
(16.1952 0 0)
(16.2007 0 0)
(16.2061 0 0)
(16.2115 0 0)
(16.2168 0 0)
(16.2221 0 0)
(16.2273 0 0)
(16.2325 0 0)
(16.2376 0 0)
(16.2427 0 0)
(16.2477 0 0)
(16.2527 0 0)
(16.2576 0 0)
(16.2625 0 0)
(16.2674 0 0)
(16.2722 0 0)
(16.2769 0 0)
(16.2816 0 0)
(16.2863 0 0)
(16.291 0 0)
(16.2956 0 0)
(16.3001 0 0)
(16.3046 0 0)
(16.3091 0 0)
(16.3135 0 0)
(16.3179 0 0)
(16.3223 0 0)
(16.3266 0 0)
(16.3309 0 0)
(16.3351 0 0)
(16.3394 0 0)
(16.3435 0 0)
(16.3477 0 0)
(16.3518 0 0)
(16.3559 0 0)
(16.3599 0 0)
(16.3639 0 0)
(16.3679 0 0)
(16.3718 0 0)
(16.3757 0 0)
(16.3796 0 0)
(16.3835 0 0)
(16.3873 0 0)
(16.3911 0 0)
(16.3948 0 0)
(16.3985 0 0)
(16.4022 0 0)
(16.4059 0 0)
(16.4095 0 0)
(16.4131 0 0)
(16.4167 0 0)
(16.4203 0 0)
(16.4238 0 0)
(16.4273 0 0)
(16.4308 0 0)
(16.4342 0 0)
(16.4376 0 0)
(16.441 0 0)
(16.4444 0 0)
(16.4477 0 0)
(16.4511 0 0)
(16.4544 0 0)
(16.4577 0 0)
(16.461 0 0)
(16.4642 0 0)
(16.4675 0 0)
(16.4707 0 0)
(16.4737 0 0)
(16.4763 0 0)
(16.4781 0 0)
)
;

boundaryField
{
    boundary
    {
        type            empty;
    }
    inlet
    {
        type            fixedValue;
        value           uniform (2.34893 0 0);
    }
    outlet
    {
        type            zeroGradient;
    }
}


// ************************************************************************* //
