/*--------------------------------*- C++ -*----------------------------------*\
  =========                 |
  \\      /  F ield         | OpenFOAM: The Open Source CFD Toolbox
   \\    /   O peration     | Website:  https://openfoam.org
    \\  /    A nd           | Version:  7
     \\/     M anipulation  |
\*---------------------------------------------------------------------------*/
FoamFile
{
    version     2.0;
    format      ascii;
    class       volScalarField;
    location    "0.00017";
    object      H;
}
// * * * * * * * * * * * * * * * * * * * * * * * * * * * * * * * * * * * * * //

dimensions      [0 0 0 0 0 0 0];

internalField   nonuniform List<scalar> 
124
(
0.000208299
0.000201375
0.000194661
0.000188162
0.000181881
0.000175819
0.000169978
0.000164358
0.000158959
0.000153781
0.000148823
0.000144081
0.000139555
0.000135241
0.000131135
0.000127235
0.000123535
0.000120032
0.00011672
0.000113594
0.000110649
0.000107878
0.000105277
0.000102838
0.000100556
9.84238e-05
9.64356e-05
9.45849e-05
9.28652e-05
9.12701e-05
8.97933e-05
8.84286e-05
8.71699e-05
8.6011e-05
8.49462e-05
8.39696e-05
8.30757e-05
8.22592e-05
8.15149e-05
8.08377e-05
8.02228e-05
7.96657e-05
7.91621e-05
7.87077e-05
7.82986e-05
7.79311e-05
7.76018e-05
7.73072e-05
7.70444e-05
7.68104e-05
7.66025e-05
7.64184e-05
7.62556e-05
7.61119e-05
7.59855e-05
7.58746e-05
7.57775e-05
7.56927e-05
7.56187e-05
7.55545e-05
7.54988e-05
7.54507e-05
7.54092e-05
7.53735e-05
7.53429e-05
7.53167e-05
7.52944e-05
7.52754e-05
7.52593e-05
7.52457e-05
7.52343e-05
7.52247e-05
7.52167e-05
7.521e-05
7.52045e-05
7.51999e-05
7.51962e-05
7.51932e-05
7.51907e-05
7.51887e-05
7.51871e-05
7.51859e-05
7.51849e-05
7.51842e-05
7.51837e-05
7.51833e-05
7.5183e-05
7.51829e-05
7.51828e-05
7.51828e-05
7.51829e-05
7.51829e-05
7.51831e-05
7.51832e-05
7.51834e-05
7.51836e-05
7.51838e-05
7.5184e-05
7.51842e-05
7.51844e-05
7.51846e-05
7.51848e-05
7.5185e-05
7.51852e-05
7.51854e-05
7.51856e-05
7.51858e-05
7.5186e-05
7.51861e-05
7.51863e-05
7.51865e-05
7.51866e-05
7.51867e-05
7.51869e-05
7.5187e-05
7.51871e-05
7.51872e-05
7.51873e-05
7.51874e-05
7.51875e-05
7.51876e-05
7.51876e-05
7.51876e-05
7.51877e-05
)
;

boundaryField
{
    boundary
    {
        type            empty;
    }
    inlet
    {
        type            fixedValue;
        value           nonuniform 0();
    }
    outlet
    {
        type            zeroGradient;
    }
    procBoundary0to1
    {
        type            processor;
        value           uniform 0.000215428;
    }
}


// ************************************************************************* //
