/*--------------------------------*- C++ -*----------------------------------*\
  =========                 |
  \\      /  F ield         | OpenFOAM: The Open Source CFD Toolbox
   \\    /   O peration     | Website:  https://openfoam.org
    \\  /    A nd           | Version:  7
     \\/     M anipulation  |
\*---------------------------------------------------------------------------*/
FoamFile
{
    version     2.0;
    format      ascii;
    class       volScalarField;
    location    "0.00017";
    object      T;
}
// * * * * * * * * * * * * * * * * * * * * * * * * * * * * * * * * * * * * * //

dimensions      [0 0 0 1 0 0 0];

internalField   nonuniform List<scalar> 
124
(
2359.89
2363.71
2367.2
2370.4
2373.31
2375.95
2378.33
2380.47
2382.37
2384.07
2385.57
2386.89
2388.04
2389.05
2389.92
2390.68
2391.32
2391.87
2392.34
2392.74
2393.07
2393.34
2393.57
2393.75
2393.9
2394.03
2394.12
2394.2
2394.26
2394.31
2394.34
2394.37
2394.39
2394.41
2394.42
2394.43
2394.44
2394.44
2394.45
2394.45
2394.46
2394.46
2394.47
2394.47
2394.48
2394.48
2394.49
2394.5
2394.51
2394.51
2394.52
2394.53
2394.54
2394.55
2394.56
2394.57
2394.58
2394.59
2394.6
2394.61
2394.62
2394.63
2394.64
2394.65
2394.65
2394.66
2394.67
2394.68
2394.69
2394.7
2394.71
2394.72
2394.73
2394.73
2394.74
2394.75
2394.76
2394.77
2394.78
2394.78
2394.79
2394.8
2394.81
2394.82
2394.83
2394.83
2394.84
2394.85
2394.86
2394.86
2394.87
2394.88
2394.89
2394.89
2394.9
2394.91
2394.92
2394.92
2394.93
2394.94
2394.94
2394.95
2394.96
2394.96
2394.97
2394.98
2394.98
2394.99
2394.99
2395
2395.01
2395.01
2395.02
2395.02
2395.03
2395.03
2395.04
2395.04
2395.05
2395.05
2395.06
2395.06
2395.06
2395.07
)
;

boundaryField
{
    boundary
    {
        type            empty;
    }
    inlet
    {
        type            fixedValue;
        value           nonuniform 0();
    }
    outlet
    {
        type            zeroGradient;
    }
    procBoundary0to1
    {
        type            processor;
        value           uniform 2355.73;
    }
}


// ************************************************************************* //
