/*--------------------------------*- C++ -*----------------------------------*\
  =========                 |
  \\      /  F ield         | OpenFOAM: The Open Source CFD Toolbox
   \\    /   O peration     | Website:  https://openfoam.org
    \\  /    A nd           | Version:  7
     \\/     M anipulation  |
\*---------------------------------------------------------------------------*/
FoamFile
{
    version     2.0;
    format      ascii;
    class       surfaceScalarField;
    location    "0.00026";
    object      phi;
}
// * * * * * * * * * * * * * * * * * * * * * * * * * * * * * * * * * * * * * //

dimensions      [1 0 -1 0 0 0 0];

internalField   nonuniform List<scalar> 
123
(
7.19631e-06
7.19092e-06
7.18494e-06
7.17836e-06
7.17117e-06
7.16338e-06
7.15499e-06
7.146e-06
7.13645e-06
7.12634e-06
7.11571e-06
7.1046e-06
7.09304e-06
7.08108e-06
7.06875e-06
7.05612e-06
7.04324e-06
7.03016e-06
7.01695e-06
7.00366e-06
6.99035e-06
6.97709e-06
6.96393e-06
6.95094e-06
6.93817e-06
6.92567e-06
6.91349e-06
6.9017e-06
6.89032e-06
6.8794e-06
6.86897e-06
6.85907e-06
6.84972e-06
6.84094e-06
6.83276e-06
6.82517e-06
6.81819e-06
6.81182e-06
6.80606e-06
6.8009e-06
6.79633e-06
6.79233e-06
6.78889e-06
6.78598e-06
6.78359e-06
6.78168e-06
6.78023e-06
6.77921e-06
6.77858e-06
6.77833e-06
6.7784e-06
6.77878e-06
6.77942e-06
6.78031e-06
6.7814e-06
6.78267e-06
6.7841e-06
6.78564e-06
6.78729e-06
6.78901e-06
6.79078e-06
6.79259e-06
6.79441e-06
6.79624e-06
6.79804e-06
6.79982e-06
6.80155e-06
6.80324e-06
6.80487e-06
6.80644e-06
6.80794e-06
6.80936e-06
6.81071e-06
6.81198e-06
6.81317e-06
6.81429e-06
6.81532e-06
6.81628e-06
6.81717e-06
6.81798e-06
6.81872e-06
6.81939e-06
6.82e-06
6.82055e-06
6.82103e-06
6.82147e-06
6.82185e-06
6.82219e-06
6.82247e-06
6.82272e-06
6.82293e-06
6.8231e-06
6.82324e-06
6.82335e-06
6.82343e-06
6.82349e-06
6.82352e-06
6.82354e-06
6.82353e-06
6.82351e-06
6.82347e-06
6.82342e-06
6.82335e-06
6.82327e-06
6.82319e-06
6.82309e-06
6.82299e-06
6.82288e-06
6.82276e-06
6.82264e-06
6.82251e-06
6.82238e-06
6.82224e-06
6.8221e-06
6.82196e-06
6.82182e-06
6.82167e-06
6.82152e-06
6.82137e-06
6.82122e-06
6.82106e-06
6.82091e-06
6.82075e-06
)
;

boundaryField
{
    boundary
    {
        type            empty;
        value           nonuniform 0();
    }
    inlet
    {
        type            calculated;
        value           nonuniform 0();
    }
    outlet
    {
        type            calculated;
        value           uniform 6.82059e-06;
    }
    procBoundary0to1
    {
        type            processor;
        value           uniform -7.20114e-06;
    }
}


// ************************************************************************* //
