/*--------------------------------*- C++ -*----------------------------------*\
  =========                 |
  \\      /  F ield         | OpenFOAM: The Open Source CFD Toolbox
   \\    /   O peration     | Website:  https://openfoam.org
    \\  /    A nd           | Version:  7
     \\/     M anipulation  |
\*---------------------------------------------------------------------------*/
FoamFile
{
    version     2.0;
    format      ascii;
    class       surfaceScalarField;
    location    "0.00038";
    object      phi;
}
// * * * * * * * * * * * * * * * * * * * * * * * * * * * * * * * * * * * * * //

dimensions      [1 0 -1 0 0 0 0];

internalField   nonuniform List<scalar> 
125
(
6.86677e-06
6.86652e-06
6.86628e-06
6.86603e-06
6.86579e-06
6.86555e-06
6.8653e-06
6.86506e-06
6.86482e-06
6.86457e-06
6.86433e-06
6.86409e-06
6.86384e-06
6.8636e-06
6.86336e-06
6.86312e-06
6.86287e-06
6.86263e-06
6.86239e-06
6.86215e-06
6.8619e-06
6.86166e-06
6.86142e-06
6.86118e-06
6.86093e-06
6.86069e-06
6.86045e-06
6.86021e-06
6.85997e-06
6.85972e-06
6.85948e-06
6.85924e-06
6.859e-06
6.85876e-06
6.85851e-06
6.85827e-06
6.85803e-06
6.85779e-06
6.85755e-06
6.85731e-06
6.85707e-06
6.85683e-06
6.85659e-06
6.85636e-06
6.85612e-06
6.85588e-06
6.85564e-06
6.85541e-06
6.85517e-06
6.85493e-06
6.8547e-06
6.85446e-06
6.85423e-06
6.85399e-06
6.85376e-06
6.85352e-06
6.85329e-06
6.85306e-06
6.85283e-06
6.85259e-06
6.85236e-06
6.85213e-06
6.8519e-06
6.85167e-06
6.85144e-06
6.85122e-06
6.85099e-06
6.85076e-06
6.85054e-06
6.85031e-06
6.85009e-06
6.84987e-06
6.84964e-06
6.84942e-06
6.8492e-06
6.84898e-06
6.84877e-06
6.84855e-06
6.84833e-06
6.84812e-06
6.8479e-06
6.84769e-06
6.84748e-06
6.84727e-06
6.84706e-06
6.84685e-06
6.84664e-06
6.84644e-06
6.84623e-06
6.84603e-06
6.84583e-06
6.84563e-06
6.84543e-06
6.84523e-06
6.84503e-06
6.84484e-06
6.84464e-06
6.84445e-06
6.84426e-06
6.84407e-06
6.84388e-06
6.8437e-06
6.84351e-06
6.84333e-06
6.84314e-06
6.84296e-06
6.84278e-06
6.8426e-06
6.84242e-06
6.84225e-06
6.84207e-06
6.8419e-06
6.84172e-06
6.84155e-06
6.84138e-06
6.84121e-06
6.84104e-06
6.84087e-06
6.84071e-06
6.84054e-06
6.84037e-06
6.84021e-06
6.84005e-06
6.83988e-06
6.83972e-06
)
;

boundaryField
{
    boundary
    {
        type            empty;
        value           nonuniform 0();
    }
    inlet
    {
        type            calculated;
        value           nonuniform 0();
    }
    outlet
    {
        type            calculated;
        value           nonuniform 0();
    }
    procBoundary3to1
    {
        type            processor;
        value           uniform 6.83956e-06;
    }
    procBoundary3to2
    {
        type            processor;
        value           uniform -6.86701e-06;
    }
}


// ************************************************************************* //
