/*--------------------------------*- C++ -*----------------------------------*\
  =========                 |
  \\      /  F ield         | OpenFOAM: The Open Source CFD Toolbox
   \\    /   O peration     | Website:  https://openfoam.org
    \\  /    A nd           | Version:  7
     \\/     M anipulation  |
\*---------------------------------------------------------------------------*/
FoamFile
{
    version     2.0;
    format      ascii;
    class       volScalarField;
    location    "0.00074";
    object      H2O2;
}
// * * * * * * * * * * * * * * * * * * * * * * * * * * * * * * * * * * * * * //

dimensions      [0 0 0 0 0 0 0];

internalField   nonuniform List<scalar> 
126
(
5.04297e-49
5.04318e-49
5.0434e-49
5.04363e-49
5.04386e-49
5.0441e-49
5.04434e-49
5.04459e-49
5.04483e-49
5.04508e-49
5.04534e-49
5.04562e-49
5.04592e-49
5.04626e-49
5.04665e-49
5.0471e-49
5.04763e-49
5.04824e-49
5.04896e-49
5.04978e-49
5.05072e-49
5.05177e-49
5.05293e-49
5.05419e-49
5.05553e-49
5.05692e-49
5.05835e-49
5.05977e-49
5.06116e-49
5.06249e-49
5.06373e-49
5.06485e-49
5.06584e-49
5.06669e-49
5.06739e-49
5.06796e-49
5.0684e-49
5.06874e-49
5.069e-49
5.0692e-49
5.06939e-49
5.06958e-49
5.06981e-49
5.07009e-49
5.07044e-49
5.07089e-49
5.07143e-49
5.07208e-49
5.07282e-49
5.07366e-49
5.07458e-49
5.07558e-49
5.07663e-49
5.07772e-49
5.07884e-49
5.07997e-49
5.0811e-49
5.08221e-49
5.08328e-49
5.08432e-49
5.08531e-49
5.08624e-49
5.08712e-49
5.08794e-49
5.08869e-49
5.08938e-49
5.09001e-49
5.09058e-49
5.09109e-49
5.09154e-49
5.09194e-49
5.09229e-49
5.09259e-49
5.09284e-49
5.09306e-49
5.09331e-49
5.09392e-49
5.09657e-49
5.11011e-49
5.18011e-49
5.54012e-49
7.37774e-49
1.66876e-48
6.35052e-48
2.97217e-47
1.45542e-46
7.15377e-46
3.49892e-45
1.7e-44
8.20275e-44
3.93073e-43
1.87081e-42
8.84455e-42
4.15399e-41
1.93847e-40
8.98922e-40
4.14309e-39
1.8982e-38
8.64688e-38
3.91709e-37
1.76502e-36
7.91254e-36
3.52996e-35
1.56755e-34
6.93081e-34
3.05194e-33
1.33881e-32
5.85236e-32
2.54999e-31
1.1078e-30
4.79972e-30
2.07454e-29
8.94729e-29
3.85151e-28
1.65517e-27
7.10265e-27
3.04406e-26
1.30323e-25
5.57437e-25
2.38254e-24
1.01768e-23
4.34455e-23
1.85386e-22
7.90725e-22
3.37127e-21
1.43673e-20
)
;

boundaryField
{
    boundary
    {
        type            empty;
    }
    inlet
    {
        type            fixedValue;
        value           nonuniform 0();
    }
    outlet
    {
        type            zeroGradient;
    }
    procBoundary3to1
    {
        type            processor;
        value           uniform 6.15916e-20;
    }
    procBoundary3to2
    {
        type            processor;
        value           uniform 5.0567e-49;
    }
}


// ************************************************************************* //
