/*--------------------------------*- C++ -*----------------------------------*\
  =========                 |
  \\      /  F ield         | OpenFOAM: The Open Source CFD Toolbox
   \\    /   O peration     | Website:  https://openfoam.org
    \\  /    A nd           | Version:  7
     \\/     M anipulation  |
\*---------------------------------------------------------------------------*/
FoamFile
{
    version     2.0;
    format      ascii;
    class       volVectorField;
    location    "0.00074";
    object      U;
}
// * * * * * * * * * * * * * * * * * * * * * * * * * * * * * * * * * * * * * //

dimensions      [0 1 -1 0 0 0 0];

internalField   nonuniform List<vector> 
126
(
(2.34628 0 0)
(2.34626 0 0)
(2.34624 0 0)
(2.34622 0 0)
(2.3462 0 0)
(2.34619 0 0)
(2.34617 0 0)
(2.34615 0 0)
(2.34613 0 0)
(2.34611 0 0)
(2.34609 0 0)
(2.34607 0 0)
(2.34605 0 0)
(2.34603 0 0)
(2.34601 0 0)
(2.34599 0 0)
(2.34597 0 0)
(2.34596 0 0)
(2.34594 0 0)
(2.34592 0 0)
(2.3459 0 0)
(2.34588 0 0)
(2.34586 0 0)
(2.34584 0 0)
(2.34583 0 0)
(2.34581 0 0)
(2.34579 0 0)
(2.34577 0 0)
(2.34575 0 0)
(2.34573 0 0)
(2.34572 0 0)
(2.3457 0 0)
(2.34568 0 0)
(2.34566 0 0)
(2.34564 0 0)
(2.34562 0 0)
(2.34561 0 0)
(2.34559 0 0)
(2.34557 0 0)
(2.34555 0 0)
(2.34554 0 0)
(2.34552 0 0)
(2.3455 0 0)
(2.34548 0 0)
(2.34546 0 0)
(2.34545 0 0)
(2.34543 0 0)
(2.34541 0 0)
(2.34539 0 0)
(2.34538 0 0)
(2.34536 0 0)
(2.34534 0 0)
(2.34533 0 0)
(2.34531 0 0)
(2.34529 0 0)
(2.34527 0 0)
(2.34526 0 0)
(2.34524 0 0)
(2.34522 0 0)
(2.34521 0 0)
(2.34519 0 0)
(2.34517 0 0)
(2.34516 0 0)
(2.34514 0 0)
(2.34512 0 0)
(2.34511 0 0)
(2.34509 0 0)
(2.34507 0 0)
(2.34506 0 0)
(2.34504 0 0)
(2.34502 0 0)
(2.34501 0 0)
(2.34499 0 0)
(2.34497 0 0)
(2.34496 0 0)
(2.34494 0 0)
(2.34493 0 0)
(2.34491 0 0)
(2.34489 0 0)
(2.34488 0 0)
(2.34486 0 0)
(2.34484 0 0)
(2.34483 0 0)
(2.34481 0 0)
(2.3448 0 0)
(2.34478 0 0)
(2.34477 0 0)
(2.34475 0 0)
(2.34473 0 0)
(2.34472 0 0)
(2.3447 0 0)
(2.34469 0 0)
(2.34467 0 0)
(2.34466 0 0)
(2.34464 0 0)
(2.34463 0 0)
(2.34461 0 0)
(2.34459 0 0)
(2.34458 0 0)
(2.34456 0 0)
(2.34455 0 0)
(2.34453 0 0)
(2.34452 0 0)
(2.3445 0 0)
(2.34449 0 0)
(2.34447 0 0)
(2.34446 0 0)
(2.34444 0 0)
(2.34443 0 0)
(2.34441 0 0)
(2.3444 0 0)
(2.34438 0 0)
(2.34437 0 0)
(2.34435 0 0)
(2.34434 0 0)
(2.34433 0 0)
(2.34431 0 0)
(2.3443 0 0)
(2.34428 0 0)
(2.34427 0 0)
(2.34425 0 0)
(2.34424 0 0)
(2.34422 0 0)
(2.34421 0 0)
(2.34419 0 0)
(2.34418 0 0)
)
;

boundaryField
{
    boundary
    {
        type            empty;
    }
    inlet
    {
        type            fixedValue;
        value           nonuniform 0();
    }
    outlet
    {
        type            zeroGradient;
    }
    procBoundary3to1
    {
        type            processor;
        value           uniform (2.34417 0 0);
    }
    procBoundary3to2
    {
        type            processor;
        value           uniform (2.3463 0 0);
    }
}


// ************************************************************************* //
