/*--------------------------------*- C++ -*----------------------------------*\
  =========                 |
  \\      /  F ield         | OpenFOAM: The Open Source CFD Toolbox
   \\    /   O peration     | Website:  https://openfoam.org
    \\  /    A nd           | Version:  7
     \\/     M anipulation  |
\*---------------------------------------------------------------------------*/
FoamFile
{
    version     2.0;
    format      ascii;
    class       volScalarField;
    location    "0.00083";
    object      O;
}
// * * * * * * * * * * * * * * * * * * * * * * * * * * * * * * * * * * * * * //

dimensions      [0 0 0 0 0 0 0];

internalField   nonuniform List<scalar> 
125
(
1.57741e-47
3.76342e-47
5.96121e-47
8.15882e-47
1.03529e-46
1.25419e-46
1.47245e-46
1.68998e-46
1.90668e-46
2.12251e-46
2.33745e-46
2.55153e-46
2.76483e-46
2.97747e-46
3.18961e-46
3.40146e-46
3.61324e-46
3.82519e-46
4.03756e-46
4.25059e-46
4.46451e-46
4.67954e-46
4.89586e-46
5.11365e-46
5.33308e-46
5.55432e-46
5.77753e-46
6.00293e-46
6.23073e-46
6.46124e-46
6.69477e-46
6.93174e-46
7.17263e-46
7.41799e-46
7.66847e-46
7.92478e-46
8.18768e-46
8.45802e-46
8.73666e-46
9.02451e-46
9.32244e-46
9.63131e-46
9.95192e-46
1.0285e-45
1.0631e-45
1.09904e-45
1.13635e-45
1.17501e-45
1.21501e-45
1.25628e-45
1.29873e-45
1.34227e-45
1.38674e-45
1.43196e-45
1.47775e-45
1.52387e-45
1.5701e-45
1.61617e-45
1.66182e-45
1.70679e-45
1.75082e-45
1.79365e-45
1.83504e-45
1.87479e-45
1.9127e-45
1.94861e-45
1.98239e-45
2.01395e-45
2.04323e-45
2.0702e-45
2.09487e-45
2.11727e-45
2.13748e-45
2.15557e-45
2.17165e-45
2.18585e-45
2.19829e-45
2.20912e-45
2.21848e-45
2.22651e-45
2.23335e-45
2.23915e-45
2.24402e-45
2.24809e-45
2.25146e-45
2.25424e-45
2.25651e-45
2.25836e-45
2.25986e-45
2.26106e-45
2.26202e-45
2.26278e-45
2.26338e-45
2.26385e-45
2.26422e-45
2.26451e-45
2.26474e-45
2.26491e-45
2.26505e-45
2.26516e-45
2.26524e-45
2.26531e-45
2.26537e-45
2.26542e-45
2.26546e-45
2.2655e-45
2.26553e-45
2.26557e-45
2.2656e-45
2.26563e-45
2.26567e-45
2.2657e-45
2.26574e-45
2.26577e-45
2.26581e-45
2.26585e-45
2.26589e-45
2.26593e-45
2.26597e-45
2.26601e-45
2.26603e-45
2.26601e-45
2.26583e-45
2.26524e-45
2.26342e-45
)
;

boundaryField
{
    boundary
    {
        type            empty;
    }
    inlet
    {
        type            fixedValue;
        value           uniform 0;
    }
    outlet
    {
        type            zeroGradient;
    }
    procBoundary2to3
    {
        type            processor;
        value           uniform 2.26078e-45;
    }
}


// ************************************************************************* //
