/*--------------------------------*- C++ -*----------------------------------*\
  =========                 |
  \\      /  F ield         | OpenFOAM: The Open Source CFD Toolbox
   \\    /   O peration     | Website:  https://openfoam.org
    \\  /    A nd           | Version:  7
     \\/     M anipulation  |
\*---------------------------------------------------------------------------*/
FoamFile
{
    version     2.0;
    format      ascii;
    class       volScalarField;
    location    "0.00083";
    object      Qdot;
}
// * * * * * * * * * * * * * * * * * * * * * * * * * * * * * * * * * * * * * //

dimensions      [1 -1 -3 0 0 0 0];

internalField   nonuniform List<scalar> 
125
(
-2.45212e-27
-1.86278e-27
-1.73601e-27
-1.70894e-27
-1.70325e-27
-1.70203e-27
-1.70158e-27
-1.70108e-27
-1.70034e-27
-1.6993e-27
-1.69798e-27
-1.69639e-27
-1.69457e-27
-1.69258e-27
-1.69048e-27
-1.68834e-27
-1.68623e-27
-1.68422e-27
-1.68239e-27
-1.6808e-27
-1.6795e-27
-1.67852e-27
-1.67792e-27
-1.67769e-27
-1.67787e-27
-1.67846e-27
-1.67947e-27
-1.68089e-27
-1.68274e-27
-1.68502e-27
-1.68775e-27
-1.69097e-27
-1.69469e-27
-1.69897e-27
-1.70386e-27
-1.70944e-27
-1.71576e-27
-1.72291e-27
-1.73099e-27
-1.74009e-27
-1.7503e-27
-1.76172e-27
-1.77444e-27
-1.78854e-27
-1.80412e-27
-1.82123e-27
-1.83992e-27
-1.86024e-27
-1.88219e-27
-1.90576e-27
-1.93092e-27
-1.95761e-27
-1.98574e-27
-2.01519e-27
-2.04582e-27
-2.07745e-27
-2.10989e-27
-2.14293e-27
-2.17632e-27
-2.20984e-27
-2.24322e-27
-2.27622e-27
-2.3086e-27
-2.34012e-27
-2.37056e-27
-2.39974e-27
-2.42748e-27
-2.45366e-27
-2.47816e-27
-2.50092e-27
-2.52189e-27
-2.54107e-27
-2.55847e-27
-2.57414e-27
-2.58814e-27
-2.60056e-27
-2.61149e-27
-2.62105e-27
-2.62933e-27
-2.63647e-27
-2.64258e-27
-2.64777e-27
-2.65214e-27
-2.65581e-27
-2.65886e-27
-2.66138e-27
-2.66345e-27
-2.66514e-27
-2.66651e-27
-2.66762e-27
-2.66851e-27
-2.66921e-27
-2.66978e-27
-2.67022e-27
-2.67057e-27
-2.67084e-27
-2.67106e-27
-2.67123e-27
-2.67136e-27
-2.67147e-27
-2.67155e-27
-2.67162e-27
-2.67168e-27
-2.67173e-27
-2.67177e-27
-2.67181e-27
-2.67185e-27
-2.67188e-27
-2.67191e-27
-2.67195e-27
-2.67198e-27
-2.67201e-27
-2.67205e-27
-2.67209e-27
-2.67212e-27
-2.67216e-27
-2.6722e-27
-2.67225e-27
-2.67229e-27
-2.67234e-27
-2.67239e-27
-2.67244e-27
-2.67249e-27
-2.67253e-27
-2.67257e-27
)
;

boundaryField
{
    boundary
    {
        type            empty;
    }
    inlet
    {
        type            calculated;
        value           uniform 0;
    }
    outlet
    {
        type            calculated;
        value           nonuniform 0();
    }
    procBoundary2to3
    {
        type            processor;
        value           uniform 0;
    }
}


// ************************************************************************* //
