/*--------------------------------*- C++ -*----------------------------------*\
  =========                 |
  \\      /  F ield         | OpenFOAM: The Open Source CFD Toolbox
   \\    /   O peration     | Website:  https://openfoam.org
    \\  /    A nd           | Version:  7
     \\/     M anipulation  |
\*---------------------------------------------------------------------------*/
FoamFile
{
    version     2.0;
    format      ascii;
    class       volScalarField;
    location    "0.00093";
    object      H;
}
// * * * * * * * * * * * * * * * * * * * * * * * * * * * * * * * * * * * * * //

dimensions      [0 0 0 0 0 0 0];

internalField   nonuniform List<scalar> 
124
(
0.000336135
0.000332896
0.000329712
0.000326581
0.000323502
0.000320474
0.000317495
0.000314564
0.000311681
0.000308844
0.000306051
0.000303303
0.000300597
0.000297933
0.000295311
0.000292728
0.000290185
0.00028768
0.000285212
0.000282782
0.000280387
0.000278027
0.000275702
0.00027341
0.000271151
0.000268925
0.00026673
0.000264567
0.000262433
0.00026033
0.000258255
0.00025621
0.000254192
0.000252202
0.000250238
0.000248302
0.000246391
0.000244506
0.000242645
0.000240809
0.000238998
0.00023721
0.000235445
0.000233703
0.000231983
0.000230286
0.00022861
0.000226955
0.000225322
0.000223708
0.000222115
0.000220542
0.000218988
0.000217454
0.000215938
0.000214441
0.000212962
0.000211501
0.000210058
0.000208632
0.000207223
0.000205831
0.000204455
0.000203096
0.000201753
0.000200425
0.000199113
0.000197816
0.000196535
0.000195268
0.000194015
0.000192777
0.000191554
0.000190344
0.000189148
0.000187965
0.000186796
0.00018564
0.000184497
0.000183367
0.000182249
0.000181144
0.000180051
0.00017897
0.000177902
0.000176845
0.000175799
0.000174766
0.000173743
0.000172732
0.000171732
0.000170744
0.000169766
0.000168798
0.000167842
0.000166896
0.000165961
0.000165035
0.000164121
0.000163216
0.000162322
0.000161437
0.000160563
0.000159699
0.000158844
0.000158
0.000157166
0.000156342
0.000155528
0.000154725
0.000153933
0.000153153
0.000152385
0.000151631
0.000150892
0.00015017
0.00014947
0.000148794
0.000148151
0.00014755
0.000147004
0.000146535
0.000146174
0.000145965
)
;

boundaryField
{
    boundary
    {
        type            empty;
    }
    inlet
    {
        type            fixedValue;
        value           nonuniform 0();
    }
    outlet
    {
        type            zeroGradient;
    }
    procBoundary0to1
    {
        type            processor;
        value           uniform 0.000339419;
    }
}


// ************************************************************************* //
