/*--------------------------------*- C++ -*----------------------------------*\
  =========                 |
  \\      /  F ield         | OpenFOAM: The Open Source CFD Toolbox
   \\    /   O peration     | Website:  https://openfoam.org
    \\  /    A nd           | Version:  7
     \\/     M anipulation  |
\*---------------------------------------------------------------------------*/
FoamFile
{
    version     2.0;
    format      ascii;
    class       surfaceScalarField;
    location    "0.00093";
    object      phi;
}
// * * * * * * * * * * * * * * * * * * * * * * * * * * * * * * * * * * * * * //

dimensions      [1 0 -1 0 0 0 0];

internalField   nonuniform List<scalar> 
123
(
7.22822e-06
7.22826e-06
7.2283e-06
7.22834e-06
7.22838e-06
7.22842e-06
7.22845e-06
7.22849e-06
7.22852e-06
7.22855e-06
7.22858e-06
7.22861e-06
7.22864e-06
7.22867e-06
7.2287e-06
7.22873e-06
7.22875e-06
7.22878e-06
7.2288e-06
7.22883e-06
7.22885e-06
7.22888e-06
7.2289e-06
7.22892e-06
7.22895e-06
7.22897e-06
7.229e-06
7.22902e-06
7.22905e-06
7.22907e-06
7.2291e-06
7.22912e-06
7.22915e-06
7.22918e-06
7.2292e-06
7.22923e-06
7.22926e-06
7.22929e-06
7.22932e-06
7.22935e-06
7.22938e-06
7.22941e-06
7.22944e-06
7.22947e-06
7.2295e-06
7.22954e-06
7.22957e-06
7.2296e-06
7.22963e-06
7.22966e-06
7.22969e-06
7.22972e-06
7.22975e-06
7.22978e-06
7.22981e-06
7.22984e-06
7.22986e-06
7.22989e-06
7.22992e-06
7.22994e-06
7.22997e-06
7.22999e-06
7.23001e-06
7.23003e-06
7.23006e-06
7.23008e-06
7.2301e-06
7.23011e-06
7.23013e-06
7.23015e-06
7.23016e-06
7.23018e-06
7.23019e-06
7.23021e-06
7.23022e-06
7.23023e-06
7.23024e-06
7.23025e-06
7.23026e-06
7.23027e-06
7.23028e-06
7.23028e-06
7.23029e-06
7.23029e-06
7.23029e-06
7.23029e-06
7.23029e-06
7.23029e-06
7.23029e-06
7.23028e-06
7.23028e-06
7.23027e-06
7.23026e-06
7.23025e-06
7.23024e-06
7.23023e-06
7.23021e-06
7.2302e-06
7.23018e-06
7.23016e-06
7.23013e-06
7.23011e-06
7.23008e-06
7.23005e-06
7.23002e-06
7.22999e-06
7.22995e-06
7.22992e-06
7.22988e-06
7.22983e-06
7.22979e-06
7.22974e-06
7.22969e-06
7.22964e-06
7.22959e-06
7.22953e-06
7.22947e-06
7.22941e-06
7.22935e-06
7.22928e-06
7.22922e-06
7.22915e-06
7.22908e-06
)
;

boundaryField
{
    boundary
    {
        type            empty;
        value           nonuniform 0();
    }
    inlet
    {
        type            calculated;
        value           nonuniform 0();
    }
    outlet
    {
        type            calculated;
        value           uniform 7.22901e-06;
    }
    procBoundary0to1
    {
        type            processor;
        value           uniform -7.22818e-06;
    }
}


// ************************************************************************* //
