/*--------------------------------*- C++ -*----------------------------------*\
  =========                 |
  \\      /  F ield         | OpenFOAM: The Open Source CFD Toolbox
   \\    /   O peration     | Website:  https://openfoam.org
    \\  /    A nd           | Version:  7
     \\/     M anipulation  |
\*---------------------------------------------------------------------------*/
FoamFile
{
    version     2.0;
    format      ascii;
    class       volScalarField;
    location    "0.00093";
    object      Qdot;
}
// * * * * * * * * * * * * * * * * * * * * * * * * * * * * * * * * * * * * * //

dimensions      [1 -1 -3 0 0 0 0];

internalField   nonuniform List<scalar> 
124
(
1.58342e+08
1.55644e+08
1.53006e+08
1.50431e+08
1.47918e+08
1.45463e+08
1.43065e+08
1.40722e+08
1.38433e+08
1.36195e+08
1.34007e+08
1.31868e+08
1.29776e+08
1.2773e+08
1.25728e+08
1.23769e+08
1.21852e+08
1.19975e+08
1.18138e+08
1.16339e+08
1.14577e+08
1.12851e+08
1.1116e+08
1.09503e+08
1.0788e+08
1.06288e+08
1.04728e+08
1.03198e+08
1.01698e+08
1.00227e+08
9.8784e+07
9.73683e+07
9.59792e+07
9.46161e+07
9.32784e+07
9.19653e+07
9.0676e+07
8.94104e+07
8.81677e+07
8.69472e+07
8.57486e+07
8.45711e+07
8.34144e+07
8.2278e+07
8.11613e+07
8.00639e+07
7.89854e+07
7.79254e+07
7.68833e+07
7.58589e+07
7.48517e+07
7.38613e+07
7.28874e+07
7.19299e+07
7.09878e+07
7.00611e+07
6.91496e+07
6.82528e+07
6.73705e+07
6.65023e+07
6.56479e+07
6.48071e+07
6.39795e+07
6.31649e+07
6.23631e+07
6.15737e+07
6.07965e+07
6.00312e+07
5.92777e+07
5.85357e+07
5.7805e+07
5.70844e+07
5.63757e+07
5.56774e+07
5.49894e+07
5.43116e+07
5.36437e+07
5.29856e+07
5.23371e+07
5.16981e+07
5.10683e+07
5.04471e+07
4.98354e+07
4.92323e+07
4.86378e+07
4.80517e+07
4.74739e+07
4.69042e+07
4.63425e+07
4.57886e+07
4.52425e+07
4.47039e+07
4.41728e+07
4.3649e+07
4.31323e+07
4.26228e+07
4.21202e+07
4.16244e+07
4.11354e+07
4.0653e+07
4.01771e+07
3.97076e+07
3.92444e+07
3.87874e+07
3.83365e+07
3.78916e+07
3.74527e+07
3.70196e+07
3.65922e+07
3.61704e+07
3.57542e+07
3.53435e+07
3.49383e+07
3.45383e+07
3.41433e+07
3.37535e+07
3.33685e+07
3.2988e+07
3.26113e+07
3.22379e+07
3.18678e+07
3.15021e+07
3.11524e+07
3.08838e+07
)
;

boundaryField
{
    boundary
    {
        type            empty;
    }
    inlet
    {
        type            calculated;
        value           nonuniform 0();
    }
    outlet
    {
        type            calculated;
        value           uniform 0;
    }
    procBoundary0to1
    {
        type            processor;
        value           uniform 0;
    }
}


// ************************************************************************* //
