/*--------------------------------*- C++ -*----------------------------------*\
  =========                 |
  \\      /  F ield         | OpenFOAM: The Open Source CFD Toolbox
   \\    /   O peration     | Website:  https://openfoam.org
    \\  /    A nd           | Version:  7
     \\/     M anipulation  |
\*---------------------------------------------------------------------------*/
FoamFile
{
    version     2.0;
    format      ascii;
    class       volScalarField;
    location    "0.00093";
    object      T;
}
// * * * * * * * * * * * * * * * * * * * * * * * * * * * * * * * * * * * * * //

dimensions      [0 0 0 1 0 0 0];

internalField   nonuniform List<scalar> 
124
(
2214.68
2216.37
2218.03
2219.67
2221.29
2222.89
2224.47
2226.03
2227.57
2229.1
2230.6
2232.08
2233.55
2235
2236.44
2237.85
2239.25
2240.64
2242.01
2243.36
2244.69
2246.02
2247.32
2248.61
2249.89
2251.16
2252.4
2253.64
2254.86
2256.07
2257.26
2258.45
2259.62
2260.77
2261.92
2263.05
2264.17
2265.28
2266.37
2267.46
2268.53
2269.59
2270.65
2271.69
2272.72
2273.74
2274.75
2275.75
2276.74
2277.72
2278.69
2279.65
2280.6
2281.54
2282.48
2283.41
2284.32
2285.23
2286.13
2287.02
2287.91
2288.78
2289.65
2290.51
2291.37
2292.21
2293.05
2293.88
2294.7
2295.52
2296.33
2297.13
2297.93
2298.72
2299.5
2300.27
2301.04
2301.81
2302.56
2303.31
2304.06
2304.8
2305.53
2306.26
2306.98
2307.69
2308.4
2309.11
2309.8
2310.5
2311.19
2311.87
2312.55
2313.22
2313.88
2314.55
2315.2
2315.86
2316.5
2317.15
2317.79
2318.42
2319.05
2319.67
2320.29
2320.91
2321.52
2322.13
2322.73
2323.33
2323.92
2324.51
2325.09
2325.67
2326.25
2326.82
2327.39
2327.95
2328.51
2329.05
2329.58
2330.08
2330.51
2330.79
)
;

boundaryField
{
    boundary
    {
        type            empty;
    }
    inlet
    {
        type            fixedValue;
        value           nonuniform 0();
    }
    outlet
    {
        type            zeroGradient;
    }
    procBoundary0to1
    {
        type            processor;
        value           uniform 2212.98;
    }
}


// ************************************************************************* //
