/*--------------------------------*- C++ -*----------------------------------*\
  =========                 |
  \\      /  F ield         | OpenFOAM: The Open Source CFD Toolbox
   \\    /   O peration     | Website:  https://openfoam.org
    \\  /    A nd           | Version:  7
     \\/     M anipulation  |
\*---------------------------------------------------------------------------*/
FoamFile
{
    version     2.0;
    format      ascii;
    class       volScalarField;
    location    "0";
    object      T;
}
// * * * * * * * * * * * * * * * * * * * * * * * * * * * * * * * * * * * * * //

dimensions      [0 0 0 1 0 0 0];

internalField   nonuniform List<scalar> 
125
(
300
300
300
300
300
300
300
300
300
300
300
300
300
300
300
300
300
300
300
300
300
300
300
300
300
300
300
300
300
300
300
300
300
2387.74
2387.74
2387.74
2387.74
2387.74
2387.74
2387.74
2387.74
2387.74
2387.74
2387.74
2387.74
2387.74
2387.74
2387.74
2387.74
2387.74
2387.74
2387.74
2387.74
2387.74
2387.74
2387.74
2387.74
2387.74
2387.74
2387.74
2387.74
2387.74
2387.74
2387.74
2387.74
2387.74
2387.74
2387.74
2387.74
2387.74
2387.74
2387.74
2387.74
2387.74
2387.74
2387.74
2387.74
2387.74
2387.74
2387.74
2387.74
2387.74
2387.74
2387.74
2387.74
2387.74
2387.74
2387.74
2387.74
2387.74
2387.74
2387.74
2387.74
2387.74
2387.74
2387.74
2387.74
2387.74
2387.74
2387.74
2387.74
2387.74
2387.74
2387.74
2387.74
2387.74
2387.74
2387.74
2387.74
2387.74
2387.74
2387.74
2387.74
2387.74
2387.74
2387.74
2387.74
2387.74
2387.74
2387.74
2387.74
2387.74
2387.74
2387.74
2387.74
)
;

boundaryField
{
    boundary
    {
        type            empty;
    }
    inlet
    {
        type            fixedValue;
        value           nonuniform 0();
    }
    outlet
    {
        type            zeroGradient;
    }
    procBoundary1to0
    {
        type            processor;
        value           uniform 2387.74;
    }
    procBoundary1to3
    {
        type            processor;
        value           uniform 300;
    }
}


// ************************************************************************* //
