/*--------------------------------*- C++ -*----------------------------------*\
  =========                 |
  \\      /  F ield         | OpenFOAM: The Open Source CFD Toolbox
   \\    /   O peration     | Website:  https://openfoam.org
    \\  /    A nd           | Version:  7
     \\/     M anipulation  |
\*---------------------------------------------------------------------------*/
FoamFile
{
    version     2.0;
    format      ascii;
    class       volScalarField;
    location    "0.00064";
    object      Qdot;
}
// * * * * * * * * * * * * * * * * * * * * * * * * * * * * * * * * * * * * * //

dimensions      [1 -1 -3 0 0 0 0];

internalField   nonuniform List<scalar> 
126
(
-2.67931e-27
-2.6794e-27
-2.67945e-27
-2.67947e-27
-2.67947e-27
-2.67946e-27
-2.67946e-27
-2.67946e-27
-2.67947e-27
-2.6795e-27
-2.67955e-27
-2.67963e-27
-2.67972e-27
-2.67984e-27
-2.67997e-27
-2.68012e-27
-2.68028e-27
-2.68044e-27
-2.6806e-27
-2.68077e-27
-2.68094e-27
-2.68111e-27
-2.68127e-27
-2.68144e-27
-2.6816e-27
-2.68177e-27
-2.68194e-27
-2.6821e-27
-2.68227e-27
-2.68244e-27
-2.68261e-27
-2.68278e-27
-2.68296e-27
-2.68313e-27
-2.68331e-27
-2.68349e-27
-2.68367e-27
-2.68386e-27
-2.68404e-27
-2.68423e-27
-2.68442e-27
-2.68462e-27
-2.68481e-27
-2.68501e-27
-2.68521e-27
-2.6854e-27
-2.6856e-27
-2.6858e-27
-2.686e-27
-2.68619e-27
-2.68639e-27
-2.68658e-27
-2.68676e-27
-2.68695e-27
-2.68713e-27
-2.6873e-27
-2.68747e-27
-2.68763e-27
-2.68778e-27
-2.68793e-27
-2.68807e-27
-2.6882e-27
-2.68832e-27
-2.68843e-27
-2.68853e-27
-2.68862e-27
-2.6887e-27
-2.68877e-27
-2.68882e-27
-2.68886e-27
-2.68889e-27
-2.68891e-27
-2.6889e-27
-2.68889e-27
-2.68885e-27
-2.6888e-27
-2.68873e-27
-2.68864e-27
-2.68854e-27
-2.68841e-27
-2.68826e-27
-2.68809e-27
-2.68789e-27
-2.68765e-27
-2.68732e-27
-2.68676e-27
-2.68538e-27
-2.68109e-27
-2.66635e-27
-2.61423e-27
-2.42891e-27
-1.77241e-27
5.3972e-28
8.62929e-27
3.67425e-26
1.33787e-25
4.66546e-25
1.60008e-24
5.43649e-24
1.83386e-23
6.1461e-23
2.04718e-22
6.77848e-22
2.23158e-21
7.30609e-21
2.37928e-20
7.70899e-20
2.48569e-19
7.97826e-19
2.54978e-18
8.1163e-18
2.57399e-17
8.13566e-17
2.5637e-16
8.0575e-16
2.52689e-15
7.91137e-15
2.47445e-14
7.73797e-14
2.42197e-13
7.59871e-13
2.39442e-12
7.59815e-12
2.43668e-11
7.93279e-11
2.63598e-10
)
;

boundaryField
{
    boundary
    {
        type            empty;
    }
    inlet
    {
        type            calculated;
        value           nonuniform 0();
    }
    outlet
    {
        type            calculated;
        value           nonuniform 0();
    }
    procBoundary3to1
    {
        type            processor;
        value           uniform 0;
    }
    procBoundary3to2
    {
        type            processor;
        value           uniform 0;
    }
}


// ************************************************************************* //
