/*--------------------------------*- C++ -*----------------------------------*\
  =========                 |
  \\      /  F ield         | OpenFOAM: The Open Source CFD Toolbox
   \\    /   O peration     | Website:  https://openfoam.org
    \\  /    A nd           | Version:  7
     \\/     M anipulation  |
\*---------------------------------------------------------------------------*/
FoamFile
{
    version     2.0;
    format      ascii;
    class       surfaceScalarField;
    location    "0.00036";
    object      phi;
}
// * * * * * * * * * * * * * * * * * * * * * * * * * * * * * * * * * * * * * //

dimensions      [1 0 -1 0 0 0 0];

internalField   nonuniform List<scalar> 
125
(
6.87078e-06
6.87056e-06
6.87034e-06
6.87012e-06
6.8699e-06
6.86968e-06
6.86946e-06
6.86924e-06
6.86902e-06
6.8688e-06
6.86858e-06
6.86836e-06
6.86814e-06
6.86792e-06
6.8677e-06
6.86748e-06
6.86726e-06
6.86703e-06
6.86681e-06
6.86659e-06
6.86637e-06
6.86615e-06
6.86592e-06
6.8657e-06
6.86548e-06
6.86526e-06
6.86503e-06
6.86481e-06
6.86459e-06
6.86436e-06
6.86414e-06
6.86392e-06
6.86369e-06
6.86347e-06
6.86325e-06
6.86302e-06
6.8628e-06
6.86258e-06
6.86236e-06
6.86213e-06
6.86191e-06
6.86169e-06
6.86147e-06
6.86125e-06
6.86103e-06
6.86081e-06
6.86059e-06
6.86037e-06
6.86015e-06
6.85993e-06
6.85971e-06
6.85949e-06
6.85927e-06
6.85906e-06
6.85884e-06
6.85862e-06
6.85841e-06
6.85819e-06
6.85798e-06
6.85776e-06
6.85755e-06
6.85733e-06
6.85712e-06
6.85691e-06
6.8567e-06
6.85649e-06
6.85628e-06
6.85607e-06
6.85586e-06
6.85566e-06
6.85545e-06
6.85524e-06
6.85504e-06
6.85484e-06
6.85463e-06
6.85443e-06
6.85423e-06
6.85403e-06
6.85383e-06
6.85364e-06
6.85344e-06
6.85324e-06
6.85305e-06
6.85286e-06
6.85266e-06
6.85247e-06
6.85228e-06
6.85209e-06
6.85191e-06
6.85172e-06
6.85154e-06
6.85135e-06
6.85117e-06
6.85099e-06
6.85081e-06
6.85063e-06
6.85045e-06
6.85027e-06
6.8501e-06
6.84992e-06
6.84975e-06
6.84958e-06
6.84941e-06
6.84924e-06
6.84907e-06
6.8489e-06
6.84874e-06
6.84857e-06
6.84841e-06
6.84824e-06
6.84808e-06
6.84792e-06
6.84776e-06
6.8476e-06
6.84745e-06
6.84729e-06
6.84714e-06
6.84698e-06
6.84683e-06
6.84668e-06
6.84652e-06
6.84637e-06
6.84622e-06
6.84608e-06
6.84593e-06
)
;

boundaryField
{
    boundary
    {
        type            empty;
        value           nonuniform 0();
    }
    inlet
    {
        type            calculated;
        value           nonuniform 0();
    }
    outlet
    {
        type            calculated;
        value           nonuniform 0();
    }
    procBoundary3to1
    {
        type            processor;
        value           uniform 6.84578e-06;
    }
    procBoundary3to2
    {
        type            processor;
        value           uniform -6.871e-06;
    }
}


// ************************************************************************* //
