/*--------------------------------*- C++ -*----------------------------------*\
  =========                 |
  \\      /  F ield         | OpenFOAM: The Open Source CFD Toolbox
   \\    /   O peration     | Website:  https://openfoam.org
    \\  /    A nd           | Version:  7
     \\/     M anipulation  |
\*---------------------------------------------------------------------------*/
FoamFile
{
    version     2.0;
    format      ascii;
    class       volScalarField;
    location    "0.00072";
    object      OH;
}
// * * * * * * * * * * * * * * * * * * * * * * * * * * * * * * * * * * * * * //

dimensions      [0 0 0 0 0 0 0];

internalField   nonuniform List<scalar> 
126
(
6.78907e-47
6.78954e-47
6.79003e-47
6.79053e-47
6.79101e-47
6.79145e-47
6.79183e-47
6.79214e-47
6.79239e-47
6.79259e-47
6.79275e-47
6.79289e-47
6.79303e-47
6.79317e-47
6.79334e-47
6.79355e-47
6.79379e-47
6.79409e-47
6.79443e-47
6.79481e-47
6.79524e-47
6.7957e-47
6.79619e-47
6.7967e-47
6.79723e-47
6.79776e-47
6.7983e-47
6.79884e-47
6.79938e-47
6.79991e-47
6.80045e-47
6.80098e-47
6.80151e-47
6.80203e-47
6.80256e-47
6.80309e-47
6.80361e-47
6.80415e-47
6.80468e-47
6.80522e-47
6.80577e-47
6.80632e-47
6.80688e-47
6.80744e-47
6.80802e-47
6.80859e-47
6.80918e-47
6.80977e-47
6.81037e-47
6.81097e-47
6.81157e-47
6.81218e-47
6.81279e-47
6.81339e-47
6.81399e-47
6.81459e-47
6.81518e-47
6.81576e-47
6.81633e-47
6.81689e-47
6.81743e-47
6.81795e-47
6.81846e-47
6.81894e-47
6.8194e-47
6.81984e-47
6.82025e-47
6.82064e-47
6.82102e-47
6.82145e-47
6.82214e-47
6.82393e-47
6.82998e-47
6.85218e-47
6.93488e-47
7.24256e-47
8.381e-47
1.25673e-46
2.78631e-46
8.33927e-46
2.83699e-45
1.00164e-44
3.55864e-44
1.26081e-43
4.44348e-43
1.55672e-42
5.42061e-42
1.87602e-41
6.45352e-41
2.20678e-40
7.50164e-40
2.53531e-39
8.51974e-39
2.84703e-38
9.46195e-38
3.1279e-37
1.02866e-36
3.36593e-36
1.09605e-35
3.55242e-35
1.14623e-34
3.68262e-34
1.17835e-33
3.75593e-33
1.19284e-32
3.77545e-32
1.19119e-31
3.7473e-31
1.17568e-30
3.67967e-30
1.14918e-29
3.58223e-29
1.11492e-28
3.46589e-28
1.07661e-27
3.3436e-27
1.03894e-26
3.23291e-26
1.00875e-25
3.16171e-25
9.97785e-25
3.18055e-24
1.02821e-23
3.38782e-23
1.14401e-22
3.98123e-22
)
;

boundaryField
{
    boundary
    {
        type            empty;
    }
    inlet
    {
        type            fixedValue;
        value           nonuniform 0();
    }
    outlet
    {
        type            zeroGradient;
    }
    procBoundary3to1
    {
        type            processor;
        value           uniform 1.44169e-21;
    }
    procBoundary3to2
    {
        type            processor;
        value           uniform 6.78884e-47;
    }
}


// ************************************************************************* //
