/*--------------------------------*- C++ -*----------------------------------*\
  =========                 |
  \\      /  F ield         | OpenFOAM: The Open Source CFD Toolbox
   \\    /   O peration     | Website:  https://openfoam.org
    \\  /    A nd           | Version:  7
     \\/     M anipulation  |
\*---------------------------------------------------------------------------*/
FoamFile
{
    version     2.0;
    format      ascii;
    class       volScalarField;
    location    "0.00072";
    object      Qdot;
}
// * * * * * * * * * * * * * * * * * * * * * * * * * * * * * * * * * * * * * //

dimensions      [1 -1 -3 0 0 0 0];

internalField   nonuniform List<scalar> 
126
(
-2.66641e-27
-2.66658e-27
-2.66676e-27
-2.66693e-27
-2.66709e-27
-2.66723e-27
-2.66736e-27
-2.66746e-27
-2.66753e-27
-2.66759e-27
-2.66764e-27
-2.66767e-27
-2.66771e-27
-2.66774e-27
-2.66778e-27
-2.66783e-27
-2.66789e-27
-2.66797e-27
-2.66806e-27
-2.66817e-27
-2.66828e-27
-2.66841e-27
-2.66855e-27
-2.66869e-27
-2.66884e-27
-2.669e-27
-2.66916e-27
-2.66931e-27
-2.66948e-27
-2.66964e-27
-2.6698e-27
-2.66996e-27
-2.67013e-27
-2.67029e-27
-2.67046e-27
-2.67062e-27
-2.67079e-27
-2.67096e-27
-2.67113e-27
-2.6713e-27
-2.67148e-27
-2.67165e-27
-2.67183e-27
-2.67201e-27
-2.67219e-27
-2.67238e-27
-2.67256e-27
-2.67275e-27
-2.67294e-27
-2.67313e-27
-2.67332e-27
-2.67351e-27
-2.6737e-27
-2.67389e-27
-2.67407e-27
-2.67426e-27
-2.67444e-27
-2.67463e-27
-2.6748e-27
-2.67498e-27
-2.67514e-27
-2.67531e-27
-2.67546e-27
-2.67562e-27
-2.67576e-27
-2.6759e-27
-2.67602e-27
-2.67614e-27
-2.67625e-27
-2.67635e-27
-2.67644e-27
-2.67652e-27
-2.67659e-27
-2.67665e-27
-2.67669e-27
-2.67672e-27
-2.67674e-27
-2.67674e-27
-2.67672e-27
-2.67669e-27
-2.67664e-27
-2.67657e-27
-2.67646e-27
-2.67625e-27
-2.67575e-27
-2.6743e-27
-2.66958e-27
-2.65368e-27
-2.59956e-27
-2.41549e-27
-1.79204e-27
3.08731e-28
7.34864e-27
3.08109e-26
1.08583e-25
3.65023e-25
1.20627e-24
3.95227e-24
1.2873e-23
4.17201e-23
1.34594e-22
4.32348e-22
1.38316e-21
4.40796e-21
1.39967e-20
4.42931e-20
1.39723e-19
4.39459e-19
1.37846e-18
4.31316e-18
1.34657e-17
4.19571e-17
1.30508e-16
4.05367e-16
1.25771e-15
3.89945e-15
1.20869e-14
3.7478e-14
1.16341e-13
3.61951e-13
1.13022e-12
3.54929e-12
1.12397e-11
3.60199e-11
1.17338e-10
3.90595e-10
)
;

boundaryField
{
    boundary
    {
        type            empty;
    }
    inlet
    {
        type            calculated;
        value           nonuniform 0();
    }
    outlet
    {
        type            calculated;
        value           nonuniform 0();
    }
    procBoundary3to1
    {
        type            processor;
        value           uniform 0;
    }
    procBoundary3to2
    {
        type            processor;
        value           uniform 0;
    }
}


// ************************************************************************* //
