/*--------------------------------*- C++ -*----------------------------------*\
  =========                 |
  \\      /  F ield         | OpenFOAM: The Open Source CFD Toolbox
   \\    /   O peration     | Website:  https://openfoam.org
    \\  /    A nd           | Version:  7
     \\/     M anipulation  |
\*---------------------------------------------------------------------------*/
FoamFile
{
    version     2.0;
    format      ascii;
    class       volScalarField;
    location    "0.00043";
    object      H;
}
// * * * * * * * * * * * * * * * * * * * * * * * * * * * * * * * * * * * * * //

dimensions      [0 0 0 0 0 0 0];

internalField   nonuniform List<scalar> 
500
(
1.48713e-41
2.0166e-41
2.13321e-41
2.16084e-41
2.16932e-41
2.1738e-41
2.17762e-41
2.18164e-41
2.18615e-41
2.19138e-41
2.19752e-41
2.20482e-41
2.21356e-41
2.22403e-41
2.23658e-41
2.25156e-41
2.26935e-41
2.29031e-41
2.3148e-41
2.34313e-41
2.37555e-41
2.41224e-41
2.45327e-41
2.49859e-41
2.54802e-41
2.60124e-41
2.65779e-41
2.71706e-41
2.77832e-41
2.84075e-41
2.90345e-41
2.96551e-41
3.02602e-41
3.08414e-41
3.13912e-41
3.19035e-41
3.23737e-41
3.27986e-41
3.3177e-41
3.3509e-41
3.37959e-41
3.40404e-41
3.42458e-41
3.4416e-41
3.4555e-41
3.46671e-41
3.47563e-41
3.48264e-41
3.48808e-41
3.49224e-41
3.4954e-41
3.49776e-41
3.4995e-41
3.50078e-41
3.5017e-41
3.50237e-41
3.50284e-41
3.50317e-41
3.5034e-41
3.50356e-41
3.50368e-41
3.50376e-41
3.50382e-41
3.50386e-41
3.5039e-41
3.50393e-41
3.50395e-41
3.50398e-41
3.504e-41
3.50402e-41
3.50405e-41
3.50407e-41
3.5041e-41
3.50412e-41
3.50415e-41
3.50418e-41
3.50421e-41
3.50424e-41
3.50428e-41
3.50431e-41
3.50435e-41
3.50439e-41
3.50443e-41
3.50448e-41
3.50452e-41
3.50457e-41
3.50462e-41
3.50468e-41
3.50473e-41
3.50479e-41
3.50485e-41
3.50491e-41
3.50498e-41
3.50505e-41
3.50512e-41
3.50519e-41
3.50527e-41
3.50535e-41
3.50544e-41
3.50552e-41
3.50561e-41
3.50571e-41
3.50581e-41
3.50591e-41
3.50601e-41
3.50612e-41
3.50623e-41
3.50634e-41
3.50646e-41
3.50659e-41
3.50671e-41
3.50684e-41
3.50698e-41
3.50712e-41
3.50726e-41
3.50741e-41
3.50756e-41
3.50771e-41
3.50787e-41
3.50803e-41
3.5082e-41
3.50837e-41
3.50855e-41
3.50875e-41
3.50898e-41
3.50924e-41
3.5094e-41
3.50956e-41
3.50973e-41
3.50991e-41
3.5101e-41
3.51029e-41
3.51049e-41
3.5107e-41
3.51091e-41
3.51113e-41
3.51134e-41
3.51156e-41
3.51178e-41
3.512e-41
3.51222e-41
3.51244e-41
3.51266e-41
3.51288e-41
3.5131e-41
3.51333e-41
3.51356e-41
3.5138e-41
3.51404e-41
3.51428e-41
3.51453e-41
3.51479e-41
3.51505e-41
3.51531e-41
3.51558e-41
3.51585e-41
3.51612e-41
3.51639e-41
3.51667e-41
3.51694e-41
3.5172e-41
3.51747e-41
3.51772e-41
3.51797e-41
3.51821e-41
3.51845e-41
3.51867e-41
3.51889e-41
3.51909e-41
3.51929e-41
3.51947e-41
3.51964e-41
3.5198e-41
3.51995e-41
3.52008e-41
3.5202e-41
3.5203e-41
3.52039e-41
3.52046e-41
3.52051e-41
3.52055e-41
3.52056e-41
3.52056e-41
3.52053e-41
3.52049e-41
3.52042e-41
3.52032e-41
3.5202e-41
3.52005e-41
3.51987e-41
3.51967e-41
3.51943e-41
3.51917e-41
3.51887e-41
3.51854e-41
3.51817e-41
3.51776e-41
3.51732e-41
3.51684e-41
3.51632e-41
3.51576e-41
3.51515e-41
3.51451e-41
3.51381e-41
3.51307e-41
3.51229e-41
3.51145e-41
3.51057e-41
3.50963e-41
3.50864e-41
3.5076e-41
3.50651e-41
3.50536e-41
3.50416e-41
3.50292e-41
3.50168e-41
3.50065e-41
3.50071e-41
3.50566e-41
3.53163e-41
3.64634e-41
4.13157e-41
6.14777e-41
1.44266e-40
4.80667e-40
1.83379e-39
7.22178e-39
2.84603e-38
1.11335e-37
4.3146e-37
1.65554e-36
6.28906e-36
2.36524e-35
8.80701e-35
3.24699e-34
1.18544e-33
4.28635e-33
1.53529e-32
5.44877e-32
1.91666e-31
6.685e-31
2.31303e-30
7.94416e-30
2.71043e-29
9.19585e-29
3.10669e-28
1.0471e-27
3.53056e-27
1.19544e-26
4.08585e-26
1.41877e-25
5.02493e-25
1.82368e-24
6.80543e-24
2.62138e-23
1.04294e-22
4.27776e-22
1.8023e-21
7.76536e-21
3.40667e-20
1.51615e-19
6.82752e-19
3.10656e-18
1.42811e-17
6.64224e-17
3.13516e-16
1.50909e-15
7.45725e-15
3.81343e-14
2.03421e-13
1.18394e-12
8.23302e-12
7.21857e-11
6.92169e-10
6.46935e-09
6.0371e-08
5.41608e-07
4.33455e-06
2.72172e-05
0.000113594
0.000297941
0.000571623
0.000912287
0.00127378
0.00158542
0.00179611
0.00190415
0.00192583
0.00189568
0.00183708
0.00176533
0.00168952
0.00161467
0.00154329
0.00147648
0.00141454
0.00135736
0.00130465
0.00125603
0.00121111
0.00116953
0.00113094
0.00109503
0.00106154
0.00103022
0.00100087
0.00097329
0.000947332
0.000922849
0.000899714
0.000877818
0.000857059
0.000837928
0.000820125
0.000803058
0.000786681
0.000770952
0.000755832
0.000741285
0.000727279
0.000713781
0.000700765
0.000688203
0.000676072
0.000664348
0.000653012
0.000642043
0.000631424
0.000621136
0.000611166
0.000601496
0.000592115
0.000583009
0.000574164
0.000565572
0.000557219
0.000549096
0.000541194
0.000533504
0.000526016
0.000518724
0.000511619
0.000504694
0.000497943
0.000491358
0.000484934
0.000478666
0.000472546
0.000466572
0.000460736
0.000455035
0.000449464
0.000444019
0.000438695
0.00043349
0.000428399
0.000423418
0.000418546
0.000413777
0.00040911
0.000404541
0.000400069
0.000395689
0.000391401
0.000387202
0.000383089
0.000379061
0.000375117
0.000371253
0.000367469
0.000363763
0.000360134
0.000356581
0.0003531
0.00034969
0.000346348
0.000343049
0.000339807
0.000336622
0.000333495
0.000330425
0.000327411
0.000324453
0.000321549
0.000318699
0.000315901
0.000313154
0.000310457
0.00030781
0.00030521
0.000302657
0.00030015
0.000297688
0.00029527
0.000292894
0.000290559
0.000288265
0.00028601
0.000283794
0.000281614
0.000279471
0.000277362
0.000275287
0.000273244
0.000271232
0.000269249
0.000267295
0.000265369
0.000263468
0.000261591
0.000259736
0.000257904
0.00025609
0.000254296
0.000252517
0.000250754
0.000249005
0.000247267
0.000245539
0.00024382
0.000242107
0.0002404
0.000238697
0.000236995
0.000235294
0.000233592
0.000231887
0.000230177
0.000228462
0.00022674
0.000225009
0.000223268
0.000221517
0.000219754
0.000217977
0.000216187
0.000214382
0.000212561
0.000210725
0.000208871
0.000207001
0.000205113
0.000203207
0.000201284
0.000199343
0.000197384
0.000195408
0.000193414
0.000191404
0.000189377
0.000187334
0.000185275
0.000183202
0.000181114
0.000179013
0.0001769
0.000174775
0.000172639
0.000170494
0.00016834
0.000166179
0.000164012
0.00016184
0.000159664
0.000157486
0.000155307
0.000153129
0.000150953
0.000148781
0.000146615
0.000144456
0.000142307
0.000140169
0.000138043
0.000135933
0.00013384
0.000131766
0.000129714
0.000127684
0.00012568
0.000123704
0.000121757
0.000119842
0.000117961
0.000116116
0.00011431
0.000112546
0.000110825
0.000109151
0.000107528
0.00010596
0.000104453
0.000103014
0.000101653
0.000100382
9.92212e-05
9.81942e-05
9.73359e-05
9.66938e-05
9.63321e-05
)
;

boundaryField
{
    boundary
    {
        type            empty;
    }
    inlet
    {
        type            fixedValue;
        value           uniform 0;
    }
    outlet
    {
        type            zeroGradient;
    }
}


// ************************************************************************* //
