/*--------------------------------*- C++ -*----------------------------------*\
  =========                 |
  \\      /  F ield         | OpenFOAM: The Open Source CFD Toolbox
   \\    /   O peration     | Website:  https://openfoam.org
    \\  /    A nd           | Version:  7
     \\/     M anipulation  |
\*---------------------------------------------------------------------------*/
FoamFile
{
    version     2.0;
    format      ascii;
    class       volScalarField;
    location    "0.00043";
    object      H2O;
}
// * * * * * * * * * * * * * * * * * * * * * * * * * * * * * * * * * * * * * //

dimensions      [0 0 0 0 0 0 0];

internalField   nonuniform List<scalar> 
500
(
7.90519e-48
2.28601e-47
4.116e-47
6.17412e-47
8.38918e-47
1.07142e-46
1.31188e-46
1.55843e-46
1.81001e-46
2.06617e-46
2.32692e-46
2.59268e-46
2.86415e-46
3.14232e-46
3.42838e-46
3.72369e-46
4.02967e-46
4.34773e-46
4.67913e-46
5.02491e-46
5.38569e-46
5.76157e-46
6.15202e-46
6.55579e-46
6.97086e-46
7.39444e-46
7.82303e-46
8.25255e-46
8.67847e-46
9.09605e-46
9.50056e-46
9.88749e-46
1.02528e-45
1.05931e-45
1.09057e-45
1.1189e-45
1.14421e-45
1.16651e-45
1.18587e-45
1.20244e-45
1.21643e-45
1.22808e-45
1.23764e-45
1.24537e-45
1.25155e-45
1.25642e-45
1.2602e-45
1.2631e-45
1.26529e-45
1.26693e-45
1.26814e-45
1.26903e-45
1.26966e-45
1.27011e-45
1.27043e-45
1.27065e-45
1.27081e-45
1.27091e-45
1.27098e-45
1.27103e-45
1.27106e-45
1.27108e-45
1.2711e-45
1.27111e-45
1.27112e-45
1.27112e-45
1.27113e-45
1.27114e-45
1.27114e-45
1.27115e-45
1.27115e-45
1.27116e-45
1.27117e-45
1.27118e-45
1.27118e-45
1.27119e-45
1.2712e-45
1.27121e-45
1.27122e-45
1.27123e-45
1.27125e-45
1.27126e-45
1.27127e-45
1.27129e-45
1.27131e-45
1.27132e-45
1.27134e-45
1.27136e-45
1.27138e-45
1.2714e-45
1.27142e-45
1.27145e-45
1.27147e-45
1.2715e-45
1.27152e-45
1.27155e-45
1.27158e-45
1.27161e-45
1.27165e-45
1.27168e-45
1.27172e-45
1.27175e-45
1.27179e-45
1.27183e-45
1.27187e-45
1.27192e-45
1.27196e-45
1.27201e-45
1.27205e-45
1.2721e-45
1.27215e-45
1.27221e-45
1.27226e-45
1.27232e-45
1.27238e-45
1.27244e-45
1.2725e-45
1.27256e-45
1.27263e-45
1.27269e-45
1.27276e-45
1.2728e-45
1.27277e-45
1.27242e-45
1.2708e-45
1.26777e-45
1.2683e-45
1.26899e-45
1.26982e-45
1.27073e-45
1.27165e-45
1.27249e-45
1.2732e-45
1.27375e-45
1.27414e-45
1.27439e-45
1.27453e-45
1.27458e-45
1.27456e-45
1.27449e-45
1.27439e-45
1.27426e-45
1.27411e-45
1.27396e-45
1.27381e-45
1.27367e-45
1.27356e-45
1.27348e-45
1.27343e-45
1.27343e-45
1.27348e-45
1.27357e-45
1.27371e-45
1.27389e-45
1.2741e-45
1.27434e-45
1.2746e-45
1.27487e-45
1.27515e-45
1.27542e-45
1.27569e-45
1.27594e-45
1.27618e-45
1.27639e-45
1.27659e-45
1.27677e-45
1.27694e-45
1.27708e-45
1.27721e-45
1.27733e-45
1.27743e-45
1.27752e-45
1.2776e-45
1.27767e-45
1.27773e-45
1.27778e-45
1.27783e-45
1.27786e-45
1.27789e-45
1.27791e-45
1.27792e-45
1.27792e-45
1.27791e-45
1.27789e-45
1.27786e-45
1.27783e-45
1.27778e-45
1.27771e-45
1.27764e-45
1.27756e-45
1.27746e-45
1.27734e-45
1.27722e-45
1.27708e-45
1.27692e-45
1.27675e-45
1.27656e-45
1.27635e-45
1.27613e-45
1.27588e-45
1.27562e-45
1.27534e-45
1.27505e-45
1.27473e-45
1.2744e-45
1.27412e-45
1.27412e-45
1.27563e-45
1.28454e-45
1.32918e-45
1.54476e-45
2.57144e-45
7.41772e-45
3.01259e-44
1.35836e-43
6.25152e-43
2.87972e-42
1.32342e-41
6.07144e-41
2.78526e-40
1.28042e-39
5.91263e-39
2.74915e-38
1.28988e-37
6.11728e-37
2.93504e-36
1.42461e-35
6.98834e-35
3.45834e-34
1.7225e-33
8.61217e-33
4.31118e-32
2.15551e-31
1.07408e-30
5.32438e-30
2.62171e-29
1.28072e-28
6.20102e-28
2.97361e-27
1.41148e-26
6.6294e-26
3.08027e-25
1.41579e-24
6.43798e-24
2.89704e-23
1.29052e-22
5.69317e-22
2.48828e-21
1.07784e-20
4.62869e-20
1.9712e-19
8.42175e-19
3.54532e-18
1.47579e-17
6.09686e-17
2.50285e-16
1.02171e-15
4.14997e-15
1.67819e-14
6.76017e-14
2.71405e-13
1.0865e-12
4.33899e-12
1.72927e-11
6.88026e-11
2.73369e-10
1.08495e-09
4.30212e-09
1.70471e-08
6.75114e-08
2.67239e-07
1.05734e-06
4.18047e-06
1.65025e-05
6.48637e-05
0.00025183
0.000944678
0.00324711
0.00932071
0.0207841
0.0365644
0.0557869
0.0788825
0.104726
0.129602
0.149784
0.167247
0.177858
0.184994
0.18981
0.19314
0.195531
0.197333
0.19876
0.199944
0.200965
0.201873
0.202698
0.203462
0.204176
0.20485
0.205489
0.206098
0.20668
0.207238
0.207774
0.20829
0.208787
0.209266
0.209728
0.210175
0.210606
0.21101
0.211396
0.211771
0.212138
0.212495
0.212843
0.213184
0.213516
0.213841
0.214158
0.214468
0.214772
0.215069
0.215359
0.215643
0.215922
0.216195
0.216462
0.216724
0.216981
0.217233
0.217481
0.217724
0.217962
0.218196
0.218427
0.218653
0.218875
0.219094
0.219309
0.219521
0.219729
0.219934
0.220136
0.220335
0.220531
0.220724
0.220914
0.221101
0.221286
0.221468
0.221648
0.221826
0.222001
0.222173
0.222344
0.222513
0.222679
0.222843
0.223006
0.223167
0.223325
0.223482
0.223638
0.223792
0.223944
0.224095
0.224245
0.224394
0.224542
0.224689
0.224836
0.224984
0.225132
0.225279
0.225422
0.225564
0.225706
0.225847
0.225988
0.226128
0.226268
0.226409
0.226549
0.226689
0.22683
0.22697
0.227112
0.227253
0.227395
0.227538
0.227682
0.227827
0.227972
0.228119
0.228267
0.228417
0.228567
0.22872
0.228873
0.229029
0.229186
0.229345
0.229506
0.229669
0.229834
0.23
0.230169
0.230339
0.230511
0.230685
0.230861
0.231038
0.231216
0.231396
0.231577
0.231759
0.231942
0.232126
0.232309
0.232493
0.232677
0.232861
0.233044
0.233227
0.233408
0.233589
0.233768
0.233945
0.234121
0.234295
0.234466
0.234635
0.234802
0.234966
0.235128
0.235286
0.235442
0.235595
0.235744
0.235891
0.236035
0.236175
0.236313
0.236447
0.236578
0.236707
0.236832
0.236955
0.237075
0.237192
0.237307
0.237419
0.237528
0.237635
0.237739
0.237841
0.237941
0.238038
0.238133
0.238225
0.238316
0.238404
0.238489
0.238573
0.238654
0.238733
0.238809
0.238883
0.238955
0.239024
0.239091
0.239155
0.239217
0.239276
0.239333
0.239387
0.239439
0.239488
0.239534
0.239578
0.239619
0.239658
0.239695
0.239729
0.239761
0.23979
0.239817
0.239842
0.239865
0.239885
0.239904
0.23992
0.239933
0.239945
0.239953
0.239959
0.239963
)
;

boundaryField
{
    boundary
    {
        type            empty;
    }
    inlet
    {
        type            fixedValue;
        value           uniform 0;
    }
    outlet
    {
        type            zeroGradient;
    }
}


// ************************************************************************* //
