/*--------------------------------*- C++ -*----------------------------------*\
  =========                 |
  \\      /  F ield         | OpenFOAM: The Open Source CFD Toolbox
   \\    /   O peration     | Website:  https://openfoam.org
    \\  /    A nd           | Version:  7
     \\/     M anipulation  |
\*---------------------------------------------------------------------------*/
FoamFile
{
    version     2.0;
    format      ascii;
    class       volScalarField;
    location    "0.00043";
    object      HO2;
}
// * * * * * * * * * * * * * * * * * * * * * * * * * * * * * * * * * * * * * //

dimensions      [0 0 0 0 0 0 0];

internalField   nonuniform List<scalar> 
500
(
5.60328e-38
1.27607e-37
1.99544e-37
2.71649e-37
3.43902e-37
4.1633e-37
4.88981e-37
5.61925e-37
6.35254e-37
7.09086e-37
7.83568e-37
8.58883e-37
9.35251e-37
1.01292e-36
1.09218e-36
1.17333e-36
1.25667e-36
1.34249e-36
1.43103e-36
1.52247e-36
1.61687e-36
1.71418e-36
1.8142e-36
1.91653e-36
2.02064e-36
2.12579e-36
2.23112e-36
2.33563e-36
2.43827e-36
2.53795e-36
2.6336e-36
2.72426e-36
2.80908e-36
2.88739e-36
2.95871e-36
3.02278e-36
3.07953e-36
3.12911e-36
3.1718e-36
3.20805e-36
3.2384e-36
3.26347e-36
3.28388e-36
3.30027e-36
3.31326e-36
3.32342e-36
3.33125e-36
3.33721e-36
3.3417e-36
3.34503e-36
3.34747e-36
3.34923e-36
3.3505e-36
3.35139e-36
3.35202e-36
3.35245e-36
3.35275e-36
3.35295e-36
3.35308e-36
3.35318e-36
3.35324e-36
3.35328e-36
3.35331e-36
3.35333e-36
3.35335e-36
3.35337e-36
3.35338e-36
3.35339e-36
3.3534e-36
3.35342e-36
3.35343e-36
3.35345e-36
3.35346e-36
3.35348e-36
3.3535e-36
3.35352e-36
3.35354e-36
3.35356e-36
3.35358e-36
3.35361e-36
3.35364e-36
3.35367e-36
3.3537e-36
3.35373e-36
3.35376e-36
3.3538e-36
3.35384e-36
3.35388e-36
3.35392e-36
3.35396e-36
3.35401e-36
3.35406e-36
3.35411e-36
3.35417e-36
3.35422e-36
3.35428e-36
3.35434e-36
3.35441e-36
3.35448e-36
3.35455e-36
3.35462e-36
3.35469e-36
3.35477e-36
3.35486e-36
3.35494e-36
3.35503e-36
3.35512e-36
3.35522e-36
3.35532e-36
3.35542e-36
3.35552e-36
3.35563e-36
3.35575e-36
3.35586e-36
3.35598e-36
3.3561e-36
3.35623e-36
3.35636e-36
3.35649e-36
3.35663e-36
3.35676e-36
3.35685e-36
3.35676e-36
3.35592e-36
3.35202e-36
3.34427e-36
3.34502e-36
3.34605e-36
3.34737e-36
3.34896e-36
3.3507e-36
3.35246e-36
3.35407e-36
3.35541e-36
3.35637e-36
3.35692e-36
3.35709e-36
3.35691e-36
3.35647e-36
3.35584e-36
3.35511e-36
3.35437e-36
3.35367e-36
3.35307e-36
3.35261e-36
3.35233e-36
3.35223e-36
3.35233e-36
3.35261e-36
3.35306e-36
3.35365e-36
3.35437e-36
3.35518e-36
3.35606e-36
3.35698e-36
3.35791e-36
3.35883e-36
3.35972e-36
3.36058e-36
3.36137e-36
3.36211e-36
3.36279e-36
3.36339e-36
3.36394e-36
3.36442e-36
3.36484e-36
3.36522e-36
3.36555e-36
3.36583e-36
3.36608e-36
3.3663e-36
3.3665e-36
3.36667e-36
3.36682e-36
3.36694e-36
3.36705e-36
3.36715e-36
3.36722e-36
3.36728e-36
3.36732e-36
3.36735e-36
3.36735e-36
3.36734e-36
3.36731e-36
3.36726e-36
3.36718e-36
3.36709e-36
3.36697e-36
3.36682e-36
3.36665e-36
3.36646e-36
3.36624e-36
3.36598e-36
3.3657e-36
3.36539e-36
3.36505e-36
3.36467e-36
3.36426e-36
3.36381e-36
3.36333e-36
3.36281e-36
3.36225e-36
3.36165e-36
3.361e-36
3.36032e-36
3.35959e-36
3.35882e-36
3.358e-36
3.35714e-36
3.35623e-36
3.35527e-36
3.35426e-36
3.3532e-36
3.35209e-36
3.35092e-36
3.34971e-36
3.34845e-36
3.34716e-36
3.34592e-36
3.34511e-36
3.34632e-36
3.3564e-36
3.40429e-36
3.61132e-36
4.48152e-36
8.09003e-36
2.29071e-35
8.32275e-35
3.26879e-34
1.30419e-33
5.201e-33
2.06667e-32
8.18654e-32
3.23814e-31
1.28179e-30
5.09076e-30
2.03414e-29
8.19915e-29
3.34151e-28
1.37911e-27
5.76801e-27
2.44393e-26
1.04774e-25
4.53641e-25
1.97922e-24
8.68161e-24
3.82027e-23
1.68327e-22
7.41474e-22
3.2613e-21
1.43103e-20
6.32158e-20
2.76637e-19
1.20228e-18
5.20347e-18
2.24431e-17
9.64978e-17
4.13733e-16
1.76934e-15
7.5493e-15
3.21458e-14
1.36638e-13
5.79887e-13
2.45771e-12
1.04042e-11
4.3998e-11
1.85888e-10
7.84678e-10
3.30948e-09
1.39454e-08
5.86812e-08
2.46248e-07
1.02659e-06
4.21624e-06
1.67793e-05
6.2151e-05
0.000195476
0.000425745
0.000521407
0.000459955
0.00034834
0.000247724
0.000173719
0.000121552
8.51076e-05
6.05234e-05
4.19223e-05
3.14253e-05
2.47019e-05
2.03114e-05
1.73519e-05
1.52756e-05
1.37545e-05
1.25927e-05
1.16715e-05
1.09175e-05
1.02842e-05
9.74106e-06
9.26768e-06
8.84966e-06
8.47665e-06
8.14097e-06
7.83673e-06
7.55935e-06
7.30516e-06
7.0712e-06
6.85504e-06
6.65463e-06
6.46829e-06
6.2946e-06
6.13237e-06
5.98067e-06
5.84296e-06
5.71501e-06
5.59361e-06
5.47829e-06
5.3686e-06
5.26414e-06
5.16456e-06
5.06953e-06
4.97874e-06
4.89194e-06
4.80887e-06
4.72931e-06
4.65304e-06
4.57986e-06
4.5096e-06
4.4421e-06
4.37718e-06
4.31472e-06
4.25458e-06
4.19663e-06
4.14075e-06
4.08685e-06
4.03481e-06
3.98455e-06
3.93598e-06
3.88901e-06
3.84357e-06
3.79958e-06
3.75698e-06
3.71571e-06
3.6757e-06
3.63691e-06
3.59927e-06
3.56274e-06
3.52726e-06
3.49281e-06
3.45932e-06
3.42678e-06
3.39513e-06
3.36433e-06
3.33437e-06
3.3052e-06
3.2768e-06
3.24913e-06
3.22216e-06
3.19588e-06
3.17025e-06
3.14524e-06
3.12085e-06
3.09704e-06
3.07379e-06
3.05107e-06
3.02888e-06
3.00718e-06
2.98597e-06
2.96521e-06
2.94488e-06
2.92497e-06
2.90544e-06
2.88628e-06
2.86745e-06
2.84891e-06
2.8306e-06
2.81245e-06
2.79461e-06
2.77731e-06
2.76029e-06
2.74353e-06
2.72702e-06
2.71072e-06
2.69464e-06
2.67873e-06
2.66299e-06
2.64739e-06
2.63192e-06
2.61656e-06
2.60129e-06
2.58608e-06
2.57093e-06
2.5558e-06
2.54068e-06
2.52556e-06
2.5104e-06
2.4952e-06
2.47992e-06
2.46455e-06
2.44908e-06
2.43348e-06
2.41773e-06
2.40181e-06
2.38571e-06
2.36942e-06
2.3529e-06
2.33616e-06
2.31918e-06
2.30194e-06
2.28444e-06
2.26667e-06
2.24862e-06
2.23029e-06
2.21169e-06
2.19281e-06
2.17365e-06
2.15423e-06
2.13456e-06
2.11465e-06
2.09451e-06
2.07418e-06
2.05366e-06
2.03299e-06
2.0122e-06
1.99132e-06
1.97039e-06
1.94944e-06
1.92851e-06
1.90764e-06
1.88689e-06
1.86629e-06
1.8459e-06
1.82576e-06
1.80592e-06
1.78643e-06
1.76735e-06
1.74871e-06
1.73058e-06
1.71299e-06
1.696e-06
1.67966e-06
1.66399e-06
1.64905e-06
1.63487e-06
1.62149e-06
1.60893e-06
1.59723e-06
1.5864e-06
1.57648e-06
1.56746e-06
1.55936e-06
1.55218e-06
1.54593e-06
1.5406e-06
1.53618e-06
1.53264e-06
1.52998e-06
1.52817e-06
1.52718e-06
1.52697e-06
1.5275e-06
1.52874e-06
1.53065e-06
1.53317e-06
1.53625e-06
1.53986e-06
1.54393e-06
1.54841e-06
1.55326e-06
1.55842e-06
1.56384e-06
1.56947e-06
1.57527e-06
1.58119e-06
1.5872e-06
1.59325e-06
1.59931e-06
1.60534e-06
1.61132e-06
1.61723e-06
1.62304e-06
1.62873e-06
1.63428e-06
1.6397e-06
1.64495e-06
1.65005e-06
1.65498e-06
1.65974e-06
1.66433e-06
1.66874e-06
1.67298e-06
1.67705e-06
1.68095e-06
1.68467e-06
1.68821e-06
1.69157e-06
1.69472e-06
1.69764e-06
1.70027e-06
1.70248e-06
1.70394e-06
)
;

boundaryField
{
    boundary
    {
        type            empty;
    }
    inlet
    {
        type            fixedValue;
        value           uniform 0;
    }
    outlet
    {
        type            zeroGradient;
    }
}


// ************************************************************************* //
