/*--------------------------------*- C++ -*----------------------------------*\
  =========                 |
  \\      /  F ield         | OpenFOAM: The Open Source CFD Toolbox
   \\    /   O peration     | Website:  https://openfoam.org
    \\  /    A nd           | Version:  7
     \\/     M anipulation  |
\*---------------------------------------------------------------------------*/
FoamFile
{
    version     2.0;
    format      ascii;
    class       volScalarField;
    location    "0.00043";
    object      N2;
}
// * * * * * * * * * * * * * * * * * * * * * * * * * * * * * * * * * * * * * //

dimensions      [0 0 0 0 0 0 0];

internalField   nonuniform List<scalar> 
500
(
0.745219
0.745219
0.745219
0.745219
0.745219
0.745219
0.745219
0.745219
0.745219
0.745219
0.745219
0.745219
0.745219
0.745219
0.745219
0.745219
0.745219
0.745219
0.745219
0.745219
0.745219
0.745219
0.745219
0.745219
0.745219
0.745219
0.745219
0.745219
0.745219
0.74522
0.74522
0.74522
0.74522
0.74522
0.74522
0.74522
0.74522
0.74522
0.74522
0.74522
0.74522
0.74522
0.74522
0.74522
0.74522
0.74522
0.74522
0.74522
0.74522
0.74522
0.74522
0.74522
0.74522
0.74522
0.74522
0.74522
0.74522
0.74522
0.74522
0.74522
0.74522
0.74522
0.74522
0.74522
0.74522
0.74522
0.74522
0.74522
0.74522
0.74522
0.74522
0.74522
0.74522
0.74522
0.74522
0.74522
0.74522
0.74522
0.74522
0.74522
0.74522
0.74522
0.74522
0.74522
0.74522
0.74522
0.74522
0.74522
0.74522
0.74522
0.74522
0.74522
0.74522
0.74522
0.74522
0.74522
0.74522
0.74522
0.74522
0.74522
0.74522
0.74522
0.74522
0.74522
0.74522
0.74522
0.74522
0.74522
0.74522
0.74522
0.74522
0.74522
0.74522
0.74522
0.74522
0.74522
0.74522
0.74522
0.74522
0.74522
0.74522
0.74522
0.74522
0.74522
0.74522
0.74522
0.74522
0.74522
0.74522
0.74522
0.74522
0.74522
0.74522
0.74522
0.74522
0.74522
0.74522
0.74522
0.74522
0.74522
0.74522
0.74522
0.74522
0.74522
0.74522
0.74522
0.74522
0.74522
0.74522
0.74522
0.74522
0.74522
0.74522
0.74522
0.74522
0.74522
0.74522
0.74522
0.74522
0.74522
0.74522
0.74522
0.74522
0.74522
0.74522
0.74522
0.74522
0.74522
0.74522
0.74522
0.74522
0.74522
0.74522
0.74522
0.74522
0.74522
0.74522
0.74522
0.74522
0.74522
0.74522
0.74522
0.74522
0.74522
0.74522
0.74522
0.74522
0.74522
0.74522
0.74522
0.74522
0.74522
0.74522
0.74522
0.74522
0.74522
0.74522
0.74522
0.74522
0.74522
0.74522
0.74522
0.74522
0.74522
0.74522
0.74522
0.74522
0.74522
0.74522
0.74522
0.74522
0.74522
0.74522
0.74522
0.74522
0.74522
0.74522
0.74522
0.74522
0.74522
0.74522
0.74522
0.74522
0.74522
0.74522
0.74522
0.74522
0.74522
0.74522
0.74522
0.74522
0.74522
0.74522
0.74522
0.74522
0.74522
0.74522
0.74522
0.74522
0.74522
0.74522
0.74522
0.74522
0.74522
0.74522
0.74522
0.74522
0.74522
0.74522
0.74522
0.74522
0.74522
0.74522
0.74522
0.74522
0.74522
0.74522
0.74522
0.74522
0.74522
0.74522
0.74522
0.74522
0.74522
0.74522
0.74522
0.74522
0.74522
0.745221
0.745223
0.745227
0.745235
0.745252
0.745284
0.745346
0.745448
0.745576
0.745622
0.745444
0.745085
0.744588
0.744025
0.743651
0.743655
0.743924
0.744133
0.744715
0.744947
0.74511
0.745213
0.745277
0.745314
0.745335
0.745345
0.745349
0.745349
0.745347
0.745343
0.745339
0.745334
0.745329
0.745324
0.745319
0.745315
0.745311
0.745308
0.745305
0.745302
0.7453
0.745298
0.745297
0.745295
0.745294
0.745293
0.745292
0.74529
0.745289
0.745288
0.745287
0.745286
0.745285
0.745284
0.745283
0.745282
0.745281
0.74528
0.745278
0.745277
0.745276
0.745275
0.745274
0.745272
0.745271
0.74527
0.745269
0.745268
0.745267
0.745266
0.745265
0.745264
0.745263
0.745262
0.745261
0.74526
0.745259
0.745258
0.745258
0.745257
0.745256
0.745255
0.745254
0.745254
0.745253
0.745252
0.745251
0.74525
0.745249
0.745248
0.745247
0.745246
0.745245
0.745244
0.745243
0.745242
0.74524
0.745239
0.745237
0.745236
0.745234
0.745232
0.74523
0.745227
0.745225
0.745222
0.745218
0.745214
0.74521
0.745207
0.745204
0.745201
0.745197
0.745194
0.74519
0.745187
0.745183
0.745179
0.745176
0.745172
0.745168
0.745165
0.745161
0.745158
0.745155
0.745152
0.745149
0.745146
0.745144
0.745142
0.74514
0.745139
0.745138
0.745137
0.745137
0.745137
0.745138
0.745139
0.74514
0.745143
0.745146
0.745149
0.745153
0.745158
0.745164
0.74517
0.745178
0.745186
0.745195
0.745204
0.745215
0.745227
0.745239
0.745252
0.745266
0.74528
0.745296
0.745312
0.745328
0.745345
0.745362
0.74538
0.745398
0.745416
0.745433
0.745451
0.745468
0.745484
0.7455
0.745516
0.74553
0.745543
0.745555
0.745566
0.745575
0.745583
0.745589
0.745594
0.745596
0.745597
0.745596
0.745593
0.745588
0.745582
0.745573
0.745563
0.74555
0.745536
0.745521
0.745503
0.745485
0.745465
0.745444
0.745422
0.745399
0.745376
0.745352
0.745327
0.745303
0.745279
0.745254
0.74523
0.745207
0.745184
0.745162
0.745141
0.745121
0.745102
0.745084
0.745068
0.745053
0.745039
0.745027
0.745016
0.745007
0.744999
0.744993
0.744988
0.744984
0.744982
0.74498
0.74498
0.744981
0.744983
0.744985
0.744988
0.744992
0.744995
0.744998
0.745001
0.745002
0.745002
)
;

boundaryField
{
    boundary
    {
        type            empty;
    }
    inlet
    {
        type            fixedValue;
        value           uniform 0.74522;
    }
    outlet
    {
        type            zeroGradient;
    }
}


// ************************************************************************* //
