/*--------------------------------*- C++ -*----------------------------------*\
  =========                 |
  \\      /  F ield         | OpenFOAM: The Open Source CFD Toolbox
   \\    /   O peration     | Website:  https://openfoam.org
    \\  /    A nd           | Version:  7
     \\/     M anipulation  |
\*---------------------------------------------------------------------------*/
FoamFile
{
    version     2.0;
    format      ascii;
    class       surfaceScalarField;
    location    "0.00043";
    object      phi;
}
// * * * * * * * * * * * * * * * * * * * * * * * * * * * * * * * * * * * * * //

dimensions      [1 0 -1 0 0 0 0];

internalField   nonuniform List<scalar> 
499
(
6.93394e-06
6.93362e-06
6.9333e-06
6.93297e-06
6.93265e-06
6.93233e-06
6.932e-06
6.93166e-06
6.93131e-06
6.93094e-06
6.93054e-06
6.93011e-06
6.92964e-06
6.92912e-06
6.92853e-06
6.92788e-06
6.92714e-06
6.92631e-06
6.92538e-06
6.92434e-06
6.92318e-06
6.9219e-06
6.9205e-06
6.91899e-06
6.91738e-06
6.91567e-06
6.91389e-06
6.91206e-06
6.91019e-06
6.90831e-06
6.90645e-06
6.90463e-06
6.90287e-06
6.90118e-06
6.89959e-06
6.89811e-06
6.89675e-06
6.8955e-06
6.89437e-06
6.89335e-06
6.89245e-06
6.89165e-06
6.89095e-06
6.89033e-06
6.88978e-06
6.88929e-06
6.88887e-06
6.88848e-06
6.88814e-06
6.88782e-06
6.88753e-06
6.88725e-06
6.887e-06
6.88675e-06
6.88651e-06
6.88628e-06
6.88605e-06
6.88582e-06
6.8856e-06
6.88538e-06
6.88516e-06
6.88494e-06
6.88472e-06
6.8845e-06
6.88428e-06
6.88407e-06
6.88385e-06
6.88363e-06
6.88341e-06
6.88319e-06
6.88297e-06
6.88275e-06
6.88253e-06
6.88231e-06
6.88209e-06
6.88187e-06
6.88165e-06
6.88143e-06
6.88121e-06
6.88099e-06
6.88077e-06
6.88055e-06
6.88033e-06
6.88011e-06
6.87988e-06
6.87966e-06
6.87944e-06
6.87922e-06
6.87899e-06
6.87877e-06
6.87855e-06
6.87832e-06
6.8781e-06
6.87787e-06
6.87765e-06
6.87742e-06
6.8772e-06
6.87697e-06
6.87674e-06
6.87652e-06
6.87629e-06
6.87606e-06
6.87584e-06
6.87561e-06
6.87538e-06
6.87515e-06
6.87492e-06
6.87469e-06
6.87446e-06
6.87423e-06
6.874e-06
6.87377e-06
6.87354e-06
6.87331e-06
6.87308e-06
6.87284e-06
6.87261e-06
6.87238e-06
6.87214e-06
6.87191e-06
6.87168e-06
6.87144e-06
6.8712e-06
6.87097e-06
6.87073e-06
6.87049e-06
6.87026e-06
6.87002e-06
6.86978e-06
6.86954e-06
6.86931e-06
6.86907e-06
6.86883e-06
6.86859e-06
6.86835e-06
6.86811e-06
6.86786e-06
6.86762e-06
6.86738e-06
6.86714e-06
6.86689e-06
6.86665e-06
6.86641e-06
6.86616e-06
6.86592e-06
6.86567e-06
6.86543e-06
6.86518e-06
6.86493e-06
6.86469e-06
6.86444e-06
6.86419e-06
6.86394e-06
6.86369e-06
6.86344e-06
6.86319e-06
6.86294e-06
6.86269e-06
6.86244e-06
6.86219e-06
6.86194e-06
6.86169e-06
6.86143e-06
6.86118e-06
6.86093e-06
6.86067e-06
6.86042e-06
6.86017e-06
6.85991e-06
6.85966e-06
6.8594e-06
6.85915e-06
6.85889e-06
6.85864e-06
6.85838e-06
6.85813e-06
6.85788e-06
6.85762e-06
6.85737e-06
6.85711e-06
6.85686e-06
6.8566e-06
6.85635e-06
6.85609e-06
6.85584e-06
6.85558e-06
6.85533e-06
6.85507e-06
6.85482e-06
6.85456e-06
6.85431e-06
6.85406e-06
6.8538e-06
6.85355e-06
6.8533e-06
6.85305e-06
6.85279e-06
6.85254e-06
6.85229e-06
6.85204e-06
6.85179e-06
6.85154e-06
6.85129e-06
6.85105e-06
6.8508e-06
6.85055e-06
6.85031e-06
6.85006e-06
6.84982e-06
6.84957e-06
6.84933e-06
6.84909e-06
6.84885e-06
6.84861e-06
6.84837e-06
6.84813e-06
6.84789e-06
6.84765e-06
6.84742e-06
6.84718e-06
6.84695e-06
6.84672e-06
6.84649e-06
6.84626e-06
6.84603e-06
6.8458e-06
6.84557e-06
6.84534e-06
6.84512e-06
6.8449e-06
6.84467e-06
6.84445e-06
6.84423e-06
6.84401e-06
6.84379e-06
6.84357e-06
6.84336e-06
6.84314e-06
6.84293e-06
6.84271e-06
6.8425e-06
6.84229e-06
6.84208e-06
6.84187e-06
6.84166e-06
6.84145e-06
6.84124e-06
6.84103e-06
6.84083e-06
6.84062e-06
6.84042e-06
6.84022e-06
6.84001e-06
6.83981e-06
6.83961e-06
6.83941e-06
6.83921e-06
6.839e-06
6.8388e-06
6.8386e-06
6.8384e-06
6.8382e-06
6.838e-06
6.8378e-06
6.8376e-06
6.8374e-06
6.8372e-06
6.83701e-06
6.83681e-06
6.83663e-06
6.83648e-06
6.83647e-06
6.83683e-06
6.83835e-06
6.84324e-06
6.85736e-06
6.89261e-06
6.95671e-06
7.029e-06
7.08366e-06
7.11892e-06
7.14209e-06
7.15813e-06
7.16924e-06
7.1762e-06
7.18116e-06
7.18555e-06
7.18928e-06
7.19215e-06
7.19447e-06
7.19638e-06
7.19799e-06
7.19937e-06
7.20057e-06
7.20163e-06
7.20257e-06
7.2034e-06
7.20416e-06
7.20484e-06
7.20546e-06
7.20603e-06
7.20655e-06
7.20702e-06
7.20746e-06
7.20786e-06
7.20823e-06
7.20857e-06
7.20889e-06
7.20917e-06
7.20943e-06
7.20967e-06
7.20989e-06
7.21008e-06
7.21025e-06
7.21041e-06
7.21056e-06
7.21069e-06
7.21081e-06
7.21093e-06
7.21104e-06
7.21114e-06
7.21123e-06
7.21132e-06
7.2114e-06
7.21148e-06
7.21156e-06
7.21163e-06
7.2117e-06
7.21176e-06
7.21183e-06
7.21189e-06
7.21195e-06
7.212e-06
7.21206e-06
7.21211e-06
7.21216e-06
7.2122e-06
7.21225e-06
7.21229e-06
7.21233e-06
7.21236e-06
7.2124e-06
7.21243e-06
7.21246e-06
7.21248e-06
7.2125e-06
7.21252e-06
7.21254e-06
7.21255e-06
7.21256e-06
7.21257e-06
7.21258e-06
7.21258e-06
7.21258e-06
7.21258e-06
7.21257e-06
7.21256e-06
7.21255e-06
7.21253e-06
7.21251e-06
7.21249e-06
7.21246e-06
7.21243e-06
7.21239e-06
7.21236e-06
7.21231e-06
7.21227e-06
7.21222e-06
7.21216e-06
7.21211e-06
7.21204e-06
7.21198e-06
7.2119e-06
7.21183e-06
7.21174e-06
7.21165e-06
7.21155e-06
7.21145e-06
7.21135e-06
7.21125e-06
7.21115e-06
7.21105e-06
7.21095e-06
7.21086e-06
7.21078e-06
7.2107e-06
7.21064e-06
7.21058e-06
7.21054e-06
7.21051e-06
7.2105e-06
7.21051e-06
7.21054e-06
7.21059e-06
7.21067e-06
7.21077e-06
7.2109e-06
7.21106e-06
7.21125e-06
7.21147e-06
7.21172e-06
7.21201e-06
7.21232e-06
7.21267e-06
7.21305e-06
7.21345e-06
7.21389e-06
7.21434e-06
7.21481e-06
7.21531e-06
7.21581e-06
7.21631e-06
7.21682e-06
7.21731e-06
7.21779e-06
7.21824e-06
7.21865e-06
7.21902e-06
7.21933e-06
7.21956e-06
7.21971e-06
7.21976e-06
7.21969e-06
7.2195e-06
7.21915e-06
7.21864e-06
7.21795e-06
7.21706e-06
7.21595e-06
7.21462e-06
7.21303e-06
7.21117e-06
7.20904e-06
7.20661e-06
7.20388e-06
7.20083e-06
7.19745e-06
7.19374e-06
7.18969e-06
7.1853e-06
7.18057e-06
7.1755e-06
7.17009e-06
7.16436e-06
7.15832e-06
7.15198e-06
7.14535e-06
7.13846e-06
7.13132e-06
7.12397e-06
7.11642e-06
7.10872e-06
7.10088e-06
7.09293e-06
7.08492e-06
7.07688e-06
7.06883e-06
7.06082e-06
7.05288e-06
7.04504e-06
7.03734e-06
7.0298e-06
7.02246e-06
7.01534e-06
7.00848e-06
7.00189e-06
6.99561e-06
6.98965e-06
6.98402e-06
6.97874e-06
6.97383e-06
6.96929e-06
6.96513e-06
6.96135e-06
6.95795e-06
6.95493e-06
6.95228e-06
6.95001e-06
6.94809e-06
6.94652e-06
6.94528e-06
6.94437e-06
6.94375e-06
6.94342e-06
6.94336e-06
6.94355e-06
6.94396e-06
6.94459e-06
6.9454e-06
6.94638e-06
6.9475e-06
6.94876e-06
6.95013e-06
6.9516e-06
6.95314e-06
6.95475e-06
6.95642e-06
6.95813e-06
6.95987e-06
)
;

boundaryField
{
    boundary
    {
        type            empty;
        value           nonuniform 0();
    }
    inlet
    {
        type            calculated;
        value           uniform -6.93425e-06;
    }
    outlet
    {
        type            calculated;
        value           uniform 6.96164e-06;
    }
}


// ************************************************************************* //
