/*--------------------------------*- C++ -*----------------------------------*\
  =========                 |
  \\      /  F ield         | OpenFOAM: The Open Source CFD Toolbox
   \\    /   O peration     | Website:  https://openfoam.org
    \\  /    A nd           | Version:  7
     \\/     M anipulation  |
\*---------------------------------------------------------------------------*/
FoamFile
{
    version     2.0;
    format      ascii;
    class       volScalarField;
    location    "0.00043";
    object      Qdot;
}
// * * * * * * * * * * * * * * * * * * * * * * * * * * * * * * * * * * * * * //

dimensions      [1 -1 -3 0 0 0 0];

internalField   nonuniform List<scalar> 
500
(
-2.45547e-27
-1.86802e-27
-1.74332e-27
-1.71832e-27
-1.71483e-27
-1.71606e-27
-1.71847e-27
-1.72139e-27
-1.72477e-27
-1.7287e-27
-1.73333e-27
-1.73885e-27
-1.74545e-27
-1.75338e-27
-1.76288e-27
-1.77424e-27
-1.78774e-27
-1.80367e-27
-1.82227e-27
-1.84381e-27
-1.86846e-27
-1.89635e-27
-1.92753e-27
-1.96197e-27
-1.9995e-27
-2.03989e-27
-2.08277e-27
-2.12766e-27
-2.174e-27
-2.22115e-27
-2.26844e-27
-2.31515e-27
-2.36061e-27
-2.40418e-27
-2.4453e-27
-2.48351e-27
-2.51848e-27
-2.54999e-27
-2.57796e-27
-2.60242e-27
-2.6235e-27
-2.64139e-27
-2.65637e-27
-2.66873e-27
-2.67879e-27
-2.68687e-27
-2.69328e-27
-2.69829e-27
-2.70217e-27
-2.70512e-27
-2.70735e-27
-2.70901e-27
-2.71023e-27
-2.71113e-27
-2.71177e-27
-2.71223e-27
-2.71255e-27
-2.71278e-27
-2.71294e-27
-2.71305e-27
-2.71313e-27
-2.71319e-27
-2.71323e-27
-2.71326e-27
-2.71329e-27
-2.71331e-27
-2.71333e-27
-2.71335e-27
-2.71336e-27
-2.71338e-27
-2.7134e-27
-2.71342e-27
-2.71344e-27
-2.71346e-27
-2.71348e-27
-2.7135e-27
-2.71353e-27
-2.71355e-27
-2.71358e-27
-2.71361e-27
-2.71364e-27
-2.71367e-27
-2.7137e-27
-2.71373e-27
-2.71377e-27
-2.71381e-27
-2.71385e-27
-2.71389e-27
-2.71393e-27
-2.71397e-27
-2.71402e-27
-2.71407e-27
-2.71412e-27
-2.71417e-27
-2.71423e-27
-2.71428e-27
-2.71434e-27
-2.7144e-27
-2.71447e-27
-2.71453e-27
-2.7146e-27
-2.71467e-27
-2.71475e-27
-2.71482e-27
-2.7149e-27
-2.71498e-27
-2.71507e-27
-2.71515e-27
-2.71524e-27
-2.71534e-27
-2.71543e-27
-2.71553e-27
-2.71563e-27
-2.71574e-27
-2.71585e-27
-2.71596e-27
-2.71607e-27
-2.71619e-27
-2.71631e-27
-2.71643e-27
-2.71655e-27
-2.71668e-27
-2.71682e-27
-2.71696e-27
-2.71712e-27
-2.71732e-27
-2.71745e-27
-2.71758e-27
-2.7177e-27
-2.71784e-27
-2.71798e-27
-2.71812e-27
-2.71828e-27
-2.71843e-27
-2.71859e-27
-2.71875e-27
-2.71891e-27
-2.71908e-27
-2.71924e-27
-2.7194e-27
-2.71957e-27
-2.71973e-27
-2.7199e-27
-2.72007e-27
-2.72023e-27
-2.7204e-27
-2.72058e-27
-2.72075e-27
-2.72093e-27
-2.72112e-27
-2.7213e-27
-2.72149e-27
-2.72169e-27
-2.72189e-27
-2.72209e-27
-2.72229e-27
-2.72249e-27
-2.7227e-27
-2.7229e-27
-2.7231e-27
-2.7233e-27
-2.7235e-27
-2.72369e-27
-2.72388e-27
-2.72406e-27
-2.72423e-27
-2.7244e-27
-2.72456e-27
-2.72471e-27
-2.72486e-27
-2.725e-27
-2.72512e-27
-2.72524e-27
-2.72535e-27
-2.72545e-27
-2.72554e-27
-2.72562e-27
-2.72568e-27
-2.72573e-27
-2.72577e-27
-2.7258e-27
-2.72581e-27
-2.72581e-27
-2.72579e-27
-2.72575e-27
-2.7257e-27
-2.72563e-27
-2.72554e-27
-2.72543e-27
-2.7253e-27
-2.72514e-27
-2.72497e-27
-2.72477e-27
-2.72454e-27
-2.7243e-27
-2.72402e-27
-2.72372e-27
-2.72339e-27
-2.72303e-27
-2.72264e-27
-2.72222e-27
-2.72177e-27
-2.72129e-27
-2.72077e-27
-2.72022e-27
-2.71964e-27
-2.71901e-27
-2.71835e-27
-2.71766e-27
-2.71692e-27
-2.71614e-27
-2.71533e-27
-2.71447e-27
-2.71355e-27
-2.71253e-27
-2.7112e-27
-2.7086e-27
-2.70066e-27
-2.66963e-27
-2.53954e-27
-1.98816e-27
3.37509e-28
1.00615e-26
5.03238e-26
2.15363e-25
8.85036e-25
3.57471e-24
1.42672e-23
5.63389e-23
2.20181e-22
8.51689e-22
3.26082e-21
1.23574e-20
4.63554e-20
1.72138e-19
6.32842e-19
2.30363e-18
8.30425e-18
2.96521e-17
1.04906e-16
3.67861e-16
1.27908e-15
4.4124e-15
1.51112e-14
5.14201e-14
1.74035e-13
5.86729e-13
1.9744e-12
6.65154e-12
2.25282e-11
7.71273e-11
2.70089e-10
9.63348e-10
3.51995e-09
1.32539e-08
5.15515e-08
2.07045e-07
8.56354e-07
3.6325e-06
1.57282e-05
6.92066e-05
0.000308254
0.00138603
0.00627889
0.0286288
0.131369
0.607218
2.83301
13.3884
67.2221
369.742
2385.6
17811.5
145438
1.3228e+06
1.26167e+07
1.17093e+08
9.06582e+08
4.247e+09
9.9876e+09
1.32755e+10
1.38823e+10
1.39284e+10
1.3824e+10
1.30602e+10
1.14195e+10
9.39006e+09
7.63591e+09
6.28645e+09
5.24977e+09
4.46139e+09
3.85516e+09
3.38045e+09
3.00122e+09
2.69235e+09
2.43634e+09
2.22087e+09
2.03708e+09
1.87854e+09
1.74043e+09
1.61909e+09
1.5117e+09
1.41603e+09
1.33032e+09
1.25312e+09
1.18329e+09
1.11984e+09
1.06198e+09
1.00904e+09
9.60452e+08
9.15756e+08
8.74613e+08
8.3765e+08
8.03873e+08
7.72161e+08
7.42429e+08
7.14501e+08
6.88215e+08
6.63445e+08
6.40057e+08
6.17952e+08
5.97035e+08
5.77217e+08
5.58418e+08
5.40566e+08
5.23598e+08
5.07452e+08
4.92074e+08
4.77413e+08
4.63424e+08
4.50064e+08
4.37293e+08
4.25077e+08
4.13382e+08
4.02178e+08
3.91435e+08
3.81129e+08
3.71234e+08
3.61729e+08
3.52591e+08
3.43802e+08
3.35343e+08
3.27197e+08
3.19349e+08
3.11782e+08
3.04485e+08
2.97442e+08
2.90643e+08
2.84076e+08
2.77729e+08
2.71594e+08
2.6566e+08
2.59918e+08
2.5436e+08
2.48977e+08
2.43763e+08
2.3871e+08
2.33812e+08
2.29062e+08
2.24454e+08
2.19982e+08
2.15641e+08
2.11427e+08
2.07333e+08
2.03356e+08
1.99491e+08
1.95735e+08
1.92082e+08
1.88531e+08
1.85076e+08
1.81716e+08
1.78447e+08
1.75266e+08
1.72174e+08
1.69174e+08
1.66274e+08
1.63419e+08
1.60552e+08
1.57781e+08
1.55089e+08
1.52468e+08
1.49912e+08
1.47418e+08
1.44983e+08
1.42604e+08
1.40279e+08
1.38007e+08
1.35786e+08
1.33613e+08
1.31488e+08
1.29408e+08
1.27372e+08
1.25378e+08
1.23426e+08
1.21512e+08
1.19637e+08
1.17798e+08
1.15994e+08
1.14224e+08
1.12486e+08
1.10779e+08
1.09101e+08
1.07451e+08
1.05828e+08
1.0423e+08
1.02656e+08
1.01104e+08
9.95737e+07
9.80631e+07
9.65709e+07
9.50955e+07
9.36362e+07
9.21915e+07
9.076e+07
8.93405e+07
8.79319e+07
8.6533e+07
8.51426e+07
8.37597e+07
8.23832e+07
8.10129e+07
7.96464e+07
7.82837e+07
7.69242e+07
7.55669e+07
7.42112e+07
7.28567e+07
7.15029e+07
7.01493e+07
6.87957e+07
6.7442e+07
6.60879e+07
6.47336e+07
6.33791e+07
6.20245e+07
6.06703e+07
5.93155e+07
5.7963e+07
5.66116e+07
5.52621e+07
5.3915e+07
5.25711e+07
5.1231e+07
4.98953e+07
4.85649e+07
4.72405e+07
4.59228e+07
4.46126e+07
4.33107e+07
4.20179e+07
4.07351e+07
3.94626e+07
3.82019e+07
3.69535e+07
3.57182e+07
3.44969e+07
3.32903e+07
3.20993e+07
3.09247e+07
2.97675e+07
2.86284e+07
2.75084e+07
2.64082e+07
2.53288e+07
2.4271e+07
2.32355e+07
2.22232e+07
2.12349e+07
2.02711e+07
1.93326e+07
1.84199e+07
1.75336e+07
1.6674e+07
1.58414e+07
1.50362e+07
1.42584e+07
1.35081e+07
1.27853e+07
1.20897e+07
1.14212e+07
1.07795e+07
1.01641e+07
9.5745e+06
9.01017e+06
8.47045e+06
7.95461e+06
7.46183e+06
6.99119e+06
6.54206e+06
6.11266e+06
5.7021e+06
5.30885e+06
4.93094e+06
4.56667e+06
4.21296e+06
3.86658e+06
3.52429e+06
3.18502e+06
2.85655e+06
2.596e+06
)
;

boundaryField
{
    boundary
    {
        type            empty;
    }
    inlet
    {
        type            calculated;
        value           uniform 0;
    }
    outlet
    {
        type            calculated;
        value           uniform 0;
    }
}


// ************************************************************************* //
