/*--------------------------------*- C++ -*----------------------------------*\
  =========                 |
  \\      /  F ield         | OpenFOAM: The Open Source CFD Toolbox
   \\    /   O peration     | Website:  https://openfoam.org
    \\  /    A nd           | Version:  7
     \\/     M anipulation  |
\*---------------------------------------------------------------------------*/
FoamFile
{
    version     2.0;
    format      ascii;
    class       volVectorField;
    location    "0.00043";
    object      U;
}
// * * * * * * * * * * * * * * * * * * * * * * * * * * * * * * * * * * * * * //

dimensions      [0 1 -1 0 0 0 0];

internalField   nonuniform List<vector> 
500
(
(2.34892 0 0)
(2.34885 0 0)
(2.34877 0 0)
(2.34869 0 0)
(2.34862 0 0)
(2.34855 0 0)
(2.34848 0 0)
(2.34841 0 0)
(2.34835 0 0)
(2.34828 0 0)
(2.34822 0 0)
(2.34817 0 0)
(2.34811 0 0)
(2.34806 0 0)
(2.34802 0 0)
(2.34797 0 0)
(2.34794 0 0)
(2.3479 0 0)
(2.34787 0 0)
(2.34784 0 0)
(2.34781 0 0)
(2.34778 0 0)
(2.34775 0 0)
(2.34772 0 0)
(2.34768 0 0)
(2.34763 0 0)
(2.34758 0 0)
(2.34752 0 0)
(2.34745 0 0)
(2.34737 0 0)
(2.34728 0 0)
(2.34718 0 0)
(2.34708 0 0)
(2.34697 0 0)
(2.34686 0 0)
(2.34674 0 0)
(2.34663 0 0)
(2.34651 0 0)
(2.34639 0 0)
(2.34628 0 0)
(2.34617 0 0)
(2.34606 0 0)
(2.34595 0 0)
(2.34585 0 0)
(2.34576 0 0)
(2.34566 0 0)
(2.34557 0 0)
(2.34549 0 0)
(2.3454 0 0)
(2.34532 0 0)
(2.34524 0 0)
(2.34516 0 0)
(2.34508 0 0)
(2.345 0 0)
(2.34493 0 0)
(2.34485 0 0)
(2.34478 0 0)
(2.3447 0 0)
(2.34463 0 0)
(2.34455 0 0)
(2.34448 0 0)
(2.34441 0 0)
(2.34433 0 0)
(2.34426 0 0)
(2.34418 0 0)
(2.34411 0 0)
(2.34403 0 0)
(2.34396 0 0)
(2.34389 0 0)
(2.34381 0 0)
(2.34374 0 0)
(2.34366 0 0)
(2.34359 0 0)
(2.34351 0 0)
(2.34344 0 0)
(2.34336 0 0)
(2.34329 0 0)
(2.34321 0 0)
(2.34314 0 0)
(2.34306 0 0)
(2.34299 0 0)
(2.34291 0 0)
(2.34284 0 0)
(2.34276 0 0)
(2.34269 0 0)
(2.34261 0 0)
(2.34254 0 0)
(2.34246 0 0)
(2.34239 0 0)
(2.34231 0 0)
(2.34224 0 0)
(2.34216 0 0)
(2.34208 0 0)
(2.34201 0 0)
(2.34193 0 0)
(2.34186 0 0)
(2.34178 0 0)
(2.3417 0 0)
(2.34163 0 0)
(2.34155 0 0)
(2.34147 0 0)
(2.3414 0 0)
(2.34132 0 0)
(2.34124 0 0)
(2.34117 0 0)
(2.34109 0 0)
(2.34101 0 0)
(2.34094 0 0)
(2.34086 0 0)
(2.34078 0 0)
(2.3407 0 0)
(2.34062 0 0)
(2.34055 0 0)
(2.34047 0 0)
(2.34039 0 0)
(2.34031 0 0)
(2.34023 0 0)
(2.34016 0 0)
(2.34008 0 0)
(2.34 0 0)
(2.33992 0 0)
(2.33984 0 0)
(2.33976 0 0)
(2.33968 0 0)
(2.3396 0 0)
(2.33952 0 0)
(2.33945 0 0)
(2.33937 0 0)
(2.33929 0 0)
(2.33921 0 0)
(2.33913 0 0)
(2.33905 0 0)
(2.33897 0 0)
(2.33889 0 0)
(2.33881 0 0)
(2.33873 0 0)
(2.33865 0 0)
(2.33857 0 0)
(2.33849 0 0)
(2.33841 0 0)
(2.33832 0 0)
(2.33824 0 0)
(2.33816 0 0)
(2.33808 0 0)
(2.338 0 0)
(2.33792 0 0)
(2.33783 0 0)
(2.33775 0 0)
(2.33767 0 0)
(2.33759 0 0)
(2.33751 0 0)
(2.33742 0 0)
(2.33734 0 0)
(2.33726 0 0)
(2.33718 0 0)
(2.33709 0 0)
(2.33701 0 0)
(2.33693 0 0)
(2.33684 0 0)
(2.33676 0 0)
(2.33667 0 0)
(2.33659 0 0)
(2.33651 0 0)
(2.33642 0 0)
(2.33634 0 0)
(2.33625 0 0)
(2.33617 0 0)
(2.33608 0 0)
(2.336 0 0)
(2.33591 0 0)
(2.33583 0 0)
(2.33574 0 0)
(2.33566 0 0)
(2.33557 0 0)
(2.33549 0 0)
(2.3354 0 0)
(2.33531 0 0)
(2.33523 0 0)
(2.33514 0 0)
(2.33506 0 0)
(2.33497 0 0)
(2.33488 0 0)
(2.3348 0 0)
(2.33471 0 0)
(2.33462 0 0)
(2.33453 0 0)
(2.33445 0 0)
(2.33436 0 0)
(2.33427 0 0)
(2.33418 0 0)
(2.3341 0 0)
(2.33401 0 0)
(2.33392 0 0)
(2.33383 0 0)
(2.33374 0 0)
(2.33366 0 0)
(2.33357 0 0)
(2.33348 0 0)
(2.33339 0 0)
(2.3333 0 0)
(2.33321 0 0)
(2.33312 0 0)
(2.33303 0 0)
(2.33294 0 0)
(2.33285 0 0)
(2.33276 0 0)
(2.33267 0 0)
(2.33258 0 0)
(2.33249 0 0)
(2.3324 0 0)
(2.33231 0 0)
(2.33222 0 0)
(2.33213 0 0)
(2.33204 0 0)
(2.33195 0 0)
(2.33186 0 0)
(2.33177 0 0)
(2.33168 0 0)
(2.33159 0 0)
(2.3315 0 0)
(2.33141 0 0)
(2.33132 0 0)
(2.33122 0 0)
(2.33113 0 0)
(2.33104 0 0)
(2.33095 0 0)
(2.33086 0 0)
(2.33077 0 0)
(2.33067 0 0)
(2.33058 0 0)
(2.33049 0 0)
(2.3304 0 0)
(2.33031 0 0)
(2.33021 0 0)
(2.33012 0 0)
(2.33003 0 0)
(2.32994 0 0)
(2.32984 0 0)
(2.32975 0 0)
(2.32966 0 0)
(2.32957 0 0)
(2.32947 0 0)
(2.32938 0 0)
(2.32929 0 0)
(2.3292 0 0)
(2.3291 0 0)
(2.32901 0 0)
(2.32892 0 0)
(2.32882 0 0)
(2.32873 0 0)
(2.32864 0 0)
(2.32854 0 0)
(2.32846 0 0)
(2.32836 0 0)
(2.32827 0 0)
(2.32817 0 0)
(2.32808 0 0)
(2.32799 0 0)
(2.3279 0 0)
(2.3278 0 0)
(2.32771 0 0)
(2.32762 0 0)
(2.32752 0 0)
(2.32743 0 0)
(2.32733 0 0)
(2.32724 0 0)
(2.32714 0 0)
(2.32705 0 0)
(2.32696 0 0)
(2.32692 0 0)
(2.32702 0 0)
(2.3276 0 0)
(2.32974 0 0)
(2.3365 0 0)
(2.35568 0 0)
(2.40494 0 0)
(2.52265 0 0)
(2.78986 0 0)
(3.35282 0 0)
(4.3243 0 0)
(5.53527 0 0)
(6.75678 0 0)
(7.86676 0 0)
(8.83407 0 0)
(9.65455 0 0)
(10.3412 0 0)
(10.9111 0 0)
(11.3696 0 0)
(11.7318 0 0)
(12.0268 0 0)
(12.2774 0 0)
(12.4951 0 0)
(12.6866 0 0)
(12.8566 0 0)
(13.009 0 0)
(13.1469 0 0)
(13.2725 0 0)
(13.3877 0 0)
(13.4939 0 0)
(13.5921 0 0)
(13.6835 0 0)
(13.7687 0 0)
(13.8484 0 0)
(13.9232 0 0)
(13.9937 0 0)
(14.0601 0 0)
(14.123 0 0)
(14.1825 0 0)
(14.2389 0 0)
(14.2926 0 0)
(14.3435 0 0)
(14.3921 0 0)
(14.4371 0 0)
(14.4792 0 0)
(14.52 0 0)
(14.5593 0 0)
(14.5972 0 0)
(14.6339 0 0)
(14.6693 0 0)
(14.7036 0 0)
(14.7368 0 0)
(14.7689 0 0)
(14.8001 0 0)
(14.8303 0 0)
(14.8597 0 0)
(14.8883 0 0)
(14.916 0 0)
(14.943 0 0)
(14.9692 0 0)
(14.9948 0 0)
(15.0197 0 0)
(15.044 0 0)
(15.0676 0 0)
(15.0907 0 0)
(15.1133 0 0)
(15.1353 0 0)
(15.1567 0 0)
(15.1777 0 0)
(15.1982 0 0)
(15.2183 0 0)
(15.2379 0 0)
(15.2571 0 0)
(15.2759 0 0)
(15.2943 0 0)
(15.3123 0 0)
(15.33 0 0)
(15.3473 0 0)
(15.3642 0 0)
(15.3809 0 0)
(15.3972 0 0)
(15.4132 0 0)
(15.4289 0 0)
(15.4443 0 0)
(15.4594 0 0)
(15.4742 0 0)
(15.4888 0 0)
(15.5032 0 0)
(15.5173 0 0)
(15.5311 0 0)
(15.5447 0 0)
(15.5581 0 0)
(15.5713 0 0)
(15.5842 0 0)
(15.597 0 0)
(15.6095 0 0)
(15.6219 0 0)
(15.634 0 0)
(15.646 0 0)
(15.6578 0 0)
(15.6694 0 0)
(15.6809 0 0)
(15.6922 0 0)
(15.7033 0 0)
(15.7144 0 0)
(15.7252 0 0)
(15.736 0 0)
(15.7466 0 0)
(15.7569 0 0)
(15.7671 0 0)
(15.7771 0 0)
(15.787 0 0)
(15.7967 0 0)
(15.8063 0 0)
(15.8158 0 0)
(15.8251 0 0)
(15.8344 0 0)
(15.8435 0 0)
(15.8524 0 0)
(15.8613 0 0)
(15.87 0 0)
(15.8786 0 0)
(15.8871 0 0)
(15.8955 0 0)
(15.9038 0 0)
(15.9119 0 0)
(15.92 0 0)
(15.928 0 0)
(15.9358 0 0)
(15.9436 0 0)
(15.9512 0 0)
(15.9588 0 0)
(15.9663 0 0)
(15.9737 0 0)
(15.981 0 0)
(15.9883 0 0)
(15.9954 0 0)
(16.0025 0 0)
(16.0095 0 0)
(16.0164 0 0)
(16.0233 0 0)
(16.0301 0 0)
(16.0368 0 0)
(16.0435 0 0)
(16.0502 0 0)
(16.0567 0 0)
(16.0633 0 0)
(16.0698 0 0)
(16.0762 0 0)
(16.0826 0 0)
(16.089 0 0)
(16.0953 0 0)
(16.1015 0 0)
(16.1078 0 0)
(16.114 0 0)
(16.1202 0 0)
(16.1263 0 0)
(16.1324 0 0)
(16.1385 0 0)
(16.1445 0 0)
(16.1505 0 0)
(16.1564 0 0)
(16.1623 0 0)
(16.1681 0 0)
(16.1738 0 0)
(16.1795 0 0)
(16.1851 0 0)
(16.1906 0 0)
(16.1961 0 0)
(16.2014 0 0)
(16.2066 0 0)
(16.2118 0 0)
(16.2167 0 0)
(16.2216 0 0)
(16.2263 0 0)
(16.2308 0 0)
(16.2352 0 0)
(16.2394 0 0)
(16.2434 0 0)
(16.2473 0 0)
(16.2509 0 0)
(16.2543 0 0)
(16.2576 0 0)
(16.2606 0 0)
(16.2634 0 0)
(16.2661 0 0)
(16.2684 0 0)
(16.2706 0 0)
(16.2726 0 0)
(16.2744 0 0)
(16.276 0 0)
(16.2774 0 0)
(16.2786 0 0)
(16.2796 0 0)
(16.2805 0 0)
(16.2812 0 0)
(16.2817 0 0)
(16.2821 0 0)
(16.2824 0 0)
(16.2826 0 0)
(16.2827 0 0)
(16.2827 0 0)
(16.2827 0 0)
(16.2825 0 0)
(16.2824 0 0)
(16.2822 0 0)
(16.2819 0 0)
(16.2817 0 0)
(16.2814 0 0)
(16.2812 0 0)
(16.281 0 0)
(16.2807 0 0)
(16.2805 0 0)
(16.2804 0 0)
(16.2803 0 0)
(16.2802 0 0)
(16.2801 0 0)
(16.2802 0 0)
(16.2802 0 0)
(16.2803 0 0)
(16.2805 0 0)
(16.2808 0 0)
(16.2811 0 0)
(16.2815 0 0)
(16.2821 0 0)
(16.2828 0 0)
(16.2837 0 0)
(16.2848 0 0)
(16.2864 0 0)
(16.2887 0 0)
(16.2928 0 0)
)
;

boundaryField
{
    boundary
    {
        type            empty;
    }
    inlet
    {
        type            fixedValue;
        value           uniform (2.34893 0 0);
    }
    outlet
    {
        type            zeroGradient;
    }
}


// ************************************************************************* //
