/*--------------------------------*- C++ -*----------------------------------*\
  =========                 |
  \\      /  F ield         | OpenFOAM: The Open Source CFD Toolbox
   \\    /   O peration     | Website:  https://openfoam.org
    \\  /    A nd           | Version:  7
     \\/     M anipulation  |
\*---------------------------------------------------------------------------*/
FoamFile
{
    version     2.0;
    format      ascii;
    class       volScalarField;
    location    "9e-05";
    object      cellCpuTimes;
}
// * * * * * * * * * * * * * * * * * * * * * * * * * * * * * * * * * * * * * //

dimensions      [0 0 0 0 0 0 0];

internalField   nonuniform List<scalar> 
500
(
9.5e-05
5.2e-05
5e-05
4.9e-05
4.8e-05
4.9e-05
4.8e-05
4.8e-05
4.9e-05
4.8e-05
4.8e-05
4.9e-05
4.8e-05
4.9e-05
4.9e-05
4.9e-05
4.9e-05
4.7e-05
4.9e-05
4.9e-05
4.8e-05
4.8e-05
4.8e-05
4.8e-05
4.8e-05
4.9e-05
4.8e-05
4.8e-05
4.8e-05
4.8e-05
4.8e-05
4.8e-05
4.8e-05
4.9e-05
4.9e-05
4.8e-05
4.8e-05
4.8e-05
4.9e-05
4.8e-05
4.8e-05
4.8e-05
4.8e-05
4.8e-05
4.9e-05
4.8e-05
4.8e-05
4.9e-05
4.8e-05
4.9e-05
4.8e-05
4.8e-05
4.8e-05
4.9e-05
4.9e-05
4.8e-05
4.8e-05
4.8e-05
4.8e-05
4.8e-05
4.8e-05
4.8e-05
4.8e-05
4.8e-05
4.8e-05
4.8e-05
4.8e-05
4.8e-05
4.8e-05
4.8e-05
4.8e-05
4.9e-05
4.8e-05
4.8e-05
4.9e-05
4.8e-05
4.8e-05
4.8e-05
4.8e-05
5.4e-05
4.9e-05
4.8e-05
4.8e-05
4.8e-05
4.8e-05
4.8e-05
4.8e-05
4.8e-05
4.8e-05
4.8e-05
4.9e-05
4.8e-05
4.8e-05
4.8e-05
4.8e-05
4.8e-05
4.7e-05
4.8e-05
4.8e-05
4.8e-05
4.8e-05
4.7e-05
4.8e-05
4.8e-05
4.8e-05
4.8e-05
4.9e-05
4.9e-05
4.8e-05
4.9e-05
4.9e-05
4.8e-05
4.8e-05
4.8e-05
4.8e-05
4.8e-05
4.8e-05
4.8e-05
4.9e-05
4.8e-05
4.8e-05
4.7e-05
4.8e-05
4.7e-05
4.8e-05
9.6e-05
5.7e-05
4.8e-05
4.8e-05
4.8e-05
4.7e-05
4.7e-05
4.7e-05
4.7e-05
4.8e-05
4.7e-05
4.7e-05
4.7e-05
4.7e-05
4.7e-05
4.7e-05
4.7e-05
4.7e-05
4.7e-05
4.7e-05
4.6e-05
4.7e-05
4.6e-05
4.7e-05
4.7e-05
4.7e-05
4.7e-05
4.6e-05
4.7e-05
4.7e-05
4.6e-05
4.8e-05
4.7e-05
4.6e-05
4.7e-05
4.6e-05
4.6e-05
4.7e-05
4.7e-05
4.6e-05
4.6e-05
4.7e-05
4.7e-05
4.6e-05
4.7e-05
4.6e-05
4.6e-05
4.7e-05
4.6e-05
4.6e-05
4.7e-05
4.7e-05
4.7e-05
4.6e-05
4.7e-05
4.7e-05
4.7e-05
4.7e-05
4.6e-05
4.7e-05
4.7e-05
4.6e-05
4.6e-05
4.7e-05
4.6e-05
4.6e-05
4.6e-05
4.7e-05
4.7e-05
4.7e-05
4.7e-05
4.6e-05
4.6e-05
4.7e-05
4.7e-05
4.6e-05
4.7e-05
4.6e-05
4.7e-05
4.7e-05
4.7e-05
5e-05
4.7e-05
4.6e-05
4.7e-05
4.7e-05
4.6e-05
4.7e-05
4.6e-05
4.6e-05
4.7e-05
4.6e-05
4.7e-05
4.6e-05
4.6e-05
4.6e-05
4.6e-05
4.7e-05
4.7e-05
4.6e-05
4.6e-05
4.6e-05
4.7e-05
4.6e-05
4.7e-05
4.6e-05
4.7e-05
4.7e-05
4.7e-05
4.7e-05
4.6e-05
4.7e-05
4.7e-05
4.7e-05
4.7e-05
4.7e-05
4.7e-05
4.6e-05
4.6e-05
4.7e-05
4.6e-05
4.6e-05
4.6e-05
4.7e-05
4.7e-05
4.7e-05
4.6e-05
4.7e-05
4.7e-05
4.7e-05
4.6e-05
4.6e-05
4.7e-05
4.6e-05
4.7e-05
4.7e-05
4.7e-05
4.6e-05
4.7e-05
4.6e-05
4.6e-05
4.7e-05
4.6e-05
4.7e-05
4.5e-05
4.6e-05
4.6e-05
4.7e-05
5.7e-05
7.1e-05
7.6e-05
0.000116
0.000136
0.000143
0.000167
0.000165
0.000175
0.000178
0.000241
0.000255
0.000277
0.00028
0.000261
0.000238
0.000227
0.000225
0.00024
0.000201
0.000208
0.000178
0.000174
0.000167
0.000156
0.000152
0.000147
0.000145
0.000151
0.000149
0.000187
0.000144
0.000138
0.000135
0.000131
0.000131
0.000131
0.000126
0.000126
0.000129
0.000126
0.000126
0.000126
0.000126
0.000127
0.000125
0.000129
0.000128
0.000128
0.000129
0.000129
0.00013
0.000131
0.000131
0.00013
0.000131
0.000133
0.000133
0.000143
0.000155
0.000145
0.00014
0.000141
0.00014
0.00014
0.00014
0.000156
0.000155
0.000151
0.000149
0.000164
0.000161
0.000149
0.000147
0.00015
0.000146
0.000142
0.000141
0.000125
0.00012
0.000121
0.000124
0.000123
0.000128
0.000121
0.000119
0.000115
0.000117
0.000118
0.000122
0.000122
0.000124
0.000124
0.000119
0.000119
0.000104
0.000104
0.000103
0.000102
0.000103
0.000102
0.000103
0.000102
0.00017
0.000109
9.6e-05
9.7e-05
9.7e-05
9e-05
8.9e-05
9.1e-05
8.7e-05
8.8e-05
8.3e-05
8.3e-05
8.4e-05
8.1e-05
7.8e-05
7.8e-05
7.5e-05
7e-05
7e-05
6.6e-05
6.6e-05
6.3e-05
6.6e-05
6.3e-05
6.2e-05
6.4e-05
6.3e-05
6.4e-05
6.3e-05
6.3e-05
6.3e-05
6.3e-05
6.4e-05
6.2e-05
6.3e-05
6.3e-05
6.3e-05
6.3e-05
6.3e-05
6.3e-05
6.4e-05
6.2e-05
6.3e-05
6.3e-05
6.2e-05
6.3e-05
6.3e-05
6.3e-05
6.2e-05
6.3e-05
6.3e-05
6.3e-05
6.3e-05
6.3e-05
6.8e-05
6.3e-05
6.3e-05
6.3e-05
6.3e-05
6.3e-05
6.6e-05
6.6e-05
6.5e-05
6.5e-05
6.6e-05
6.6e-05
6.5e-05
6.5e-05
6.5e-05
6.5e-05
6.5e-05
6.5e-05
6.6e-05
6.6e-05
6.5e-05
6.6e-05
6.6e-05
6.6e-05
6.5e-05
6.6e-05
6.5e-05
6.6e-05
6.5e-05
6.3e-05
6.4e-05
6.6e-05
6.6e-05
6.6e-05
6.6e-05
6.6e-05
6.5e-05
6.7e-05
6.5e-05
6.6e-05
6.6e-05
6.5e-05
6.6e-05
6.5e-05
6.6e-05
6.6e-05
6.6e-05
6.6e-05
6.6e-05
6.6e-05
6.6e-05
6.6e-05
6.5e-05
6.5e-05
6.6e-05
6.5e-05
6.5e-05
6.5e-05
6.6e-05
6.8e-05
6.6e-05
6.5e-05
6.6e-05
6.5e-05
6.6e-05
7.3e-05
7.2e-05
7.3e-05
7.2e-05
7.2e-05
)
;

boundaryField
{
    boundary
    {
        type            empty;
    }
    inlet
    {
        type            calculated;
        value           uniform 0;
    }
    outlet
    {
        type            calculated;
        value           uniform 0;
    }
}


// ************************************************************************* //
