/*--------------------------------*- C++ -*----------------------------------*\
  =========                 |
  \\      /  F ield         | OpenFOAM: The Open Source CFD Toolbox
   \\    /   O peration     | Website:  https://openfoam.org
    \\  /    A nd           | Version:  7
     \\/     M anipulation  |
\*---------------------------------------------------------------------------*/
FoamFile
{
    version     2.0;
    format      ascii;
    class       volScalarField;
    location    "9e-05";
    object      H;
}
// * * * * * * * * * * * * * * * * * * * * * * * * * * * * * * * * * * * * * //

dimensions      [0 0 0 0 0 0 0];

internalField   nonuniform List<scalar> 
500
(
1.518e-41
2.11742e-41
2.3311e-41
2.48109e-41
2.62656e-41
2.76842e-41
2.89715e-41
3.005e-41
3.08882e-41
3.14959e-41
3.19091e-41
3.21741e-41
3.2335e-41
3.24277e-41
3.24786e-41
3.25051e-41
3.25183e-41
3.25243e-41
3.25267e-41
3.25274e-41
3.25272e-41
3.25267e-41
3.25259e-41
3.2525e-41
3.25241e-41
3.25231e-41
3.25221e-41
3.25211e-41
3.252e-41
3.25189e-41
3.25178e-41
3.25166e-41
3.25154e-41
3.25142e-41
3.25129e-41
3.25117e-41
3.25104e-41
3.2509e-41
3.25077e-41
3.25063e-41
3.25049e-41
3.25035e-41
3.25021e-41
3.25007e-41
3.24992e-41
3.24978e-41
3.24963e-41
3.24948e-41
3.24933e-41
3.24918e-41
3.24902e-41
3.24887e-41
3.24872e-41
3.24856e-41
3.24841e-41
3.24826e-41
3.2481e-41
3.24795e-41
3.24779e-41
3.24764e-41
3.24749e-41
3.24734e-41
3.24719e-41
3.24704e-41
3.24689e-41
3.24674e-41
3.2466e-41
3.24646e-41
3.24632e-41
3.24618e-41
3.24604e-41
3.24591e-41
3.24577e-41
3.24564e-41
3.24552e-41
3.2454e-41
3.24528e-41
3.24516e-41
3.24505e-41
3.24494e-41
3.24483e-41
3.24473e-41
3.24463e-41
3.24454e-41
3.24445e-41
3.24436e-41
3.24428e-41
3.24421e-41
3.24414e-41
3.24407e-41
3.24401e-41
3.24396e-41
3.24391e-41
3.24386e-41
3.24382e-41
3.24379e-41
3.24376e-41
3.24374e-41
3.24372e-41
3.24371e-41
3.24371e-41
3.24371e-41
3.24372e-41
3.24373e-41
3.24375e-41
3.24378e-41
3.24381e-41
3.24385e-41
3.2439e-41
3.24395e-41
3.24401e-41
3.24407e-41
3.24414e-41
3.24422e-41
3.2443e-41
3.24439e-41
3.24448e-41
3.24458e-41
3.24469e-41
3.2448e-41
3.24491e-41
3.24501e-41
3.24509e-41
3.24513e-41
3.2451e-41
3.24503e-41
3.24499e-41
3.24505e-41
3.24523e-41
3.24551e-41
3.24583e-41
3.24615e-41
3.24644e-41
3.24671e-41
3.24694e-41
3.24716e-41
3.24735e-41
3.24754e-41
3.24773e-41
3.24791e-41
3.24809e-41
3.24827e-41
3.24844e-41
3.24861e-41
3.24878e-41
3.24895e-41
3.24911e-41
3.24927e-41
3.24942e-41
3.24957e-41
3.2497e-41
3.24983e-41
3.24996e-41
3.25007e-41
3.25017e-41
3.25027e-41
3.25035e-41
3.25042e-41
3.25047e-41
3.25051e-41
3.25053e-41
3.25054e-41
3.25053e-41
3.2505e-41
3.25045e-41
3.25038e-41
3.25029e-41
3.25017e-41
3.25003e-41
3.24987e-41
3.24967e-41
3.24945e-41
3.2492e-41
3.24892e-41
3.24861e-41
3.24826e-41
3.24788e-41
3.24747e-41
3.24701e-41
3.24652e-41
3.24599e-41
3.24542e-41
3.24481e-41
3.24415e-41
3.24345e-41
3.24271e-41
3.24192e-41
3.24108e-41
3.24019e-41
3.23925e-41
3.23826e-41
3.23722e-41
3.23613e-41
3.23498e-41
3.23378e-41
3.23253e-41
3.23122e-41
3.22985e-41
3.22843e-41
3.22695e-41
3.22541e-41
3.22382e-41
3.22216e-41
3.22045e-41
3.21869e-41
3.21686e-41
3.21498e-41
3.21304e-41
3.21105e-41
3.209e-41
3.2069e-41
3.20474e-41
3.20253e-41
3.20027e-41
3.19796e-41
3.19559e-41
3.19319e-41
3.19073e-41
3.18823e-41
3.18569e-41
3.1831e-41
3.18048e-41
3.17782e-41
3.17512e-41
3.17239e-41
3.16963e-41
3.16684e-41
3.16402e-41
3.16118e-41
3.15831e-41
3.15543e-41
3.15257e-41
3.15001e-41
3.14969e-41
3.1657e-41
3.3005e-41
4.29921e-41
1.15852e-40
6.46409e-40
4.50793e-39
3.25885e-38
2.36468e-37
1.71321e-36
1.23744e-35
8.9016e-35
6.3711e-34
4.53262e-33
3.20242e-32
2.24515e-31
1.56076e-30
1.07518e-29
7.40791e-29
5.00179e-28
3.33938e-27
2.20149e-26
1.43191e-25
9.18188e-25
5.80036e-24
3.60752e-23
2.20778e-22
1.32897e-21
7.86642e-21
4.57853e-20
2.62113e-19
1.47701e-18
8.20356e-18
4.50116e-17
2.4482e-16
1.3266e-15
7.21094e-15
3.96688e-14
2.23227e-13
1.35773e-12
9.77458e-12
8.64039e-11
8.11861e-10
7.60923e-09
7.11993e-08
6.40045e-07
5.08995e-06
3.12387e-05
0.000125244
0.00031704
0.000595382
0.000936795
0.00129327
0.00159534
0.0017962
0.00189412
0.00191387
0.00188398
0.00182665
0.00175653
0.00168232
0.00160883
0.00153848
0.00147231
0.00141058
0.00135316
0.00129972
0.00124988
0.00120322
0.00115933
0.00111786
0.00107846
0.00104087
0.00100482
0.000970097
0.000936525
0.000903949
0.000872246
0.000841315
0.000811963
0.000783888
0.000756228
0.000728968
0.000702101
0.000675629
0.000649561
0.000623911
0.000598699
0.000573949
0.000549686
0.000525938
0.000502734
0.000480102
0.000458069
0.000436662
0.000415904
0.000395818
0.000376422
0.000357733
0.000339762
0.00032252
0.000306013
0.000290244
0.000275212
0.000260914
0.000247343
0.000234489
0.000222342
0.000210886
0.000200105
0.00018998
0.00018049
0.000171616
0.000163333
0.000155618
0.000148446
0.000141793
0.000135634
0.000129943
0.000124695
0.000119865
0.000115429
0.000111363
0.000107644
0.000104248
0.000101154
9.834e-05
9.57868e-05
9.34744e-05
9.13845e-05
8.94992e-05
8.78021e-05
8.62772e-05
8.49096e-05
8.36853e-05
8.25911e-05
8.16145e-05
8.07441e-05
7.99692e-05
7.928e-05
7.8668e-05
7.81261e-05
7.76503e-05
7.72425e-05
7.68933e-05
7.65932e-05
7.63354e-05
7.61143e-05
7.59252e-05
7.57639e-05
7.56268e-05
7.55107e-05
7.54127e-05
7.53302e-05
7.5261e-05
7.52032e-05
7.51551e-05
7.51151e-05
7.5082e-05
7.50547e-05
7.50322e-05
7.50137e-05
7.49986e-05
7.49863e-05
7.49762e-05
7.4968e-05
7.49613e-05
7.4956e-05
7.49517e-05
7.49482e-05
7.49454e-05
7.49432e-05
7.49414e-05
7.494e-05
7.49389e-05
7.4938e-05
7.49373e-05
7.49367e-05
7.49363e-05
7.4936e-05
7.49357e-05
7.49355e-05
7.49353e-05
7.49352e-05
7.49351e-05
7.4935e-05
7.49349e-05
7.49348e-05
7.49348e-05
7.49347e-05
7.49347e-05
7.49346e-05
7.49346e-05
7.49345e-05
7.49345e-05
7.49344e-05
7.49344e-05
7.49343e-05
7.49343e-05
7.49342e-05
7.49342e-05
7.49341e-05
7.4934e-05
7.4934e-05
7.49339e-05
7.49338e-05
7.49338e-05
7.49337e-05
7.49336e-05
7.49336e-05
7.49335e-05
7.49334e-05
7.49333e-05
7.49333e-05
7.49332e-05
7.49331e-05
7.4933e-05
7.49329e-05
7.49329e-05
7.49328e-05
7.49327e-05
7.49326e-05
7.49325e-05
7.49324e-05
7.49323e-05
7.49323e-05
7.49322e-05
7.49321e-05
7.4932e-05
7.49319e-05
7.49318e-05
7.49317e-05
7.49316e-05
7.49315e-05
7.49314e-05
7.49313e-05
7.49312e-05
7.49311e-05
7.4931e-05
7.49309e-05
7.49308e-05
7.49307e-05
7.49306e-05
7.49305e-05
7.49304e-05
7.49303e-05
7.49302e-05
7.49301e-05
7.493e-05
7.49299e-05
7.49297e-05
7.49296e-05
7.49295e-05
7.49294e-05
7.49293e-05
7.49292e-05
7.49291e-05
7.49289e-05
7.49288e-05
7.49287e-05
7.49286e-05
7.49285e-05
7.49284e-05
7.49283e-05
7.49282e-05
7.49282e-05
7.49281e-05
)
;

boundaryField
{
    boundary
    {
        type            empty;
    }
    inlet
    {
        type            fixedValue;
        value           uniform 0;
    }
    outlet
    {
        type            zeroGradient;
    }
}


// ************************************************************************* //
