/*--------------------------------*- C++ -*----------------------------------*\
  =========                 |
  \\      /  F ield         | OpenFOAM: The Open Source CFD Toolbox
   \\    /   O peration     | Website:  https://openfoam.org
    \\  /    A nd           | Version:  7
     \\/     M anipulation  |
\*---------------------------------------------------------------------------*/
FoamFile
{
    version     2.0;
    format      ascii;
    class       volScalarField;
    location    "9e-05";
    object      H2;
}
// * * * * * * * * * * * * * * * * * * * * * * * * * * * * * * * * * * * * * //

dimensions      [0 0 0 0 0 0 0];

internalField   nonuniform List<scalar> 
500
(
0.0285116
0.0285116
0.0285116
0.0285116
0.0285116
0.0285116
0.0285116
0.0285116
0.0285116
0.0285116
0.0285116
0.0285116
0.0285116
0.0285116
0.0285116
0.0285116
0.0285116
0.0285116
0.0285116
0.0285116
0.0285116
0.0285116
0.0285116
0.0285116
0.0285116
0.0285116
0.0285116
0.0285116
0.0285116
0.0285116
0.0285116
0.0285116
0.0285116
0.0285116
0.0285116
0.0285116
0.0285116
0.0285116
0.0285116
0.0285116
0.0285116
0.0285116
0.0285116
0.0285116
0.0285116
0.0285116
0.0285116
0.0285116
0.0285116
0.0285116
0.0285116
0.0285116
0.0285116
0.0285116
0.0285116
0.0285116
0.0285116
0.0285116
0.0285116
0.0285116
0.0285116
0.0285116
0.0285116
0.0285116
0.0285116
0.0285116
0.0285116
0.0285116
0.0285116
0.0285116
0.0285116
0.0285116
0.0285116
0.0285116
0.0285116
0.0285116
0.0285116
0.0285116
0.0285116
0.0285116
0.0285116
0.0285116
0.0285116
0.0285116
0.0285116
0.0285116
0.0285116
0.0285116
0.0285116
0.0285116
0.0285116
0.0285116
0.0285116
0.0285116
0.0285116
0.0285116
0.0285116
0.0285116
0.0285116
0.0285116
0.0285116
0.0285116
0.0285116
0.0285116
0.0285116
0.0285116
0.0285116
0.0285116
0.0285116
0.0285116
0.0285116
0.0285116
0.0285116
0.0285116
0.0285116
0.0285116
0.0285116
0.0285116
0.0285116
0.0285116
0.0285116
0.0285116
0.0285116
0.0285116
0.0285116
0.0285116
0.0285116
0.0285116
0.0285116
0.0285116
0.0285116
0.0285116
0.0285116
0.0285116
0.0285116
0.0285116
0.0285116
0.0285116
0.0285116
0.0285116
0.0285116
0.0285116
0.0285116
0.0285116
0.0285116
0.0285116
0.0285116
0.0285116
0.0285116
0.0285116
0.0285116
0.0285116
0.0285116
0.0285116
0.0285116
0.0285116
0.0285116
0.0285116
0.0285116
0.0285116
0.0285116
0.0285116
0.0285116
0.0285116
0.0285116
0.0285116
0.0285116
0.0285116
0.0285116
0.0285116
0.0285116
0.0285116
0.0285116
0.0285116
0.0285116
0.0285116
0.0285116
0.0285116
0.0285116
0.0285116
0.0285116
0.0285116
0.0285116
0.0285116
0.0285116
0.0285116
0.0285116
0.0285116
0.0285116
0.0285116
0.0285116
0.0285116
0.0285116
0.0285116
0.0285116
0.0285116
0.0285116
0.0285116
0.0285116
0.0285116
0.0285116
0.0285116
0.0285116
0.0285116
0.0285116
0.0285116
0.0285116
0.0285116
0.0285116
0.0285116
0.0285116
0.0285116
0.0285116
0.0285116
0.0285116
0.0285116
0.0285116
0.0285116
0.0285116
0.0285116
0.0285116
0.0285116
0.0285116
0.0285116
0.0285116
0.0285116
0.0285116
0.0285116
0.0285116
0.0285116
0.0285116
0.0285116
0.0285116
0.0285116
0.0285116
0.0285116
0.0285116
0.0285116
0.0285116
0.0285116
0.0285116
0.0285116
0.0285116
0.0285116
0.0285116
0.0285116
0.0285116
0.0285116
0.0285116
0.0285116
0.0285116
0.0285116
0.0285116
0.0285116
0.0285116
0.0285116
0.0285116
0.0285116
0.0285116
0.0285116
0.0285116
0.0285116
0.0285116
0.0285116
0.0285116
0.0285116
0.0285116
0.0285116
0.0285115
0.0285113
0.0285109
0.0285097
0.0285065
0.0284985
0.028479
0.0284331
0.0283292
0.0281042
0.0276447
0.0267865
0.0253688
0.0233459
0.020873
0.0180851
0.0150738
0.0120782
0.00946093
0.00746057
0.00608032
0.00518876
0.0046351
0.0042991
0.00409796
0.00397868
0.00390862
0.00386805
0.00384522
0.00383313
0.00382761
0.00382616
0.00382722
0.00382978
0.00383316
0.00383684
0.00384039
0.00384342
0.00384559
0.00384653
0.0038459
0.00384338
0.00383865
0.0038314
0.00382169
0.00380957
0.00379455
0.00377644
0.00375507
0.00373031
0.00370206
0.00367027
0.00363491
0.00359599
0.00355356
0.0035077
0.00345853
0.00340619
0.00335086
0.00329273
0.00323203
0.003169
0.00310391
0.00303704
0.00296867
0.0028991
0.00282863
0.00275758
0.00268624
0.00261492
0.0025439
0.00247348
0.00240392
0.00233549
0.00226843
0.00220295
0.00213927
0.00207755
0.00201797
0.00196065
0.0019057
0.00185322
0.00180326
0.00175588
0.0017111
0.00166891
0.00162929
0.00159223
0.00155766
0.00152552
0.00149574
0.00146823
0.0014429
0.00141964
0.00139836
0.00137894
0.00136127
0.00134523
0.00133072
0.00131762
0.00130581
0.00129519
0.00128565
0.00127707
0.00126935
0.00126237
0.00125601
0.00125013
0.00124586
0.00124221
0.00123901
0.00123624
0.00123384
0.00123178
0.00123001
0.00122851
0.00122724
0.00122617
0.00122527
0.00122452
0.00122389
0.00122337
0.00122294
0.00122258
0.00122229
0.00122204
0.00122185
0.00122168
0.00122155
0.00122144
0.00122136
0.00122129
0.00122123
0.00122119
0.00122115
0.00122112
0.0012211
0.00122109
0.00122107
0.00122106
0.00122106
0.00122105
0.00122105
0.00122105
0.00122105
0.00122105
0.00122105
0.00122105
0.00122105
0.00122105
0.00122105
0.00122106
0.00122106
0.00122106
0.00122106
0.00122107
0.00122107
0.00122107
0.00122107
0.00122107
0.00122108
0.00122108
0.00122108
0.00122108
0.00122109
0.00122109
0.00122109
0.00122109
0.00122109
0.0012211
0.0012211
0.0012211
0.0012211
0.0012211
0.00122111
0.00122111
0.00122111
0.00122111
0.00122111
0.00122111
0.00122112
0.00122112
0.00122112
0.00122112
0.00122112
0.00122112
0.00122113
0.00122113
0.00122113
0.00122113
0.00122113
0.00122113
0.00122113
0.00122113
0.00122114
0.00122114
0.00122114
0.00122114
0.00122114
0.00122114
0.00122114
0.00122114
0.00122114
0.00122114
0.00122114
0.00122114
0.00122114
0.00122114
0.00122114
0.00122115
0.00122115
0.00122115
0.00122115
0.00122115
0.00122115
0.00122115
0.00122115
0.00122115
0.00122115
0.00122115
0.00122115
0.00122115
0.00122114
0.00122114
0.00122114
0.00122114
0.00122114
0.00122114
0.00122114
0.00122114
0.00122114
0.00122114
)
;

boundaryField
{
    boundary
    {
        type            empty;
    }
    inlet
    {
        type            fixedValue;
        value           uniform 0.0285116;
    }
    outlet
    {
        type            zeroGradient;
    }
}


// ************************************************************************* //
