/*--------------------------------*- C++ -*----------------------------------*\
  =========                 |
  \\      /  F ield         | OpenFOAM: The Open Source CFD Toolbox
   \\    /   O peration     | Website:  https://openfoam.org
    \\  /    A nd           | Version:  7
     \\/     M anipulation  |
\*---------------------------------------------------------------------------*/
FoamFile
{
    version     2.0;
    format      ascii;
    class       volScalarField;
    location    "9e-05";
    object      H2O;
}
// * * * * * * * * * * * * * * * * * * * * * * * * * * * * * * * * * * * * * //

dimensions      [0 0 0 0 0 0 0];

internalField   nonuniform List<scalar> 
500
(
8.32022e-48
2.43883e-47
4.40999e-47
6.562e-47
8.713e-47
1.07031e-46
1.2417e-46
1.37966e-46
1.48381e-46
1.55782e-46
1.60747e-46
1.63904e-46
1.65811e-46
1.66909e-46
1.67514e-46
1.67833e-46
1.67995e-46
1.68074e-46
1.6811e-46
1.68126e-46
1.68133e-46
1.68135e-46
1.68136e-46
1.68135e-46
1.68134e-46
1.68133e-46
1.68132e-46
1.68131e-46
1.68129e-46
1.68128e-46
1.68127e-46
1.68125e-46
1.68124e-46
1.68123e-46
1.68121e-46
1.6812e-46
1.68119e-46
1.68117e-46
1.68116e-46
1.68115e-46
1.68113e-46
1.68112e-46
1.68111e-46
1.6811e-46
1.68108e-46
1.68107e-46
1.68106e-46
1.68105e-46
1.68104e-46
1.68103e-46
1.68102e-46
1.68102e-46
1.68101e-46
1.681e-46
1.681e-46
1.68099e-46
1.68099e-46
1.68098e-46
1.68098e-46
1.68098e-46
1.68098e-46
1.68098e-46
1.68098e-46
1.68099e-46
1.68099e-46
1.681e-46
1.681e-46
1.68101e-46
1.68102e-46
1.68103e-46
1.68105e-46
1.68106e-46
1.68108e-46
1.68109e-46
1.68111e-46
1.68113e-46
1.68115e-46
1.68118e-46
1.6812e-46
1.68123e-46
1.68126e-46
1.68129e-46
1.68132e-46
1.68135e-46
1.68139e-46
1.68142e-46
1.68146e-46
1.6815e-46
1.68155e-46
1.68159e-46
1.68164e-46
1.68169e-46
1.68174e-46
1.68179e-46
1.68184e-46
1.6819e-46
1.68196e-46
1.68202e-46
1.68208e-46
1.68214e-46
1.68221e-46
1.68228e-46
1.68235e-46
1.68242e-46
1.6825e-46
1.68257e-46
1.68265e-46
1.68273e-46
1.68281e-46
1.68289e-46
1.68298e-46
1.68306e-46
1.68315e-46
1.68324e-46
1.68333e-46
1.68342e-46
1.68352e-46
1.68361e-46
1.6837e-46
1.68378e-46
1.68379e-46
1.68356e-46
1.68247e-46
1.67831e-46
1.66309e-46
1.63606e-46
1.6391e-46
1.64423e-46
1.65095e-46
1.65832e-46
1.66539e-46
1.67148e-46
1.67625e-46
1.67971e-46
1.68207e-46
1.6836e-46
1.68454e-46
1.68512e-46
1.68548e-46
1.6857e-46
1.68586e-46
1.68598e-46
1.68608e-46
1.68617e-46
1.68625e-46
1.68632e-46
1.68639e-46
1.68646e-46
1.68652e-46
1.68657e-46
1.68661e-46
1.68665e-46
1.68669e-46
1.68671e-46
1.68673e-46
1.68674e-46
1.68674e-46
1.68673e-46
1.68671e-46
1.68667e-46
1.68663e-46
1.68658e-46
1.68651e-46
1.68643e-46
1.68633e-46
1.68622e-46
1.6861e-46
1.68596e-46
1.6858e-46
1.68563e-46
1.68544e-46
1.68523e-46
1.685e-46
1.68475e-46
1.68447e-46
1.68418e-46
1.68386e-46
1.68353e-46
1.68316e-46
1.68277e-46
1.68236e-46
1.68192e-46
1.68146e-46
1.68096e-46
1.68044e-46
1.67989e-46
1.6793e-46
1.67869e-46
1.67805e-46
1.67737e-46
1.67667e-46
1.67593e-46
1.67515e-46
1.67435e-46
1.6735e-46
1.67263e-46
1.67171e-46
1.67077e-46
1.66978e-46
1.66876e-46
1.6677e-46
1.66661e-46
1.66548e-46
1.66432e-46
1.66311e-46
1.66187e-46
1.6606e-46
1.65928e-46
1.65793e-46
1.65655e-46
1.65513e-46
1.65367e-46
1.65219e-46
1.65066e-46
1.64911e-46
1.64752e-46
1.6459e-46
1.64425e-46
1.64256e-46
1.64085e-46
1.63911e-46
1.63735e-46
1.63556e-46
1.63374e-46
1.6319e-46
1.63004e-46
1.62821e-46
1.62692e-46
1.63138e-46
1.69575e-46
2.38145e-46
9.47269e-46
8.20868e-45
8.19064e-44
8.23097e-43
8.21009e-42
8.11873e-41
7.96092e-40
7.74293e-39
7.47094e-38
7.14996e-37
6.78361e-36
6.37467e-35
5.92647e-34
5.4447e-33
4.93901e-32
4.42345e-31
3.91525e-30
3.43179e-29
2.98686e-28
2.58821e-27
2.61176e-26
2.30677e-25
2.00961e-24
1.74374e-23
1.50593e-22
1.29236e-21
1.09991e-20
9.26309e-20
7.70092e-19
6.30478e-18
5.07114e-17
3.99809e-16
3.0829e-15
2.32019e-14
1.70094e-13
1.21236e-12
8.38595e-12
5.61903e-11
3.6405e-10
2.27628e-09
1.3708e-08
7.93267e-08
4.40032e-07
2.33299e-06
1.17781e-05
5.62926e-05
0.000251835
0.0010283
0.00363896
0.0103338
0.0225001
0.038852
0.0586514
0.0822958
0.108471
0.133515
0.154148
0.169427
0.180116
0.187471
0.192601
0.196309
0.199125
0.201384
0.20329
0.204967
0.20649
0.207901
0.209225
0.210478
0.211667
0.212797
0.21387
0.21489
0.215857
0.216773
0.217642
0.218464
0.219245
0.219986
0.220692
0.221346
0.221965
0.222565
0.223151
0.223726
0.224291
0.224851
0.225407
0.22596
0.226513
0.227065
0.227618
0.228171
0.228725
0.229277
0.229827
0.230374
0.230917
0.231452
0.231979
0.232496
0.233001
0.233492
0.233968
0.234427
0.234868
0.23529
0.235692
0.236073
0.236432
0.23677
0.237087
0.237382
0.237656
0.237909
0.238142
0.238356
0.238552
0.23873
0.238892
0.239038
0.23917
0.239288
0.239394
0.239488
0.239573
0.239648
0.239714
0.239773
0.239824
0.23987
0.23991
0.239945
0.239975
0.240002
0.240025
0.240046
0.240063
0.240079
0.240092
0.240103
0.240114
0.240123
0.240132
0.240141
0.240145
0.240148
0.240151
0.240154
0.240157
0.240159
0.240161
0.240163
0.240164
0.240165
0.240166
0.240167
0.240168
0.240169
0.240169
0.24017
0.24017
0.24017
0.240171
0.240171
0.240171
0.240171
0.240171
0.240171
0.240171
0.240171
0.240171
0.240171
0.240171
0.240171
0.240171
0.240171
0.240171
0.240171
0.240171
0.240171
0.240171
0.240171
0.240171
0.240171
0.240171
0.240171
0.24017
0.24017
0.24017
0.24017
0.24017
0.24017
0.24017
0.24017
0.24017
0.24017
0.24017
0.24017
0.24017
0.24017
0.24017
0.24017
0.24017
0.24017
0.24017
0.24017
0.24017
0.24017
0.24017
0.24017
0.24017
0.24017
0.24017
0.24017
0.240169
0.240169
0.240169
0.240169
0.240169
0.240169
0.240169
0.240169
0.240169
0.240169
0.240169
0.240169
0.240169
0.240169
0.240169
0.240169
0.240169
0.240169
0.240169
0.240169
0.240169
0.240169
0.240169
0.240169
0.240169
0.240169
0.240169
0.240169
0.240169
0.240169
0.240169
0.240169
0.240169
0.240169
0.240169
0.240169
0.240169
0.240169
0.240169
0.240169
0.240169
0.240169
0.240169
0.240169
0.240169
0.240169
0.240169
0.240169
0.240169
0.240169
0.240169
0.240169
0.240169
)
;

boundaryField
{
    boundary
    {
        type            empty;
    }
    inlet
    {
        type            fixedValue;
        value           uniform 0;
    }
    outlet
    {
        type            zeroGradient;
    }
}


// ************************************************************************* //
