/*--------------------------------*- C++ -*----------------------------------*\
  =========                 |
  \\      /  F ield         | OpenFOAM: The Open Source CFD Toolbox
   \\    /   O peration     | Website:  https://openfoam.org
    \\  /    A nd           | Version:  7
     \\/     M anipulation  |
\*---------------------------------------------------------------------------*/
FoamFile
{
    version     2.0;
    format      ascii;
    class       volScalarField;
    location    "9e-05";
    object      H2O2;
}
// * * * * * * * * * * * * * * * * * * * * * * * * * * * * * * * * * * * * * //

dimensions      [0 0 0 0 0 0 0];

internalField   nonuniform List<scalar> 
500
(
1.98513e-52
6.31163e-52
1.22433e-51
1.93236e-51
2.69121e-51
3.43152e-51
4.09436e-51
4.64253e-51
5.06362e-51
5.36565e-51
5.56892e-51
5.69786e-51
5.77529e-51
5.81946e-51
5.84348e-51
5.85598e-51
5.86221e-51
5.86519e-51
5.86657e-51
5.86717e-51
5.86743e-51
5.86753e-51
5.86756e-51
5.86757e-51
5.86756e-51
5.86755e-51
5.86754e-51
5.86753e-51
5.86752e-51
5.86751e-51
5.8675e-51
5.86749e-51
5.86749e-51
5.86748e-51
5.86747e-51
5.86747e-51
5.86747e-51
5.86747e-51
5.86747e-51
5.86747e-51
5.86747e-51
5.86748e-51
5.86749e-51
5.8675e-51
5.86752e-51
5.86753e-51
5.86755e-51
5.86757e-51
5.8676e-51
5.86763e-51
5.86766e-51
5.8677e-51
5.86774e-51
5.86778e-51
5.86783e-51
5.86788e-51
5.86794e-51
5.868e-51
5.86807e-51
5.86814e-51
5.86821e-51
5.86829e-51
5.86838e-51
5.86847e-51
5.86857e-51
5.86867e-51
5.86878e-51
5.8689e-51
5.86902e-51
5.86914e-51
5.86928e-51
5.86942e-51
5.86956e-51
5.86972e-51
5.86988e-51
5.87004e-51
5.87022e-51
5.8704e-51
5.87059e-51
5.87079e-51
5.87099e-51
5.8712e-51
5.87142e-51
5.87165e-51
5.87188e-51
5.87213e-51
5.87238e-51
5.87264e-51
5.87291e-51
5.87318e-51
5.87347e-51
5.87376e-51
5.87406e-51
5.87437e-51
5.87469e-51
5.87502e-51
5.87535e-51
5.8757e-51
5.87605e-51
5.87641e-51
5.87678e-51
5.87716e-51
5.87755e-51
5.87794e-51
5.87835e-51
5.87876e-51
5.87918e-51
5.87961e-51
5.88005e-51
5.88049e-51
5.88095e-51
5.88141e-51
5.88188e-51
5.88235e-51
5.88283e-51
5.88332e-51
5.88382e-51
5.88432e-51
5.88481e-51
5.88526e-51
5.8855e-51
5.88483e-51
5.88052e-51
5.86212e-51
5.78982e-51
5.65118e-51
5.66293e-51
5.68778e-51
5.72205e-51
5.76012e-51
5.79656e-51
5.82753e-51
5.85137e-51
5.86825e-51
5.8794e-51
5.88638e-51
5.8906e-51
5.89313e-51
5.89468e-51
5.89571e-51
5.89647e-51
5.89708e-51
5.89762e-51
5.89813e-51
5.89861e-51
5.89906e-51
5.8995e-51
5.89993e-51
5.90033e-51
5.90071e-51
5.90107e-51
5.9014e-51
5.90171e-51
5.902e-51
5.90225e-51
5.90247e-51
5.90266e-51
5.90281e-51
5.90293e-51
5.90301e-51
5.90304e-51
5.90303e-51
5.90298e-51
5.90287e-51
5.90271e-51
5.9025e-51
5.90224e-51
5.90191e-51
5.90152e-51
5.90107e-51
5.90055e-51
5.89997e-51
5.8993e-51
5.89857e-51
5.89775e-51
5.89686e-51
5.89588e-51
5.89481e-51
5.89365e-51
5.8924e-51
5.89106e-51
5.88962e-51
5.88807e-51
5.88642e-51
5.88467e-51
5.8828e-51
5.88082e-51
5.87873e-51
5.87652e-51
5.8742e-51
5.87174e-51
5.86917e-51
5.86647e-51
5.86364e-51
5.86068e-51
5.85759e-51
5.85437e-51
5.85101e-51
5.84752e-51
5.84388e-51
5.84011e-51
5.83621e-51
5.83216e-51
5.82798e-51
5.82365e-51
5.81919e-51
5.81459e-51
5.80985e-51
5.80497e-51
5.79996e-51
5.79481e-51
5.78953e-51
5.78412e-51
5.77858e-51
5.77291e-51
5.76712e-51
5.76121e-51
5.75518e-51
5.74903e-51
5.74277e-51
5.73641e-51
5.72994e-51
5.72337e-51
5.7167e-51
5.70994e-51
5.70309e-51
5.69615e-51
5.68915e-51
5.68214e-51
5.67577e-51
5.67759e-51
5.79251e-51
7.58518e-51
3.49971e-50
4.55821e-49
6.89067e-48
1.04463e-46
1.5687e-45
2.32951e-44
3.4188e-43
4.95672e-42
7.09709e-41
1.00322e-39
1.39965e-38
1.92678e-37
2.61643e-36
3.50327e-35
4.62209e-34
6.00251e-33
7.66114e-32
9.59413e-31
1.4406e-29
1.73943e-28
2.04259e-27
2.35118e-26
2.65143e-25
2.92692e-24
3.1601e-23
3.33388e-22
3.43345e-21
3.44817e-20
3.37315e-19
3.2103e-18
2.96855e-17
2.6632e-16
2.31434e-15
1.94463e-14
1.57671e-13
1.23076e-12
9.22503e-12
6.61981e-11
4.53271e-10
2.95051e-09
1.81838e-08
1.05597e-07
5.73881e-07
2.87643e-06
1.27632e-05
4.4739e-05
9.84976e-05
0.000129806
0.000115164
6.53669e-05
2.79158e-05
1.11973e-05
5.66515e-06
4.43621e-06
4.65237e-06
5.24698e-06
5.81913e-06
6.23804e-06
6.48687e-06
6.59081e-06
6.58459e-06
6.49973e-06
6.36103e-06
6.18663e-06
5.98932e-06
5.77785e-06
5.5581e-06
5.33393e-06
5.10786e-06
4.88148e-06
4.65582e-06
4.43154e-06
4.20915e-06
3.9891e-06
3.77187e-06
3.55798e-06
3.3481e-06
3.14299e-06
2.94356e-06
2.75659e-06
2.57882e-06
2.4073e-06
2.24267e-06
2.08549e-06
1.93624e-06
1.79528e-06
1.66285e-06
1.53904e-06
1.42383e-06
1.31707e-06
1.21852e-06
1.12785e-06
1.04466e-06
9.68538e-07
8.9901e-07
8.35607e-07
7.77858e-07
7.25301e-07
6.77494e-07
6.34018e-07
5.94477e-07
5.58507e-07
5.2577e-07
4.95961e-07
4.68797e-07
4.44028e-07
4.21424e-07
4.0078e-07
3.81913e-07
3.64658e-07
3.48867e-07
3.34408e-07
3.21164e-07
3.09029e-07
2.97909e-07
2.8772e-07
2.78385e-07
2.69836e-07
2.6201e-07
2.54852e-07
2.4831e-07
2.42337e-07
2.36891e-07
2.31931e-07
2.27421e-07
2.23325e-07
2.19614e-07
2.16255e-07
2.13222e-07
2.10489e-07
2.0803e-07
2.05823e-07
2.03845e-07
2.02077e-07
2.005e-07
1.99095e-07
1.97848e-07
1.96742e-07
1.95763e-07
1.94899e-07
1.94135e-07
1.93448e-07
1.92779e-07
1.92192e-07
1.91854e-07
1.9151e-07
1.91194e-07
1.90914e-07
1.90672e-07
1.90463e-07
1.90285e-07
1.90134e-07
1.90006e-07
1.89898e-07
1.89807e-07
1.8973e-07
1.89666e-07
1.89612e-07
1.89567e-07
1.89529e-07
1.89498e-07
1.89471e-07
1.89449e-07
1.89431e-07
1.89415e-07
1.89402e-07
1.8939e-07
1.8938e-07
1.89372e-07
1.89364e-07
1.89357e-07
1.89351e-07
1.89345e-07
1.8934e-07
1.89335e-07
1.89331e-07
1.89326e-07
1.89322e-07
1.89318e-07
1.89314e-07
1.8931e-07
1.89306e-07
1.89303e-07
1.89299e-07
1.89295e-07
1.89292e-07
1.89288e-07
1.89284e-07
1.89281e-07
1.89277e-07
1.89274e-07
1.8927e-07
1.89267e-07
1.89263e-07
1.89259e-07
1.89256e-07
1.89252e-07
1.89249e-07
1.89245e-07
1.89242e-07
1.89238e-07
1.89235e-07
1.89231e-07
1.89228e-07
1.89225e-07
1.89221e-07
1.89218e-07
1.89214e-07
1.89211e-07
1.89208e-07
1.89204e-07
1.89201e-07
1.89198e-07
1.89194e-07
1.89191e-07
1.89188e-07
1.89185e-07
1.89182e-07
1.89179e-07
1.89175e-07
1.89172e-07
1.89169e-07
1.89166e-07
1.89163e-07
1.8916e-07
1.89157e-07
1.89155e-07
1.89152e-07
1.89149e-07
1.89146e-07
1.89143e-07
1.89141e-07
1.89138e-07
1.89136e-07
1.89133e-07
1.89131e-07
1.89128e-07
1.89126e-07
1.89123e-07
1.89121e-07
1.89119e-07
1.89117e-07
1.89114e-07
1.89112e-07
1.8911e-07
1.89108e-07
1.89106e-07
1.89104e-07
1.89102e-07
1.891e-07
1.89099e-07
1.89097e-07
1.89095e-07
1.89094e-07
1.89092e-07
1.8909e-07
1.89089e-07
1.89087e-07
1.89086e-07
1.89085e-07
1.89083e-07
1.89082e-07
1.89081e-07
1.8908e-07
1.89078e-07
1.89077e-07
1.89076e-07
)
;

boundaryField
{
    boundary
    {
        type            empty;
    }
    inlet
    {
        type            fixedValue;
        value           uniform 0;
    }
    outlet
    {
        type            zeroGradient;
    }
}


// ************************************************************************* //
