/*--------------------------------*- C++ -*----------------------------------*\
  =========                 |
  \\      /  F ield         | OpenFOAM: The Open Source CFD Toolbox
   \\    /   O peration     | Website:  https://openfoam.org
    \\  /    A nd           | Version:  7
     \\/     M anipulation  |
\*---------------------------------------------------------------------------*/
FoamFile
{
    version     2.0;
    format      ascii;
    class       volScalarField;
    location    "9e-05";
    object      HO2;
}
// * * * * * * * * * * * * * * * * * * * * * * * * * * * * * * * * * * * * * //

dimensions      [0 0 0 0 0 0 0];

internalField   nonuniform List<scalar> 
500
(
5.73558e-38
1.32766e-37
2.09847e-37
2.85902e-37
3.5734e-37
4.20676e-37
4.73477e-37
5.14834e-37
5.45298e-37
5.66445e-37
5.80312e-37
5.88927e-37
5.94013e-37
5.96874e-37
5.9841e-37
5.99201e-37
5.9959e-37
5.99775e-37
5.99858e-37
5.99893e-37
5.99907e-37
5.99911e-37
5.9991e-37
5.99908e-37
5.99905e-37
5.99902e-37
5.99899e-37
5.99895e-37
5.99891e-37
5.99888e-37
5.99884e-37
5.9988e-37
5.99876e-37
5.99872e-37
5.99868e-37
5.99864e-37
5.9986e-37
5.99856e-37
5.99852e-37
5.99848e-37
5.99844e-37
5.9984e-37
5.99836e-37
5.99832e-37
5.99828e-37
5.99824e-37
5.9982e-37
5.99817e-37
5.99813e-37
5.9981e-37
5.99807e-37
5.99804e-37
5.99801e-37
5.99798e-37
5.99796e-37
5.99793e-37
5.99791e-37
5.99789e-37
5.99787e-37
5.99786e-37
5.99785e-37
5.99784e-37
5.99783e-37
5.99783e-37
5.99782e-37
5.99783e-37
5.99783e-37
5.99784e-37
5.99785e-37
5.99786e-37
5.99788e-37
5.9979e-37
5.99793e-37
5.99796e-37
5.99799e-37
5.99803e-37
5.99807e-37
5.99811e-37
5.99816e-37
5.99822e-37
5.99827e-37
5.99834e-37
5.9984e-37
5.99848e-37
5.99855e-37
5.99864e-37
5.99872e-37
5.99881e-37
5.99891e-37
5.99901e-37
5.99912e-37
5.99923e-37
5.99935e-37
5.99947e-37
5.99959e-37
5.99973e-37
5.99986e-37
6.00001e-37
6.00015e-37
6.00031e-37
6.00047e-37
6.00063e-37
6.0008e-37
6.00097e-37
6.00115e-37
6.00134e-37
6.00153e-37
6.00172e-37
6.00192e-37
6.00212e-37
6.00233e-37
6.00254e-37
6.00276e-37
6.00298e-37
6.00321e-37
6.00344e-37
6.00367e-37
6.0039e-37
6.00413e-37
6.00434e-37
6.00443e-37
6.00403e-37
6.00165e-37
5.99153e-37
5.95173e-37
5.87613e-37
5.88333e-37
5.89751e-37
5.91651e-37
5.93724e-37
5.95685e-37
5.97338e-37
5.98602e-37
5.99492e-37
6.00077e-37
6.0044e-37
6.00658e-37
6.00786e-37
6.00862e-37
6.00911e-37
6.00945e-37
6.00971e-37
6.00993e-37
6.01013e-37
6.01031e-37
6.01048e-37
6.01063e-37
6.01076e-37
6.01088e-37
6.01098e-37
6.01107e-37
6.01114e-37
6.01118e-37
6.01121e-37
6.01121e-37
6.01118e-37
6.01113e-37
6.01106e-37
6.01095e-37
6.01082e-37
6.01065e-37
6.01045e-37
6.01021e-37
6.00993e-37
6.00962e-37
6.00927e-37
6.00887e-37
6.00843e-37
6.00794e-37
6.0074e-37
6.00681e-37
6.00617e-37
6.00548e-37
6.00472e-37
6.00391e-37
6.00304e-37
6.00211e-37
6.00111e-37
6.00005e-37
5.99891e-37
5.99771e-37
5.99643e-37
5.99507e-37
5.99364e-37
5.99213e-37
5.99054e-37
5.98887e-37
5.98711e-37
5.98527e-37
5.98333e-37
5.98131e-37
5.9792e-37
5.97699e-37
5.97469e-37
5.97229e-37
5.9698e-37
5.9672e-37
5.96451e-37
5.96172e-37
5.95883e-37
5.95584e-37
5.95275e-37
5.94955e-37
5.94625e-37
5.94285e-37
5.93935e-37
5.93575e-37
5.93205e-37
5.92825e-37
5.92435e-37
5.92035e-37
5.91625e-37
5.91206e-37
5.90777e-37
5.9034e-37
5.89893e-37
5.89438e-37
5.88974e-37
5.88501e-37
5.88021e-37
5.87533e-37
5.87037e-37
5.86534e-37
5.86024e-37
5.85507e-37
5.84985e-37
5.84456e-37
5.83922e-37
5.83386e-37
5.82865e-37
5.82466e-37
5.82837e-37
5.87955e-37
6.22102e-37
8.32957e-37
2.11324e-36
9.81874e-36
5.57897e-35
3.27372e-34
1.91481e-33
1.10934e-32
6.36223e-32
3.61602e-31
2.04069e-30
1.14628e-29
6.42382e-29
3.59844e-28
2.01738e-27
1.13265e-26
6.37012e-26
3.5882e-25
2.10179e-24
1.19924e-23
6.82472e-23
3.90695e-22
2.25526e-21
1.31505e-20
7.76038e-20
4.64272e-19
2.81948e-18
1.73873e-17
1.08778e-16
6.88618e-16
4.3928e-15
2.80855e-14
1.7886e-13
1.1273e-12
6.98783e-12
4.23543e-11
2.49707e-10
1.42531e-09
7.84335e-09
4.14287e-08
2.09076e-07
1.0019e-06
4.51774e-06
1.88606e-05
7.02747e-05
0.000214928
0.000443899
0.00052055
0.000451278
0.000338681
0.00024016
0.000168236
0.000117458
8.17526e-05
5.7349e-05
4.12805e-05
3.09249e-05
2.42458e-05
1.98507e-05
1.68583e-05
1.47321e-05
1.31508e-05
1.19213e-05
1.09265e-05
1.00938e-05
9.37719e-06
8.74671e-06
8.18223e-06
7.66991e-06
7.19998e-06
6.76543e-06
6.36113e-06
5.9833e-06
5.62914e-06
5.2966e-06
4.98416e-06
4.6907e-06
4.41548e-06
4.15802e-06
3.92521e-06
3.71069e-06
3.50982e-06
3.32245e-06
3.14838e-06
2.98743e-06
2.83936e-06
2.70388e-06
2.58064e-06
2.46923e-06
2.36918e-06
2.27992e-06
2.20084e-06
2.13127e-06
2.0705e-06
2.01776e-06
1.97229e-06
1.9333e-06
1.90005e-06
1.87178e-06
1.84782e-06
1.82751e-06
1.81028e-06
1.79563e-06
1.7831e-06
1.77233e-06
1.763e-06
1.75488e-06
1.74777e-06
1.74152e-06
1.73602e-06
1.7312e-06
1.72699e-06
1.72337e-06
1.72028e-06
1.71772e-06
1.71565e-06
1.71405e-06
1.71289e-06
1.71214e-06
1.71177e-06
1.71174e-06
1.71201e-06
1.71254e-06
1.7133e-06
1.71424e-06
1.71533e-06
1.71653e-06
1.7178e-06
1.71912e-06
1.72046e-06
1.7218e-06
1.72311e-06
1.72439e-06
1.72562e-06
1.72679e-06
1.7279e-06
1.72895e-06
1.72994e-06
1.73088e-06
1.73179e-06
1.73269e-06
1.73363e-06
1.73461e-06
1.73548e-06
1.73595e-06
1.73631e-06
1.7366e-06
1.73683e-06
1.73702e-06
1.73717e-06
1.73729e-06
1.73738e-06
1.73746e-06
1.73752e-06
1.73758e-06
1.73763e-06
1.73768e-06
1.73772e-06
1.73777e-06
1.73781e-06
1.73785e-06
1.7379e-06
1.73794e-06
1.73798e-06
1.73802e-06
1.73807e-06
1.73811e-06
1.73815e-06
1.73819e-06
1.73823e-06
1.73826e-06
1.7383e-06
1.73834e-06
1.73838e-06
1.73841e-06
1.73845e-06
1.73849e-06
1.73852e-06
1.73856e-06
1.73859e-06
1.73863e-06
1.73866e-06
1.7387e-06
1.73873e-06
1.73876e-06
1.7388e-06
1.73883e-06
1.73887e-06
1.7389e-06
1.73893e-06
1.73897e-06
1.739e-06
1.73903e-06
1.73906e-06
1.7391e-06
1.73913e-06
1.73916e-06
1.73919e-06
1.73923e-06
1.73926e-06
1.73929e-06
1.73932e-06
1.73935e-06
1.73938e-06
1.73941e-06
1.73944e-06
1.73947e-06
1.7395e-06
1.73953e-06
1.73956e-06
1.73959e-06
1.73962e-06
1.73965e-06
1.73968e-06
1.7397e-06
1.73973e-06
1.73976e-06
1.73978e-06
1.73981e-06
1.73983e-06
1.73986e-06
1.73988e-06
1.73991e-06
1.73993e-06
1.73995e-06
1.73998e-06
1.74e-06
1.74002e-06
1.74004e-06
1.74006e-06
1.74008e-06
1.7401e-06
1.74012e-06
1.74014e-06
1.74016e-06
1.74017e-06
1.74019e-06
1.7402e-06
1.74022e-06
1.74023e-06
1.74025e-06
1.74026e-06
1.74027e-06
1.74028e-06
1.7403e-06
1.74031e-06
1.74032e-06
1.74033e-06
1.74033e-06
1.74034e-06
1.74035e-06
1.74036e-06
1.74036e-06
1.74037e-06
1.74037e-06
1.74038e-06
1.74038e-06
1.74038e-06
1.74038e-06
1.74038e-06
1.74039e-06
1.74039e-06
1.74039e-06
1.74039e-06
1.74038e-06
1.74038e-06
1.74038e-06
)
;

boundaryField
{
    boundary
    {
        type            empty;
    }
    inlet
    {
        type            fixedValue;
        value           uniform 0;
    }
    outlet
    {
        type            zeroGradient;
    }
}


// ************************************************************************* //
