/*--------------------------------*- C++ -*----------------------------------*\
  =========                 |
  \\      /  F ield         | OpenFOAM: The Open Source CFD Toolbox
   \\    /   O peration     | Website:  https://openfoam.org
    \\  /    A nd           | Version:  7
     \\/     M anipulation  |
\*---------------------------------------------------------------------------*/
FoamFile
{
    version     2.0;
    format      ascii;
    class       volScalarField;
    location    "9e-05";
    object      O;
}
// * * * * * * * * * * * * * * * * * * * * * * * * * * * * * * * * * * * * * //

dimensions      [0 0 0 0 0 0 0];

internalField   nonuniform List<scalar> 
500
(
1.6494e-47
4.02719e-47
6.49066e-47
8.957e-47
1.13159e-46
1.34543e-46
1.52845e-46
1.67621e-46
1.78882e-46
1.86998e-46
1.92541e-46
1.9614e-46
1.98367e-46
1.99684e-46
2.0043e-46
2.00836e-46
2.01048e-46
2.01155e-46
2.01206e-46
2.0123e-46
2.0124e-46
2.01244e-46
2.01244e-46
2.01243e-46
2.01242e-46
2.0124e-46
2.01238e-46
2.01236e-46
2.01234e-46
2.01232e-46
2.0123e-46
2.01228e-46
2.01226e-46
2.01224e-46
2.01221e-46
2.01219e-46
2.01217e-46
2.01214e-46
2.01212e-46
2.0121e-46
2.01207e-46
2.01205e-46
2.01203e-46
2.01201e-46
2.01198e-46
2.01196e-46
2.01194e-46
2.01192e-46
2.0119e-46
2.01187e-46
2.01185e-46
2.01183e-46
2.01181e-46
2.0118e-46
2.01178e-46
2.01176e-46
2.01174e-46
2.01173e-46
2.01171e-46
2.0117e-46
2.01169e-46
2.01168e-46
2.01167e-46
2.01166e-46
2.01165e-46
2.01164e-46
2.01164e-46
2.01163e-46
2.01163e-46
2.01163e-46
2.01163e-46
2.01163e-46
2.01164e-46
2.01164e-46
2.01165e-46
2.01166e-46
2.01167e-46
2.01168e-46
2.01169e-46
2.01171e-46
2.01173e-46
2.01175e-46
2.01177e-46
2.01179e-46
2.01182e-46
2.01185e-46
2.01188e-46
2.01191e-46
2.01194e-46
2.01198e-46
2.01202e-46
2.01206e-46
2.0121e-46
2.01215e-46
2.01219e-46
2.01224e-46
2.01229e-46
2.01235e-46
2.0124e-46
2.01246e-46
2.01252e-46
2.01259e-46
2.01265e-46
2.01272e-46
2.01279e-46
2.01286e-46
2.01293e-46
2.01301e-46
2.01309e-46
2.01317e-46
2.01325e-46
2.01333e-46
2.01342e-46
2.01351e-46
2.01359e-46
2.01368e-46
2.01378e-46
2.01386e-46
2.01394e-46
2.01399e-46
2.01391e-46
2.01347e-46
2.01216e-46
2.00909e-46
2.00372e-46
1.99698e-46
1.98999e-46
1.98646e-46
1.98756e-46
1.99186e-46
1.99738e-46
2.00267e-46
2.00699e-46
2.0102e-46
2.0124e-46
2.01383e-46
2.01474e-46
2.0153e-46
2.01564e-46
2.01587e-46
2.01602e-46
2.01614e-46
2.01623e-46
2.01631e-46
2.01637e-46
2.01643e-46
2.01649e-46
2.01653e-46
2.01657e-46
2.01661e-46
2.01663e-46
2.01665e-46
2.01665e-46
2.01665e-46
2.01664e-46
2.01661e-46
2.01658e-46
2.01653e-46
2.01647e-46
2.0164e-46
2.01631e-46
2.0162e-46
2.01609e-46
2.01595e-46
2.0158e-46
2.01563e-46
2.01544e-46
2.01523e-46
2.015e-46
2.01475e-46
2.01448e-46
2.01418e-46
2.01386e-46
2.01352e-46
2.01315e-46
2.01275e-46
2.01233e-46
2.01187e-46
2.01139e-46
2.01088e-46
2.01033e-46
2.00976e-46
2.00915e-46
2.00851e-46
2.00783e-46
2.00712e-46
2.00637e-46
2.00558e-46
2.00476e-46
2.0039e-46
2.003e-46
2.00206e-46
2.00108e-46
2.00005e-46
1.99899e-46
1.99788e-46
1.99673e-46
1.99554e-46
1.99431e-46
1.99303e-46
1.99171e-46
1.99034e-46
1.98893e-46
1.98747e-46
1.98598e-46
1.98443e-46
1.98285e-46
1.98122e-46
1.97955e-46
1.97783e-46
1.97607e-46
1.97428e-46
1.97244e-46
1.97056e-46
1.96864e-46
1.96668e-46
1.96469e-46
1.96265e-46
1.96059e-46
1.95849e-46
1.95635e-46
1.95419e-46
1.95199e-46
1.94977e-46
1.94752e-46
1.94532e-46
1.94379e-46
1.94897e-46
2.02107e-46
2.76335e-46
1.02164e-45
8.45721e-45
8.21161e-44
8.0553e-43
7.84208e-42
7.55925e-41
7.21166e-40
6.80864e-39
6.3612e-38
5.88048e-37
5.37664e-36
4.85833e-35
4.3328e-34
3.80669e-33
3.28719e-32
2.78292e-31
2.30412e-30
1.86181e-29
1.46596e-28
1.12373e-27
8.38846e-27
6.15706e-26
4.44407e-25
3.13986e-24
2.16888e-23
1.46333e-22
9.63355e-22
6.18155e-21
3.86166e-20
2.34576e-19
1.38377e-18
7.91626e-18
4.38562e-17
2.34936e-16
1.2151e-15
6.05822e-15
2.90731e-14
1.34101e-13
5.93785e-13
2.52165e-12
1.02664e-11
4.0082e-11
1.50241e-10
5.41864e-10
1.88675e-09
6.38071e-09
2.13281e-08
7.50081e-08
3.25243e-07
1.98549e-06
1.37435e-05
7.23855e-05
0.000296853
0.000923591
0.0020351
0.00337111
0.00456484
0.00541279
0.00590685
0.00612779
0.00616422
0.00608485
0.00593663
0.00574973
0.00554292
0.00532772
0.0051111
0.00489729
0.00468884
0.00448727
0.00429349
0.00410798
0.00393099
0.00376257
0.00360264
0.00345101
0.00330743
0.00317157
0.00304304
0.00292142
0.00280628
0.00269718
0.00259681
0.0025028
0.00241256
0.00232573
0.00224197
0.00216098
0.00208248
0.00200625
0.0019321
0.00185986
0.00178943
0.00172071
0.00165367
0.00158828
0.00152456
0.00146253
0.00140222
0.00134369
0.001287
0.0012322
0.00117935
0.0011285
0.00107969
0.00103296
0.000988325
0.000945805
0.000905395
0.000867086
0.000830854
0.000796667
0.000764484
0.000734254
0.000705922
0.000679424
0.000654693
0.000631661
0.000610253
0.000590395
0.000572011
0.000555027
0.000539368
0.00052496
0.00051173
0.000499606
0.000488521
0.000478406
0.000469197
0.00046083
0.000453246
0.000446387
0.000440198
0.000434625
0.000429619
0.000425132
0.000421119
0.000417538
0.000414351
0.00041152
0.000409012
0.000406796
0.000404846
0.000403137
0.000401647
0.000400349
0.000399204
0.000398201
0.000397328
0.000396574
0.000395925
0.000395369
0.000394894
0.000394491
0.000394149
0.00039386
0.000393618
0.000393415
0.000393246
0.000393106
0.00039299
0.000392895
0.000392817
0.000392753
0.000392701
0.00039266
0.000392626
0.000392599
0.000392578
0.000392561
0.000392548
0.000392537
0.000392529
0.000392523
0.000392519
0.000392515
0.000392513
0.000392511
0.00039251
0.00039251
0.00039251
0.00039251
0.00039251
0.000392511
0.000392512
0.000392512
0.000392513
0.000392514
0.000392515
0.000392516
0.000392517
0.000392518
0.000392519
0.00039252
0.000392521
0.000392522
0.000392523
0.000392524
0.000392525
0.000392526
0.000392527
0.000392528
0.000392529
0.00039253
0.000392531
0.000392532
0.000392533
0.000392534
0.000392534
0.000392535
0.000392536
0.000392537
0.000392538
0.000392538
0.000392539
0.00039254
0.000392541
0.000392541
0.000392542
0.000392543
0.000392543
0.000392544
0.000392544
0.000392545
0.000392546
0.000392546
0.000392547
0.000392547
0.000392547
0.000392548
0.000392548
0.000392549
0.000392549
0.000392549
0.000392549
0.00039255
0.00039255
0.00039255
0.00039255
0.00039255
0.000392551
0.000392551
0.000392551
0.000392551
0.000392551
0.000392551
0.00039255
0.00039255
0.00039255
0.00039255
0.00039255
0.00039255
0.000392549
0.000392549
0.000392549
0.000392548
0.000392548
0.000392547
0.000392547
0.000392547
0.000392546
0.000392545
0.000392545
0.000392544
0.000392544
0.000392543
0.000392543
0.000392542
0.000392542
0.000392541
)
;

boundaryField
{
    boundary
    {
        type            empty;
    }
    inlet
    {
        type            fixedValue;
        value           uniform 0;
    }
    outlet
    {
        type            zeroGradient;
    }
}


// ************************************************************************* //
