/*--------------------------------*- C++ -*----------------------------------*\
  =========                 |
  \\      /  F ield         | OpenFOAM: The Open Source CFD Toolbox
   \\    /   O peration     | Website:  https://openfoam.org
    \\  /    A nd           | Version:  7
     \\/     M anipulation  |
\*---------------------------------------------------------------------------*/
FoamFile
{
    version     2.0;
    format      ascii;
    class       volScalarField;
    location    "9e-05";
    object      OH;
}
// * * * * * * * * * * * * * * * * * * * * * * * * * * * * * * * * * * * * * //

dimensions      [0 0 0 0 0 0 0];

internalField   nonuniform List<scalar> 
500
(
9.79988e-48
1.98601e-47
2.77565e-47
3.42281e-47
3.96546e-47
4.41783e-47
4.78431e-47
5.06877e-47
5.27875e-47
5.4257e-47
5.52319e-47
5.58455e-47
5.62129e-47
5.64225e-47
5.65367e-47
5.65962e-47
5.66258e-47
5.66399e-47
5.66461e-47
5.66485e-47
5.66492e-47
5.6649e-47
5.66485e-47
5.66478e-47
5.6647e-47
5.66462e-47
5.66453e-47
5.66444e-47
5.66434e-47
5.66425e-47
5.66414e-47
5.66404e-47
5.66393e-47
5.66383e-47
5.66371e-47
5.6636e-47
5.66348e-47
5.66337e-47
5.66325e-47
5.66312e-47
5.663e-47
5.66288e-47
5.66275e-47
5.66262e-47
5.66249e-47
5.66236e-47
5.66223e-47
5.6621e-47
5.66196e-47
5.66183e-47
5.6617e-47
5.66156e-47
5.66143e-47
5.6613e-47
5.66116e-47
5.66103e-47
5.6609e-47
5.66076e-47
5.66063e-47
5.6605e-47
5.66037e-47
5.66025e-47
5.66012e-47
5.66e-47
5.65987e-47
5.65975e-47
5.65964e-47
5.65952e-47
5.65941e-47
5.6593e-47
5.65919e-47
5.65908e-47
5.65898e-47
5.65888e-47
5.65879e-47
5.6587e-47
5.65861e-47
5.65853e-47
5.65845e-47
5.65837e-47
5.6583e-47
5.65823e-47
5.65817e-47
5.65811e-47
5.65806e-47
5.65801e-47
5.65797e-47
5.65793e-47
5.65789e-47
5.65787e-47
5.65784e-47
5.65783e-47
5.65781e-47
5.65781e-47
5.65781e-47
5.65781e-47
5.65782e-47
5.65784e-47
5.65786e-47
5.65789e-47
5.65792e-47
5.65796e-47
5.658e-47
5.65805e-47
5.6581e-47
5.65816e-47
5.65823e-47
5.6583e-47
5.65837e-47
5.65845e-47
5.65853e-47
5.65862e-47
5.65871e-47
5.65881e-47
5.65891e-47
5.65901e-47
5.65912e-47
5.65923e-47
5.65933e-47
5.65943e-47
5.65948e-47
5.65942e-47
5.65906e-47
5.65817e-47
5.65663e-47
5.6547e-47
5.65244e-47
5.65098e-47
5.65114e-47
5.65258e-47
5.65456e-47
5.6565e-47
5.65809e-47
5.65927e-47
5.66008e-47
5.66061e-47
5.66095e-47
5.66117e-47
5.6613e-47
5.66139e-47
5.66144e-47
5.66147e-47
5.66147e-47
5.66146e-47
5.66143e-47
5.66138e-47
5.66131e-47
5.66122e-47
5.6611e-47
5.66097e-47
5.6608e-47
5.66061e-47
5.66039e-47
5.66013e-47
5.65985e-47
5.65953e-47
5.65917e-47
5.65877e-47
5.65834e-47
5.65786e-47
5.65734e-47
5.65677e-47
5.65615e-47
5.65548e-47
5.65476e-47
5.65398e-47
5.65315e-47
5.65225e-47
5.65129e-47
5.65027e-47
5.64918e-47
5.64802e-47
5.64679e-47
5.64548e-47
5.6441e-47
5.64263e-47
5.64109e-47
5.63945e-47
5.63774e-47
5.63593e-47
5.63403e-47
5.63203e-47
5.62994e-47
5.62774e-47
5.62545e-47
5.62305e-47
5.62055e-47
5.61793e-47
5.61521e-47
5.61237e-47
5.60942e-47
5.60636e-47
5.60317e-47
5.59987e-47
5.59645e-47
5.5929e-47
5.58924e-47
5.58544e-47
5.58153e-47
5.57749e-47
5.57333e-47
5.56904e-47
5.56462e-47
5.56008e-47
5.55541e-47
5.55062e-47
5.54571e-47
5.54068e-47
5.53552e-47
5.53025e-47
5.52486e-47
5.51935e-47
5.51373e-47
5.508e-47
5.50216e-47
5.49622e-47
5.49017e-47
5.48403e-47
5.47779e-47
5.47146e-47
5.46504e-47
5.45854e-47
5.45196e-47
5.44531e-47
5.43859e-47
5.43189e-47
5.42607e-47
5.42985e-47
5.53363e-47
6.66528e-47
1.82629e-46
1.35407e-45
1.30666e-44
1.29052e-43
1.26701e-42
1.23323e-41
1.18992e-40
1.13817e-39
1.07888e-38
1.01278e-37
9.40465e-37
8.62587e-36
7.80058e-35
6.94235e-34
6.06989e-33
5.20618e-32
4.37593e-31
3.60234e-30
2.90416e-29
2.29412e-28
1.77878e-27
1.36386e-26
1.02755e-25
7.60167e-25
5.51782e-24
3.92783e-23
2.7406e-22
1.87341e-21
1.25401e-20
8.21577e-20
5.26592e-19
3.30057e-18
2.02212e-17
1.2105e-16
7.078e-16
4.04143e-15
2.25311e-14
1.22658e-13
6.52295e-13
3.39141e-12
1.72593e-11
8.6089e-11
4.24913e-10
2.07855e-09
1.00475e-08
4.80323e-08
2.31664e-07
1.20685e-06
7.49969e-06
5.18391e-05
0.000267107
0.000631474
0.000834646
0.00101137
0.001455
0.00232657
0.00356224
0.00493682
0.00623215
0.00733036
0.00820443
0.00887534
0.00937946
0.00975262
0.0100247
0.0102191
0.0103535
0.0104417
0.0104939
0.0105186
0.0105225
0.0105108
0.0104882
0.0104585
0.0104247
0.0103893
0.0103544
0.0103215
0.0102915
0.0102651
0.0102423
0.0102231
0.0102075
0.0101945
0.0101829
0.0101718
0.0101599
0.0101462
0.0101294
0.0101085
0.0100822
0.0100497
0.0100102
0.00996273
0.00990696
0.00984248
0.00976912
0.00968692
0.00959605
0.00949688
0.00938991
0.00927579
0.00915525
0.00902911
0.00889827
0.00876365
0.00862618
0.00848681
0.00834646
0.00820602
0.00806631
0.00792813
0.00779217
0.0076591
0.00752948
0.0074038
0.00728249
0.0071659
0.00705431
0.00694793
0.00684692
0.00675137
0.00666132
0.00657677
0.00649767
0.00642392
0.00635541
0.00629198
0.00623346
0.00617965
0.00613033
0.00608527
0.00604425
0.00600701
0.00597331
0.00594292
0.00591558
0.00589106
0.00586914
0.00584961
0.00583225
0.00581689
0.00580336
0.00579153
0.00578124
0.00577232
0.00576438
0.00575734
0.00575117
0.00574583
0.00574123
0.00573728
0.00573391
0.00573105
0.00572863
0.00572658
0.00572487
0.00572345
0.00572226
0.00572129
0.00572049
0.00571983
0.0057193
0.00571888
0.00571854
0.00571827
0.00571807
0.00571791
0.00571778
0.0057177
0.00571763
0.00571759
0.00571756
0.00571755
0.00571755
0.00571756
0.00571757
0.00571759
0.00571761
0.00571764
0.00571767
0.0057177
0.00571773
0.00571776
0.0057178
0.00571783
0.00571787
0.0057179
0.00571794
0.00571798
0.00571801
0.00571805
0.00571808
0.00571812
0.00571816
0.00571819
0.00571823
0.00571826
0.0057183
0.00571833
0.00571837
0.0057184
0.00571843
0.00571847
0.0057185
0.00571853
0.00571857
0.0057186
0.00571863
0.00571866
0.0057187
0.00571873
0.00571876
0.00571879
0.00571882
0.00571885
0.00571888
0.00571891
0.00571894
0.00571896
0.00571899
0.00571902
0.00571904
0.00571907
0.0057191
0.00571912
0.00571915
0.00571917
0.00571919
0.00571921
0.00571924
0.00571926
0.00571928
0.0057193
0.00571932
0.00571934
0.00571935
0.00571937
0.00571939
0.0057194
0.00571942
0.00571943
0.00571945
0.00571946
0.00571947
0.00571949
0.0057195
0.00571951
0.00571952
0.00571952
0.00571953
0.00571954
0.00571955
0.00571955
0.00571956
0.00571956
0.00571956
0.00571957
0.00571957
0.00571957
0.00571957
0.00571957
0.00571957
0.00571957
0.00571957
0.00571956
0.00571956
0.00571956
0.00571956
0.00571956
)
;

boundaryField
{
    boundary
    {
        type            empty;
    }
    inlet
    {
        type            fixedValue;
        value           uniform 0;
    }
    outlet
    {
        type            zeroGradient;
    }
}


// ************************************************************************* //
