/*--------------------------------*- C++ -*----------------------------------*\
  =========                 |
  \\      /  F ield         | OpenFOAM: The Open Source CFD Toolbox
   \\    /   O peration     | Website:  https://openfoam.org
    \\  /    A nd           | Version:  7
     \\/     M anipulation  |
\*---------------------------------------------------------------------------*/
FoamFile
{
    version     2.0;
    format      ascii;
    class       surfaceScalarField;
    location    "9e-05";
    object      phi;
}
// * * * * * * * * * * * * * * * * * * * * * * * * * * * * * * * * * * * * * //

dimensions      [1 0 -1 0 0 0 0];

internalField   nonuniform List<scalar> 
499
(
6.9142e-06
6.91326e-06
6.91128e-06
6.90835e-06
6.90491e-06
6.90147e-06
6.89845e-06
6.89609e-06
6.89444e-06
6.89347e-06
6.89304e-06
6.89303e-06
6.89329e-06
6.89374e-06
6.89429e-06
6.8949e-06
6.89553e-06
6.89617e-06
6.89681e-06
6.89743e-06
6.89805e-06
6.89865e-06
6.89923e-06
6.8998e-06
6.90035e-06
6.90088e-06
6.90139e-06
6.90188e-06
6.90235e-06
6.90281e-06
6.90324e-06
6.90364e-06
6.90403e-06
6.90439e-06
6.90473e-06
6.90505e-06
6.90534e-06
6.90561e-06
6.90585e-06
6.90607e-06
6.90626e-06
6.90642e-06
6.90656e-06
6.90667e-06
6.90675e-06
6.9068e-06
6.90683e-06
6.90683e-06
6.9068e-06
6.90674e-06
6.90665e-06
6.90653e-06
6.90639e-06
6.90621e-06
6.90601e-06
6.90577e-06
6.9055e-06
6.90521e-06
6.90488e-06
6.90453e-06
6.90414e-06
6.90373e-06
6.90328e-06
6.9028e-06
6.9023e-06
6.90176e-06
6.9012e-06
6.9006e-06
6.89998e-06
6.89933e-06
6.89864e-06
6.89793e-06
6.89719e-06
6.89642e-06
6.89562e-06
6.8948e-06
6.89394e-06
6.89306e-06
6.89215e-06
6.89122e-06
6.89026e-06
6.88927e-06
6.88826e-06
6.88722e-06
6.88615e-06
6.88506e-06
6.88395e-06
6.88281e-06
6.88165e-06
6.88047e-06
6.87927e-06
6.87804e-06
6.87679e-06
6.87552e-06
6.87423e-06
6.87292e-06
6.87159e-06
6.87024e-06
6.86887e-06
6.86749e-06
6.86609e-06
6.86467e-06
6.86324e-06
6.86179e-06
6.86032e-06
6.85884e-06
6.85735e-06
6.85585e-06
6.85433e-06
6.8528e-06
6.85126e-06
6.84971e-06
6.84815e-06
6.84658e-06
6.845e-06
6.84341e-06
6.84182e-06
6.84022e-06
6.83861e-06
6.837e-06
6.83538e-06
6.83376e-06
6.83214e-06
6.83052e-06
6.82889e-06
6.82727e-06
6.82564e-06
6.82402e-06
6.82239e-06
6.82076e-06
6.81913e-06
6.8175e-06
6.81588e-06
6.81426e-06
6.81265e-06
6.81104e-06
6.80944e-06
6.80785e-06
6.80627e-06
6.80469e-06
6.80312e-06
6.80157e-06
6.80002e-06
6.79848e-06
6.79696e-06
6.79545e-06
6.79395e-06
6.79246e-06
6.79099e-06
6.78954e-06
6.7881e-06
6.78667e-06
6.78527e-06
6.78388e-06
6.78251e-06
6.78115e-06
6.77982e-06
6.77851e-06
6.77722e-06
6.77595e-06
6.7747e-06
6.77348e-06
6.77228e-06
6.7711e-06
6.76995e-06
6.76882e-06
6.76772e-06
6.76664e-06
6.76559e-06
6.76457e-06
6.76358e-06
6.76261e-06
6.76167e-06
6.76076e-06
6.75988e-06
6.75903e-06
6.75821e-06
6.75741e-06
6.75665e-06
6.75592e-06
6.75522e-06
6.75455e-06
6.7539e-06
6.75329e-06
6.75271e-06
6.75216e-06
6.75164e-06
6.75115e-06
6.75069e-06
6.75025e-06
6.74985e-06
6.74947e-06
6.74913e-06
6.74881e-06
6.74851e-06
6.74824e-06
6.748e-06
6.74778e-06
6.74758e-06
6.74741e-06
6.74726e-06
6.74713e-06
6.74702e-06
6.74692e-06
6.74685e-06
6.74679e-06
6.74674e-06
6.74671e-06
6.74669e-06
6.74668e-06
6.74669e-06
6.7467e-06
6.74672e-06
6.74674e-06
6.74677e-06
6.7468e-06
6.74684e-06
6.74687e-06
6.74691e-06
6.74694e-06
6.74697e-06
6.747e-06
6.74702e-06
6.74704e-06
6.74705e-06
6.74706e-06
6.74706e-06
6.74705e-06
6.74703e-06
6.747e-06
6.74696e-06
6.74691e-06
6.74685e-06
6.74678e-06
6.74669e-06
6.7466e-06
6.7465e-06
6.74638e-06
6.74626e-06
6.74612e-06
6.74597e-06
6.74582e-06
6.74565e-06
6.74547e-06
6.74528e-06
6.74509e-06
6.74488e-06
6.74466e-06
6.74444e-06
6.7442e-06
6.74396e-06
6.74372e-06
6.74346e-06
6.74319e-06
6.74291e-06
6.74261e-06
6.74229e-06
6.74197e-06
6.74164e-06
6.74129e-06
6.74093e-06
6.74056e-06
6.74017e-06
6.73977e-06
6.73935e-06
6.73891e-06
6.73845e-06
6.73797e-06
6.73747e-06
6.73695e-06
6.7364e-06
6.73583e-06
6.73533e-06
6.73512e-06
6.73602e-06
6.74023e-06
6.75299e-06
6.78332e-06
6.83816e-06
6.90847e-06
6.97167e-06
7.01521e-06
7.04249e-06
7.06022e-06
7.07259e-06
7.0815e-06
7.0879e-06
7.0925e-06
7.09594e-06
7.09873e-06
7.10123e-06
7.10366e-06
7.10612e-06
7.10864e-06
7.11114e-06
7.1135e-06
7.11555e-06
7.11708e-06
7.11785e-06
7.11758e-06
7.116e-06
7.11279e-06
7.10765e-06
7.10028e-06
7.09042e-06
7.07781e-06
7.06225e-06
7.0436e-06
7.02179e-06
6.99679e-06
6.96868e-06
6.93759e-06
6.90581e-06
6.87163e-06
6.83531e-06
6.79712e-06
6.75739e-06
6.71646e-06
6.67468e-06
6.63243e-06
6.59007e-06
6.54796e-06
6.50644e-06
6.46583e-06
6.42641e-06
6.38844e-06
6.35216e-06
6.31775e-06
6.28537e-06
6.25514e-06
6.22714e-06
6.20142e-06
6.17801e-06
6.1569e-06
6.13805e-06
6.12139e-06
6.10685e-06
6.09434e-06
6.08373e-06
6.07491e-06
6.06774e-06
6.06207e-06
6.05778e-06
6.05472e-06
6.05274e-06
6.05171e-06
6.05149e-06
6.05197e-06
6.05302e-06
6.05455e-06
6.05644e-06
6.0586e-06
6.06097e-06
6.06347e-06
6.06604e-06
6.06862e-06
6.07118e-06
6.07367e-06
6.07607e-06
6.07836e-06
6.08052e-06
6.08253e-06
6.0844e-06
6.08611e-06
6.08766e-06
6.08906e-06
6.0903e-06
6.09141e-06
6.09237e-06
6.0932e-06
6.0939e-06
6.09449e-06
6.09497e-06
6.09535e-06
6.09565e-06
6.09588e-06
6.09603e-06
6.09612e-06
6.09613e-06
6.09609e-06
6.09599e-06
6.09585e-06
6.09567e-06
6.09545e-06
6.0952e-06
6.09492e-06
6.09461e-06
6.09427e-06
6.09391e-06
6.09353e-06
6.09313e-06
6.09272e-06
6.09229e-06
6.09185e-06
6.09141e-06
6.09095e-06
6.09048e-06
6.09e-06
6.08952e-06
6.08903e-06
6.08853e-06
6.08803e-06
6.08752e-06
6.08701e-06
6.08649e-06
6.08596e-06
6.08544e-06
6.0849e-06
6.08436e-06
6.08381e-06
6.08326e-06
6.08271e-06
6.08215e-06
6.08158e-06
6.08101e-06
6.08044e-06
6.07985e-06
6.07927e-06
6.07867e-06
6.07808e-06
6.07747e-06
6.07686e-06
6.07625e-06
6.07562e-06
6.075e-06
6.07436e-06
6.07372e-06
6.07308e-06
6.07242e-06
6.07176e-06
6.0711e-06
6.07043e-06
6.06975e-06
6.06906e-06
6.06837e-06
6.06766e-06
6.06696e-06
6.06624e-06
6.06552e-06
6.06479e-06
6.06405e-06
6.0633e-06
6.06254e-06
6.06178e-06
6.06101e-06
6.06023e-06
6.05944e-06
6.05864e-06
6.05784e-06
6.05702e-06
6.0562e-06
6.05537e-06
6.05453e-06
6.05368e-06
6.05281e-06
6.05194e-06
6.05106e-06
6.05017e-06
6.04927e-06
6.04837e-06
6.04745e-06
6.04652e-06
6.04558e-06
6.04462e-06
6.04366e-06
6.04269e-06
6.04171e-06
6.04072e-06
6.03971e-06
6.0387e-06
6.03767e-06
6.03663e-06
6.03559e-06
6.03453e-06
6.03346e-06
6.03237e-06
6.03128e-06
6.03017e-06
6.02906e-06
6.02793e-06
6.02679e-06
6.02564e-06
6.02447e-06
6.02329e-06
6.02211e-06
6.02091e-06
6.01969e-06
6.01847e-06
6.01723e-06
6.01598e-06
6.01472e-06
6.01345e-06
6.01216e-06
6.01086e-06
6.00955e-06
6.00823e-06
6.00689e-06
6.00554e-06
6.00418e-06
)
;

boundaryField
{
    boundary
    {
        type            empty;
        value           nonuniform 0();
    }
    inlet
    {
        type            calculated;
        value           uniform -6.91422e-06;
    }
    outlet
    {
        type            calculated;
        value           uniform 6.0028e-06;
    }
}


// ************************************************************************* //
