/*--------------------------------*- C++ -*----------------------------------*\
  =========                 |
  \\      /  F ield         | OpenFOAM: The Open Source CFD Toolbox
   \\    /   O peration     | Website:  https://openfoam.org
    \\  /    A nd           | Version:  7
     \\/     M anipulation  |
\*---------------------------------------------------------------------------*/
FoamFile
{
    version     2.0;
    format      ascii;
    class       volScalarField;
    location    "9e-05";
    object      Qdot;
}
// * * * * * * * * * * * * * * * * * * * * * * * * * * * * * * * * * * * * * //

dimensions      [1 -1 -3 0 0 0 0];

internalField   nonuniform List<scalar> 
500
(
-2.46638e-27
-1.92671e-27
-1.8755e-27
-1.94593e-27
-2.04943e-27
-2.15688e-27
-2.25426e-27
-2.33444e-27
-2.3953e-27
-2.43824e-27
-2.46658e-27
-2.48418e-27
-2.49451e-27
-2.50026e-27
-2.50331e-27
-2.50484e-27
-2.50557e-27
-2.50588e-27
-2.506e-27
-2.50603e-27
-2.50602e-27
-2.50598e-27
-2.50593e-27
-2.50589e-27
-2.50583e-27
-2.50578e-27
-2.50572e-27
-2.50566e-27
-2.5056e-27
-2.50554e-27
-2.50547e-27
-2.5054e-27
-2.50534e-27
-2.50527e-27
-2.50519e-27
-2.50512e-27
-2.50505e-27
-2.50497e-27
-2.50489e-27
-2.50481e-27
-2.50473e-27
-2.50465e-27
-2.50457e-27
-2.50448e-27
-2.50439e-27
-2.50431e-27
-2.50422e-27
-2.50413e-27
-2.50404e-27
-2.50395e-27
-2.50385e-27
-2.50376e-27
-2.50367e-27
-2.50357e-27
-2.50348e-27
-2.50338e-27
-2.50328e-27
-2.50318e-27
-2.50309e-27
-2.50299e-27
-2.50289e-27
-2.50279e-27
-2.50269e-27
-2.50259e-27
-2.50249e-27
-2.5024e-27
-2.5023e-27
-2.5022e-27
-2.5021e-27
-2.502e-27
-2.50191e-27
-2.50181e-27
-2.50171e-27
-2.50162e-27
-2.50152e-27
-2.50143e-27
-2.50133e-27
-2.50124e-27
-2.50115e-27
-2.50106e-27
-2.50097e-27
-2.50089e-27
-2.5008e-27
-2.50072e-27
-2.50063e-27
-2.50055e-27
-2.50047e-27
-2.5004e-27
-2.50032e-27
-2.50025e-27
-2.50018e-27
-2.50011e-27
-2.50004e-27
-2.49998e-27
-2.49992e-27
-2.49986e-27
-2.4998e-27
-2.49974e-27
-2.49969e-27
-2.49964e-27
-2.4996e-27
-2.49955e-27
-2.49951e-27
-2.49947e-27
-2.49944e-27
-2.49941e-27
-2.49938e-27
-2.49935e-27
-2.49933e-27
-2.49931e-27
-2.49929e-27
-2.49928e-27
-2.49927e-27
-2.49926e-27
-2.49926e-27
-2.49926e-27
-2.49926e-27
-2.49927e-27
-2.49928e-27
-2.49929e-27
-2.4993e-27
-2.49931e-27
-2.4993e-27
-2.49925e-27
-2.49914e-27
-2.49899e-27
-2.49886e-27
-2.49883e-27
-2.4989e-27
-2.49905e-27
-2.49922e-27
-2.49938e-27
-2.49952e-27
-2.49964e-27
-2.49973e-27
-2.4998e-27
-2.49986e-27
-2.49992e-27
-2.49998e-27
-2.50003e-27
-2.50008e-27
-2.50013e-27
-2.50018e-27
-2.50023e-27
-2.50027e-27
-2.50032e-27
-2.50036e-27
-2.5004e-27
-2.50043e-27
-2.50046e-27
-2.50049e-27
-2.50051e-27
-2.50053e-27
-2.50054e-27
-2.50054e-27
-2.50054e-27
-2.50053e-27
-2.50051e-27
-2.50048e-27
-2.50045e-27
-2.5004e-27
-2.50034e-27
-2.50027e-27
-2.50018e-27
-2.50009e-27
-2.49998e-27
-2.49985e-27
-2.49971e-27
-2.49955e-27
-2.49938e-27
-2.49918e-27
-2.49897e-27
-2.49874e-27
-2.49849e-27
-2.49821e-27
-2.49791e-27
-2.49759e-27
-2.49724e-27
-2.49687e-27
-2.49647e-27
-2.49604e-27
-2.49559e-27
-2.4951e-27
-2.49459e-27
-2.49404e-27
-2.49346e-27
-2.49285e-27
-2.49221e-27
-2.49153e-27
-2.49081e-27
-2.49006e-27
-2.48928e-27
-2.48845e-27
-2.48759e-27
-2.48669e-27
-2.48575e-27
-2.48477e-27
-2.48375e-27
-2.48269e-27
-2.48159e-27
-2.48045e-27
-2.47926e-27
-2.47804e-27
-2.47678e-27
-2.47547e-27
-2.47412e-27
-2.47274e-27
-2.47131e-27
-2.46984e-27
-2.46833e-27
-2.46679e-27
-2.46521e-27
-2.46359e-27
-2.46193e-27
-2.46024e-27
-2.45851e-27
-2.45676e-27
-2.45497e-27
-2.45315e-27
-2.4513e-27
-2.44942e-27
-2.44752e-27
-2.44559e-27
-2.44364e-27
-2.44167e-27
-2.43968e-27
-2.43767e-27
-2.43565e-27
-2.43361e-27
-2.43155e-27
-2.42948e-27
-2.42736e-27
-2.42489e-27
-2.42002e-27
-2.39771e-27
-2.24842e-27
-1.17078e-27
6.72146e-27
6.48398e-26
4.94658e-25
3.68612e-24
2.7469e-23
2.05218e-22
1.53614e-21
1.15054e-20
8.60758e-20
6.42015e-19
4.76488e-18
3.51245e-17
2.56771e-16
1.85977e-15
1.34466e-14
9.57944e-14
6.74705e-13
4.69045e-12
3.21465e-11
2.1697e-10
1.44072e-09
9.40312e-09
6.02717e-08
3.79123e-07
2.33877e-06
1.41416e-05
8.37837e-05
0.000486197
0.00276396
0.0153978
0.0841391
0.451727
2.38927
12.4988
68.1628
397.508
2642.38
19655.1
169986
1.56692e+06
1.5134e+07
1.40388e+08
1.05906e+09
4.69327e+09
1.0379e+10
1.32909e+10
1.37408e+10
1.37342e+10
1.35323e+10
1.25987e+10
1.09365e+10
9.07715e+09
7.42731e+09
6.11091e+09
5.10082e+09
4.32929e+09
3.7328e+09
3.26269e+09
2.88426e+09
2.57328e+09
2.31284e+09
2.091e+09
1.89923e+09
1.73129e+09
1.58257e+09
1.44957e+09
1.32965e+09
1.22075e+09
1.12129e+09
1.03002e+09
9.45954e+08
8.68344e+08
7.96575e+08
7.30185e+08
6.68883e+08
6.13798e+08
5.63476e+08
5.16523e+08
4.72886e+08
4.3237e+08
3.94814e+08
3.60063e+08
3.27965e+08
2.98369e+08
2.71126e+08
2.4609e+08
2.23116e+08
2.02061e+08
1.82787e+08
1.65165e+08
1.49068e+08
1.34378e+08
1.20983e+08
1.08782e+08
9.76756e+07
8.75751e+07
7.83996e+07
7.00729e+07
6.25259e+07
5.5694e+07
4.95178e+07
4.39424e+07
3.89171e+07
3.43946e+07
3.03313e+07
2.66868e+07
2.34219e+07
2.05041e+07
1.79045e+07
1.55863e+07
1.35251e+07
1.16969e+07
1.00782e+07
8.64785e+06
7.38811e+06
6.27801e+06
5.30201e+06
4.45009e+06
3.7039e+06
3.05344e+06
2.4877e+06
1.99718e+06
1.5728e+06
1.20688e+06
892483
623609
393880
197224
33791.9
-105723
-222388
-319655
-400941
-469571
-529547
-586631
-652350
-751012
-918409
-868430
-809026
-777463
-761690
-753539
-748471
-745163
-742174
-739321
-735846
-733538
-730906
-728319
-726209
-723899
-721912
-720507
-719130
-718272
-717729
-717383
-717298
-717390
-717729
-718189
-718718
-719329
-720032
-720823
-721696
-722637
-723637
-724684
-725769
-726883
-728021
-729174
-730334
-731500
-732671
-733846
-735024
-736204
-737385
-738566
-739748
-740928
-742108
-743285
-744460
-745633
-746802
-747967
-749129
-750285
-751437
-752584
-753724
-754859
-755987
-757117
-758250
-759375
-760493
-761603
-762704
-763798
-764882
-765958
-767024
-768080
-769126
-770161
-771185
-772197
-773198
-774186
-775161
-776123
-777071
-778006
-778926
-779831
-780722
-781597
-782459
-783306
-784137
-784952
-785750
-786531
-787295
-788042
-788772
-789485
-790180
-790857
-791516
-792157
-792779
-793383
-793967
-794533
-795081
-795610
-796120
-796611
-797084
-797538
-797973
-798389
-798787
-799167
-799529
-799874
-800203
-800516
-800816
-801103
-801379
-801649
-801921
-802195
-802436
)
;

boundaryField
{
    boundary
    {
        type            empty;
    }
    inlet
    {
        type            calculated;
        value           uniform 0;
    }
    outlet
    {
        type            calculated;
        value           uniform 0;
    }
}


// ************************************************************************* //
