/*--------------------------------*- C++ -*----------------------------------*\
  =========                 |
  \\      /  F ield         | OpenFOAM: The Open Source CFD Toolbox
   \\    /   O peration     | Website:  https://openfoam.org
    \\  /    A nd           | Version:  7
     \\/     M anipulation  |
\*---------------------------------------------------------------------------*/
FoamFile
{
    version     2.0;
    format      ascii;
    class       volScalarField;
    location    "9e-05";
    object      rho;
}
// * * * * * * * * * * * * * * * * * * * * * * * * * * * * * * * * * * * * * //

dimensions      [1 -3 0 0 0 0 0];

internalField   nonuniform List<scalar> 
500
(
0.862566
0.862284
0.861888
0.861408
0.860897
0.860411
0.859989
0.859651
0.859397
0.859219
0.859101
0.859026
0.858981
0.858956
0.858942
0.858934
0.85893
0.858928
0.858927
0.858927
0.858926
0.858926
0.858925
0.858925
0.858925
0.858924
0.858924
0.858924
0.858923
0.858923
0.858923
0.858922
0.858922
0.858921
0.858921
0.85892
0.85892
0.858919
0.858919
0.858918
0.858918
0.858917
0.858916
0.858916
0.858915
0.858915
0.858914
0.858913
0.858913
0.858912
0.858911
0.85891
0.85891
0.858909
0.858908
0.858907
0.858906
0.858906
0.858905
0.858904
0.858903
0.858902
0.858901
0.8589
0.858899
0.858898
0.858897
0.858896
0.858895
0.858894
0.858893
0.858892
0.858891
0.85889
0.858888
0.858887
0.858886
0.858885
0.858884
0.858882
0.858881
0.85888
0.858878
0.858877
0.858876
0.858874
0.858873
0.858871
0.85887
0.858869
0.858867
0.858866
0.858864
0.858863
0.858861
0.85886
0.858858
0.858856
0.858855
0.858853
0.858852
0.85885
0.858848
0.858847
0.858845
0.858843
0.858842
0.85884
0.858838
0.858836
0.858835
0.858833
0.858831
0.858829
0.858828
0.858826
0.858824
0.858822
0.858821
0.858819
0.858817
0.858816
0.858814
0.858812
0.858811
0.85881
0.858809
0.858807
0.858806
0.858804
0.858801
0.858799
0.858797
0.858795
0.858794
0.858792
0.85879
0.858789
0.858787
0.858786
0.858784
0.858783
0.858782
0.85878
0.858779
0.858778
0.858777
0.858775
0.858774
0.858773
0.858772
0.858771
0.858771
0.85877
0.858769
0.858768
0.858768
0.858767
0.858767
0.858766
0.858766
0.858766
0.858766
0.858766
0.858766
0.858766
0.858766
0.858767
0.858767
0.858768
0.858768
0.858769
0.85877
0.858771
0.858772
0.858774
0.858775
0.858777
0.858779
0.858781
0.858783
0.858785
0.858787
0.85879
0.858792
0.858795
0.858798
0.858801
0.858805
0.858808
0.858812
0.858816
0.85882
0.858825
0.858829
0.858834
0.858839
0.858844
0.858849
0.858855
0.85886
0.858866
0.858872
0.858879
0.858885
0.858892
0.858899
0.858906
0.858913
0.858921
0.858929
0.858937
0.858945
0.858953
0.858962
0.85897
0.858979
0.858988
0.858997
0.859007
0.859016
0.859026
0.859036
0.859046
0.859056
0.859067
0.859077
0.859088
0.859098
0.859109
0.85912
0.859131
0.859142
0.859153
0.859164
0.859176
0.859187
0.859199
0.85921
0.859222
0.859233
0.859245
0.859257
0.859269
0.859281
0.859293
0.859305
0.859317
0.859329
0.859342
0.859355
0.859369
0.859382
0.859395
0.859407
0.859419
0.859432
0.859445
0.859458
0.859472
0.859486
0.8595
0.859514
0.859529
0.859544
0.85956
0.859576
0.859592
0.859609
0.859626
0.859644
0.859662
0.859667
0.859609
0.859273
0.857874
0.85277
0.836003
0.788704
0.688389
0.551207
0.43054
0.348628
0.295415
0.258983
0.233039
0.214524
0.201348
0.191841
0.184791
0.179396
0.17514
0.17169
0.168828
0.166405
0.164319
0.162493
0.160872
0.159411
0.158076
0.156838
0.155673
0.154562
0.153486
0.152433
0.15139
0.150349
0.149303
0.148247
0.147179
0.146099
0.145009
0.143942
0.14289
0.141829
0.140767
0.139708
0.138658
0.137623
0.136608
0.135618
0.134659
0.133736
0.132852
0.132012
0.131217
0.130471
0.129774
0.129129
0.128534
0.127991
0.127498
0.127055
0.126659
0.126309
0.126003
0.125737
0.12551
0.125318
0.12516
0.125031
0.124929
0.124851
0.124794
0.124756
0.124734
0.124726
0.124729
0.124742
0.124762
0.124789
0.12482
0.124854
0.124891
0.124929
0.124967
0.125005
0.125042
0.125078
0.125112
0.125144
0.125175
0.125204
0.12523
0.125255
0.125277
0.125297
0.125316
0.125332
0.125347
0.125361
0.125373
0.125383
0.125392
0.125399
0.125404
0.125409
0.125415
0.125419
0.125424
0.125427
0.12543
0.125432
0.125435
0.125436
0.125438
0.125439
0.125439
0.12544
0.12544
0.125441
0.125441
0.125441
0.12544
0.12544
0.12544
0.12544
0.125439
0.125439
0.125438
0.125438
0.125437
0.125437
0.125436
0.125436
0.125435
0.125435
0.125434
0.125434
0.125433
0.125432
0.125432
0.125431
0.125431
0.12543
0.125429
0.125429
0.125428
0.125428
0.125427
0.125427
0.125426
0.125425
0.125425
0.125424
0.125424
0.125423
0.125422
0.125422
0.125421
0.125421
0.12542
0.125419
0.125419
0.125418
0.125418
0.125417
0.125416
0.125416
0.125415
0.125415
0.125414
0.125413
0.125413
0.125412
0.125412
0.125411
0.125411
0.12541
0.125409
0.125409
0.125408
0.125408
0.125407
0.125406
0.125406
0.125405
0.125405
0.125404
0.125404
0.125403
0.125402
0.125402
0.125401
0.125401
0.1254
0.1254
0.125399
0.125398
0.125398
0.125397
0.125397
0.125396
0.125396
0.125395
0.125395
0.125394
0.125394
0.125393
0.125393
0.125392
0.125392
0.125391
0.125391
0.12539
0.12539
0.125389
0.125389
0.125388
0.125388
0.125387
0.125387
0.125386
0.125386
0.125385
0.125385
0.125384
0.125384
0.125383
0.125383
)
;

boundaryField
{
    boundary
    {
        type            empty;
    }
    inlet
    {
        type            calculated;
        value           uniform 0.862688;
    }
    outlet
    {
        type            calculated;
        value           uniform 0.125382;
    }
}


// ************************************************************************* //
