/*--------------------------------*- C++ -*----------------------------------*\
  =========                 |
  \\      /  F ield         | OpenFOAM: The Open Source CFD Toolbox
   \\    /   O peration     | Website:  https://openfoam.org
    \\  /    A nd           | Version:  7
     \\/     M anipulation  |
\*---------------------------------------------------------------------------*/
FoamFile
{
    version     2.0;
    format      ascii;
    class       volScalarField;
    location    "9e-05";
    object      T;
}
// * * * * * * * * * * * * * * * * * * * * * * * * * * * * * * * * * * * * * //

dimensions      [0 0 0 1 0 0 0];

internalField   nonuniform List<scalar> 
500
(
300.043
300.141
300.278
300.446
300.624
300.794
300.941
301.06
301.148
301.211
301.252
301.278
301.294
301.303
301.308
301.31
301.311
301.312
301.312
301.312
301.312
301.312
301.312
301.312
301.312
301.312
301.312
301.312
301.312
301.312
301.312
301.312
301.311
301.311
301.311
301.311
301.311
301.311
301.311
301.311
301.311
301.311
301.31
301.31
301.31
301.31
301.31
301.31
301.31
301.31
301.31
301.309
301.309
301.309
301.309
301.309
301.309
301.309
301.309
301.308
301.308
301.308
301.308
301.308
301.308
301.308
301.308
301.308
301.307
301.307
301.307
301.307
301.307
301.307
301.307
301.307
301.307
301.307
301.306
301.306
301.306
301.306
301.306
301.306
301.306
301.306
301.306
301.306
301.306
301.306
301.306
301.305
301.305
301.305
301.305
301.305
301.305
301.305
301.305
301.305
301.305
301.305
301.305
301.305
301.305
301.305
301.305
301.305
301.305
301.305
301.305
301.305
301.305
301.305
301.306
301.306
301.306
301.306
301.306
301.306
301.306
301.306
301.306
301.306
301.306
301.306
301.306
301.306
301.306
301.306
301.307
301.307
301.307
301.307
301.307
301.308
301.308
301.308
301.308
301.308
301.308
301.308
301.309
301.309
301.309
301.309
301.309
301.309
301.309
301.309
301.309
301.31
301.31
301.31
301.31
301.31
301.31
301.31
301.31
301.31
301.31
301.31
301.31
301.31
301.309
301.309
301.309
301.309
301.309
301.309
301.308
301.308
301.308
301.308
301.307
301.307
301.306
301.306
301.305
301.305
301.304
301.304
301.303
301.302
301.302
301.301
301.3
301.299
301.298
301.297
301.296
301.295
301.294
301.293
301.292
301.29
301.289
301.288
301.286
301.285
301.283
301.282
301.28
301.278
301.276
301.274
301.273
301.271
301.269
301.267
301.264
301.262
301.26
301.258
301.255
301.253
301.251
301.248
301.246
301.243
301.24
301.238
301.235
301.232
301.23
301.227
301.224
301.221
301.218
301.216
301.213
301.21
301.207
301.204
301.201
301.198
301.195
301.192
301.189
301.186
301.183
301.18
301.177
301.174
301.171
301.167
301.164
301.161
301.158
301.155
301.151
301.148
301.144
301.141
301.137
301.134
301.131
301.128
301.124
301.121
301.117
301.113
301.109
301.105
301.101
301.097
301.092
301.088
301.083
301.079
301.075
301.073
301.082
301.127
301.302
301.927
304.034
310.779
330.762
381.618
481.355
623.538
779.462
930.597
1072.27
1201.03
1311.96
1403.23
1476.94
1536.71
1585.89
1627.05
1662.09
1692.35
1718.86
1742.34
1763.39
1782.48
1799.99
1816.24
1831.54
1846.12
1860.22
1874.02
1887.71
1901.44
1915.34
1929.51
1944.02
1958.94
1974.28
1990.03
2005.73
2021.48
2037.65
2054.15
2070.92
2087.88
2104.95
2122.03
2139.05
2155.89
2172.47
2188.69
2204.48
2219.75
2234.45
2248.5
2261.85
2274.48
2286.34
2297.43
2307.74
2317.26
2326
2333.99
2341.25
2347.8
2353.69
2358.96
2363.64
2367.78
2371.42
2374.6
2377.38
2379.78
2381.86
2383.64
2385.17
2386.47
2387.57
2388.51
2389.3
2389.97
2390.53
2391
2391.4
2391.74
2392.02
2392.26
2392.46
2392.64
2392.79
2392.92
2393.03
2393.13
2393.21
2393.29
2393.36
2393.42
2393.48
2393.53
2393.59
2393.64
2393.71
2393.79
2393.84
2393.86
2393.87
2393.89
2393.9
2393.91
2393.92
2393.93
2393.93
2393.94
2393.95
2393.96
2393.96
2393.97
2393.98
2393.99
2394
2394
2394.01
2394.02
2394.03
2394.04
2394.04
2394.05
2394.06
2394.07
2394.08
2394.09
2394.09
2394.1
2394.11
2394.12
2394.13
2394.13
2394.14
2394.15
2394.16
2394.16
2394.17
2394.18
2394.19
2394.2
2394.2
2394.21
2394.22
2394.23
2394.23
2394.24
2394.25
2394.26
2394.26
2394.27
2394.28
2394.29
2394.29
2394.3
2394.31
2394.32
2394.32
2394.33
2394.34
2394.34
2394.35
2394.36
2394.36
2394.37
2394.38
2394.38
2394.39
2394.4
2394.4
2394.41
2394.42
2394.42
2394.43
2394.44
2394.44
2394.45
2394.45
2394.46
2394.46
2394.47
2394.48
2394.48
2394.49
2394.49
2394.5
2394.5
2394.51
2394.51
2394.51
2394.52
2394.52
2394.53
2394.53
2394.53
2394.54
2394.54
2394.55
2394.55
2394.55
2394.55
2394.56
2394.56
2394.56
2394.57
2394.57
2394.57
2394.57
2394.57
2394.58
2394.58
2394.58
2394.58
2394.58
2394.58
2394.58
2394.58
2394.59
2394.59
2394.59
2394.59
2394.59
2394.59
)
;

boundaryField
{
    boundary
    {
        type            empty;
    }
    inlet
    {
        type            fixedValue;
        value           uniform 300;
    }
    outlet
    {
        type            zeroGradient;
    }
}


// ************************************************************************* //
