/*--------------------------------*- C++ -*----------------------------------*\
  =========                 |
  \\      /  F ield         | OpenFOAM: The Open Source CFD Toolbox
   \\    /   O peration     | Website:  https://openfoam.org
    \\  /    A nd           | Version:  7
     \\/     M anipulation  |
\*---------------------------------------------------------------------------*/
FoamFile
{
    version     2.0;
    format      ascii;
    class       volVectorField;
    location    "9e-05";
    object      U;
}
// * * * * * * * * * * * * * * * * * * * * * * * * * * * * * * * * * * * * * //

dimensions      [0 1 -1 0 0 0 0];

internalField   nonuniform List<vector> 
500
(
(2.34922 0 0)
(2.35004 0 0)
(2.35072 0 0)
(2.35103 0 0)
(2.35115 0 0)
(2.35132 0 0)
(2.35141 0 0)
(2.35141 0 0)
(2.3514 0 0)
(2.35145 0 0)
(2.35155 0 0)
(2.35169 0 0)
(2.35187 0 0)
(2.35206 0 0)
(2.35228 0 0)
(2.3525 0 0)
(2.35272 0 0)
(2.35295 0 0)
(2.35317 0 0)
(2.35339 0 0)
(2.3536 0 0)
(2.35381 0 0)
(2.35401 0 0)
(2.35421 0 0)
(2.3544 0 0)
(2.35458 0 0)
(2.35476 0 0)
(2.35493 0 0)
(2.35511 0 0)
(2.35526 0 0)
(2.3554 0 0)
(2.35555 0 0)
(2.35569 0 0)
(2.35582 0 0)
(2.35594 0 0)
(2.35605 0 0)
(2.35616 0 0)
(2.35625 0 0)
(2.35635 0 0)
(2.35642 0 0)
(2.3565 0 0)
(2.35656 0 0)
(2.35661 0 0)
(2.35665 0 0)
(2.35669 0 0)
(2.35671 0 0)
(2.35673 0 0)
(2.35674 0 0)
(2.35673 0 0)
(2.35672 0 0)
(2.35669 0 0)
(2.35666 0 0)
(2.35662 0 0)
(2.35657 0 0)
(2.3565 0 0)
(2.35643 0 0)
(2.35635 0 0)
(2.35625 0 0)
(2.35615 0 0)
(2.35604 0 0)
(2.35591 0 0)
(2.35578 0 0)
(2.35563 0 0)
(2.35548 0 0)
(2.35531 0 0)
(2.35514 0 0)
(2.35495 0 0)
(2.35476 0 0)
(2.35455 0 0)
(2.35434 0 0)
(2.35411 0 0)
(2.35387 0 0)
(2.35363 0 0)
(2.35338 0 0)
(2.35312 0 0)
(2.35284 0 0)
(2.35256 0 0)
(2.35226 0 0)
(2.35196 0 0)
(2.35165 0 0)
(2.35133 0 0)
(2.351 0 0)
(2.35067 0 0)
(2.35032 0 0)
(2.34996 0 0)
(2.3496 0 0)
(2.34923 0 0)
(2.34885 0 0)
(2.34846 0 0)
(2.34806 0 0)
(2.34766 0 0)
(2.34725 0 0)
(2.34683 0 0)
(2.3464 0 0)
(2.34597 0 0)
(2.34553 0 0)
(2.34509 0 0)
(2.34463 0 0)
(2.34417 0 0)
(2.34371 0 0)
(2.34324 0 0)
(2.34276 0 0)
(2.34228 0 0)
(2.34179 0 0)
(2.3413 0 0)
(2.3408 0 0)
(2.3403 0 0)
(2.33979 0 0)
(2.33928 0 0)
(2.33877 0 0)
(2.33825 0 0)
(2.33772 0 0)
(2.3372 0 0)
(2.33667 0 0)
(2.33613 0 0)
(2.3356 0 0)
(2.33506 0 0)
(2.33452 0 0)
(2.33398 0 0)
(2.33343 0 0)
(2.33288 0 0)
(2.33234 0 0)
(2.33178 0 0)
(2.33124 0 0)
(2.33068 0 0)
(2.33011 0 0)
(2.32958 0 0)
(2.32905 0 0)
(2.3285 0 0)
(2.32792 0 0)
(2.32738 0 0)
(2.32683 0 0)
(2.32629 0 0)
(2.32574 0 0)
(2.32519 0 0)
(2.32465 0 0)
(2.32411 0 0)
(2.32357 0 0)
(2.32303 0 0)
(2.32249 0 0)
(2.32196 0 0)
(2.32143 0 0)
(2.32091 0 0)
(2.32039 0 0)
(2.31987 0 0)
(2.31935 0 0)
(2.31884 0 0)
(2.31834 0 0)
(2.31783 0 0)
(2.31734 0 0)
(2.31685 0 0)
(2.31636 0 0)
(2.31588 0 0)
(2.3154 0 0)
(2.31494 0 0)
(2.31448 0 0)
(2.31402 0 0)
(2.31356 0 0)
(2.31312 0 0)
(2.31269 0 0)
(2.31226 0 0)
(2.31184 0 0)
(2.31143 0 0)
(2.31102 0 0)
(2.31062 0 0)
(2.31023 0 0)
(2.30985 0 0)
(2.30948 0 0)
(2.30911 0 0)
(2.30876 0 0)
(2.30842 0 0)
(2.30808 0 0)
(2.30775 0 0)
(2.30743 0 0)
(2.30712 0 0)
(2.30682 0 0)
(2.30654 0 0)
(2.30625 0 0)
(2.30598 0 0)
(2.30572 0 0)
(2.30548 0 0)
(2.30523 0 0)
(2.305 0 0)
(2.30478 0 0)
(2.30457 0 0)
(2.30437 0 0)
(2.30418 0 0)
(2.304 0 0)
(2.30383 0 0)
(2.30366 0 0)
(2.30351 0 0)
(2.30337 0 0)
(2.30324 0 0)
(2.30311 0 0)
(2.30299 0 0)
(2.30288 0 0)
(2.30278 0 0)
(2.30269 0 0)
(2.3026 0 0)
(2.30253 0 0)
(2.30246 0 0)
(2.30239 0 0)
(2.30234 0 0)
(2.30228 0 0)
(2.30224 0 0)
(2.30219 0 0)
(2.30216 0 0)
(2.30213 0 0)
(2.3021 0 0)
(2.30207 0 0)
(2.30205 0 0)
(2.30203 0 0)
(2.30201 0 0)
(2.302 0 0)
(2.30198 0 0)
(2.30197 0 0)
(2.30196 0 0)
(2.30195 0 0)
(2.30193 0 0)
(2.30192 0 0)
(2.30191 0 0)
(2.30189 0 0)
(2.30187 0 0)
(2.30185 0 0)
(2.30183 0 0)
(2.30181 0 0)
(2.30178 0 0)
(2.30175 0 0)
(2.30171 0 0)
(2.30167 0 0)
(2.30164 0 0)
(2.30159 0 0)
(2.30154 0 0)
(2.30149 0 0)
(2.30143 0 0)
(2.30137 0 0)
(2.3013 0 0)
(2.30124 0 0)
(2.30116 0 0)
(2.30109 0 0)
(2.30101 0 0)
(2.30092 0 0)
(2.30084 0 0)
(2.30075 0 0)
(2.30065 0 0)
(2.30055 0 0)
(2.30044 0 0)
(2.30034 0 0)
(2.30023 0 0)
(2.30012 0 0)
(2.3 0 0)
(2.29986 0 0)
(2.29977 0 0)
(2.29967 0 0)
(2.29954 0 0)
(2.29938 0 0)
(2.29923 0 0)
(2.2991 0 0)
(2.29895 0 0)
(2.2988 0 0)
(2.29864 0 0)
(2.29848 0 0)
(2.29831 0 0)
(2.29814 0 0)
(2.29796 0 0)
(2.29777 0 0)
(2.29758 0 0)
(2.29738 0 0)
(2.29717 0 0)
(2.29694 0 0)
(2.29671 0 0)
(2.29648 0 0)
(2.29627 0 0)
(2.29635 0 0)
(2.29761 0 0)
(2.30327 0 0)
(2.32231 0 0)
(2.37481 0 0)
(2.50192 0 0)
(2.78792 0 0)
(3.38672 0 0)
(4.38519 0 0)
(5.59699 0 0)
(6.799 0 0)
(7.8832 0 0)
(8.82928 0 0)
(9.63414 0 0)
(10.2963 0 0)
(10.8275 0 0)
(11.2522 0 0)
(11.5971 0 0)
(11.8838 0 0)
(12.127 0 0)
(12.3372 0 0)
(12.5215 0 0)
(12.685 0 0)
(12.8317 0 0)
(12.9644 0 0)
(13.0855 0 0)
(13.1966 0 0)
(13.2992 0 0)
(13.3944 0 0)
(13.483 0 0)
(13.5657 0 0)
(13.643 0 0)
(13.7153 0 0)
(13.7829 0 0)
(13.846 0 0)
(13.9047 0 0)
(13.9589 0 0)
(14.0088 0 0)
(14.0542 0 0)
(14.0944 0 0)
(14.1302 0 0)
(14.1629 0 0)
(14.1921 0 0)
(14.2178 0 0)
(14.24 0 0)
(14.2589 0 0)
(14.2745 0 0)
(14.287 0 0)
(14.2967 0 0)
(14.3035 0 0)
(14.308 0 0)
(14.3101 0 0)
(14.3102 0 0)
(14.3086 0 0)
(14.3054 0 0)
(14.3011 0 0)
(14.2958 0 0)
(14.2897 0 0)
(14.2832 0 0)
(14.2764 0 0)
(14.2695 0 0)
(14.2627 0 0)
(14.2562 0 0)
(14.25 0 0)
(14.2443 0 0)
(14.2391 0 0)
(14.2345 0 0)
(14.2305 0 0)
(14.2271 0 0)
(14.2244 0 0)
(14.2223 0 0)
(14.2208 0 0)
(14.2198 0 0)
(14.2195 0 0)
(14.2195 0 0)
(14.2198 0 0)
(14.2206 0 0)
(14.2216 0 0)
(14.2229 0 0)
(14.2244 0 0)
(14.2259 0 0)
(14.2276 0 0)
(14.2293 0 0)
(14.2311 0 0)
(14.2328 0 0)
(14.2345 0 0)
(14.2361 0 0)
(14.2376 0 0)
(14.239 0 0)
(14.2403 0 0)
(14.2414 0 0)
(14.2425 0 0)
(14.2434 0 0)
(14.2442 0 0)
(14.2448 0 0)
(14.2453 0 0)
(14.2457 0 0)
(14.246 0 0)
(14.2461 0 0)
(14.2462 0 0)
(14.2462 0 0)
(14.2462 0 0)
(14.2461 0 0)
(14.2461 0 0)
(14.2457 0 0)
(14.2453 0 0)
(14.2448 0 0)
(14.2442 0 0)
(14.2436 0 0)
(14.2429 0 0)
(14.2422 0 0)
(14.2415 0 0)
(14.2407 0 0)
(14.2399 0 0)
(14.2391 0 0)
(14.2382 0 0)
(14.2373 0 0)
(14.2363 0 0)
(14.2354 0 0)
(14.2344 0 0)
(14.2334 0 0)
(14.2324 0 0)
(14.2314 0 0)
(14.2303 0 0)
(14.2293 0 0)
(14.2282 0 0)
(14.2271 0 0)
(14.226 0 0)
(14.2249 0 0)
(14.2238 0 0)
(14.2226 0 0)
(14.2215 0 0)
(14.2203 0 0)
(14.2192 0 0)
(14.218 0 0)
(14.2168 0 0)
(14.2156 0 0)
(14.2144 0 0)
(14.2132 0 0)
(14.2119 0 0)
(14.2107 0 0)
(14.2094 0 0)
(14.2081 0 0)
(14.2068 0 0)
(14.2055 0 0)
(14.2042 0 0)
(14.2029 0 0)
(14.2016 0 0)
(14.2002 0 0)
(14.1988 0 0)
(14.1975 0 0)
(14.1961 0 0)
(14.1947 0 0)
(14.1932 0 0)
(14.1918 0 0)
(14.1904 0 0)
(14.1889 0 0)
(14.1874 0 0)
(14.1859 0 0)
(14.1844 0 0)
(14.1829 0 0)
(14.1813 0 0)
(14.1798 0 0)
(14.1782 0 0)
(14.1766 0 0)
(14.175 0 0)
(14.1733 0 0)
(14.1717 0 0)
(14.17 0 0)
(14.1683 0 0)
(14.1666 0 0)
(14.1649 0 0)
(14.1632 0 0)
(14.1614 0 0)
(14.1596 0 0)
(14.1578 0 0)
(14.156 0 0)
(14.1541 0 0)
(14.1523 0 0)
(14.1504 0 0)
(14.1485 0 0)
(14.1465 0 0)
(14.1446 0 0)
(14.1426 0 0)
(14.1406 0 0)
(14.1386 0 0)
(14.1365 0 0)
(14.1344 0 0)
(14.1323 0 0)
(14.1302 0 0)
(14.1281 0 0)
(14.1259 0 0)
(14.1237 0 0)
(14.1215 0 0)
(14.1192 0 0)
(14.117 0 0)
(14.1147 0 0)
(14.1123 0 0)
(14.11 0 0)
(14.1076 0 0)
(14.1052 0 0)
(14.1028 0 0)
(14.1003 0 0)
(14.0978 0 0)
(14.0953 0 0)
(14.0928 0 0)
(14.0902 0 0)
(14.0876 0 0)
(14.085 0 0)
(14.0824 0 0)
(14.0797 0 0)
(14.077 0 0)
(14.0742 0 0)
(14.0715 0 0)
(14.0687 0 0)
(14.0659 0 0)
(14.063 0 0)
(14.0601 0 0)
(14.0572 0 0)
(14.0543 0 0)
(14.0513 0 0)
(14.0483 0 0)
(14.0453 0 0)
(14.0423 0 0)
(14.0391 0 0)
(14.0358 0 0)
(14.0315 0 0)
)
;

boundaryField
{
    boundary
    {
        type            empty;
    }
    inlet
    {
        type            fixedValue;
        value           uniform (2.34893 0 0);
    }
    outlet
    {
        type            zeroGradient;
    }
}


// ************************************************************************* //
