/*--------------------------------*- C++ -*----------------------------------*\
  =========                 |
  \\      /  F ield         | OpenFOAM: The Open Source CFD Toolbox
   \\    /   O peration     | Website:  https://openfoam.org
    \\  /    A nd           | Version:  7
     \\/     M anipulation  |
\*---------------------------------------------------------------------------*/
FoamFile
{
    version     2.0;
    format      ascii;
    class       volScalarField;
    location    "0.00025";
    object      N2;
}
// * * * * * * * * * * * * * * * * * * * * * * * * * * * * * * * * * * * * * //

dimensions      [0 0 0 0 0 0 0];

internalField   nonuniform List<scalar> 
500
(
0.745219
0.745219
0.745219
0.745219
0.745219
0.745219
0.745219
0.745219
0.745219
0.745219
0.745219
0.745219
0.745219
0.745219
0.745219
0.745219
0.74522
0.74522
0.74522
0.74522
0.74522
0.74522
0.74522
0.74522
0.74522
0.74522
0.74522
0.74522
0.74522
0.74522
0.74522
0.74522
0.74522
0.74522
0.74522
0.74522
0.74522
0.74522
0.74522
0.74522
0.74522
0.74522
0.74522
0.74522
0.74522
0.74522
0.74522
0.74522
0.74522
0.74522
0.74522
0.74522
0.74522
0.74522
0.74522
0.74522
0.74522
0.74522
0.74522
0.74522
0.74522
0.74522
0.74522
0.74522
0.74522
0.74522
0.74522
0.74522
0.74522
0.74522
0.74522
0.74522
0.74522
0.74522
0.74522
0.74522
0.74522
0.74522
0.74522
0.74522
0.74522
0.74522
0.74522
0.74522
0.74522
0.74522
0.74522
0.74522
0.74522
0.74522
0.74522
0.74522
0.74522
0.74522
0.74522
0.74522
0.74522
0.74522
0.74522
0.74522
0.74522
0.74522
0.74522
0.74522
0.74522
0.74522
0.74522
0.74522
0.74522
0.74522
0.74522
0.74522
0.74522
0.74522
0.74522
0.74522
0.74522
0.74522
0.74522
0.74522
0.74522
0.74522
0.74522
0.74522
0.74522
0.74522
0.74522
0.74522
0.74522
0.74522
0.74522
0.74522
0.74522
0.74522
0.74522
0.74522
0.74522
0.74522
0.74522
0.74522
0.74522
0.74522
0.74522
0.74522
0.74522
0.74522
0.74522
0.74522
0.74522
0.74522
0.74522
0.74522
0.74522
0.74522
0.74522
0.74522
0.74522
0.74522
0.74522
0.74522
0.74522
0.74522
0.74522
0.74522
0.74522
0.74522
0.74522
0.74522
0.74522
0.74522
0.74522
0.74522
0.74522
0.74522
0.74522
0.74522
0.74522
0.74522
0.74522
0.74522
0.74522
0.74522
0.74522
0.74522
0.74522
0.74522
0.74522
0.74522
0.74522
0.74522
0.74522
0.74522
0.74522
0.74522
0.74522
0.74522
0.74522
0.74522
0.74522
0.74522
0.74522
0.74522
0.74522
0.74522
0.74522
0.74522
0.74522
0.74522
0.74522
0.74522
0.74522
0.74522
0.74522
0.74522
0.74522
0.74522
0.74522
0.74522
0.74522
0.74522
0.74522
0.74522
0.74522
0.74522
0.74522
0.74522
0.74522
0.74522
0.74522
0.74522
0.74522
0.74522
0.74522
0.74522
0.74522
0.74522
0.74522
0.74522
0.74522
0.74522
0.74522
0.74522
0.74522
0.74522
0.74522
0.74522
0.74522
0.74522
0.74522
0.74522
0.74522
0.74522
0.74522
0.74522
0.74522
0.74522
0.74522
0.74522
0.74522
0.74522
0.74522
0.74522
0.74522
0.74522
0.74522
0.74522
0.74522
0.74522
0.74522
0.745221
0.745223
0.745228
0.745236
0.745254
0.74529
0.745356
0.745465
0.745591
0.745612
0.745403
0.745025
0.744511
0.743957
0.743629
0.743679
0.743959
0.744138
0.744739
0.744959
0.745114
0.745214
0.745276
0.745313
0.745335
0.745346
0.745352
0.745354
0.745353
0.745351
0.745347
0.745343
0.745338
0.745332
0.745327
0.745321
0.745315
0.745309
0.745303
0.745297
0.745291
0.745285
0.745279
0.745273
0.745267
0.745261
0.745255
0.74525
0.745244
0.745238
0.745233
0.745227
0.745222
0.745216
0.745211
0.745205
0.7452
0.745194
0.745189
0.745184
0.745179
0.745173
0.745168
0.745163
0.745158
0.745153
0.745149
0.745145
0.745141
0.745137
0.745134
0.745132
0.74513
0.745128
0.745128
0.745128
0.74513
0.745132
0.745135
0.74514
0.745146
0.745153
0.745162
0.745172
0.745184
0.745197
0.745212
0.745228
0.745246
0.745265
0.745286
0.745308
0.745331
0.745356
0.745382
0.745408
0.745436
0.745463
0.745491
0.74552
0.745548
0.745575
0.745602
0.745627
0.745651
0.745673
0.745693
0.745713
0.745732
0.745748
0.745762
0.745773
0.745781
0.745786
0.745788
0.745787
0.745783
0.745776
0.745765
0.745752
0.745735
0.745716
0.745694
0.745669
0.745642
0.745613
0.745582
0.745549
0.745515
0.74548
0.745444
0.745408
0.745371
0.745334
0.745297
0.745261
0.745226
0.745192
0.745158
0.745127
0.745097
0.745068
0.745042
0.745018
0.744995
0.744975
0.744957
0.744942
0.744929
0.744917
0.744909
0.744902
0.744897
0.744894
0.744894
0.744895
0.744897
0.744901
0.744907
0.744913
0.744921
0.74493
0.74494
0.74495
0.744961
0.744972
0.744984
0.744995
0.745007
0.745019
0.745031
0.745043
0.745054
0.745065
0.745076
0.745087
0.745097
0.745106
0.745115
0.745124
0.745132
0.74514
0.745147
0.745154
0.74516
0.745166
0.745171
0.745176
0.74518
0.745184
0.745188
0.745192
0.745195
0.745198
0.7452
0.745202
0.745204
0.745206
0.745208
0.745209
0.745211
0.745212
0.745213
0.745214
0.745214
0.745215
0.745216
0.745216
0.745217
0.745217
0.745217
0.745218
0.745218
0.745218
0.745218
0.745219
0.745219
0.745219
0.745219
0.745219
0.745219
0.745219
0.745219
0.745219
0.745219
0.745219
0.745219
0.745219
0.745219
0.745219
0.745219
)
;

boundaryField
{
    boundary
    {
        type            empty;
    }
    inlet
    {
        type            fixedValue;
        value           uniform 0.74522;
    }
    outlet
    {
        type            zeroGradient;
    }
}


// ************************************************************************* //
