/*--------------------------------*- C++ -*----------------------------------*\
  =========                 |
  \\      /  F ield         | OpenFOAM: The Open Source CFD Toolbox
   \\    /   O peration     | Website:  https://openfoam.org
    \\  /    A nd           | Version:  7
     \\/     M anipulation  |
\*---------------------------------------------------------------------------*/
FoamFile
{
    version     2.0;
    format      ascii;
    class       volScalarField;
    location    "0.00025";
    object      O2;
}
// * * * * * * * * * * * * * * * * * * * * * * * * * * * * * * * * * * * * * //

dimensions      [0 0 0 0 0 0 0];

internalField   nonuniform List<scalar> 
500
(
0.226269
0.226269
0.226269
0.226269
0.226269
0.226269
0.226269
0.226269
0.226269
0.226269
0.226269
0.226269
0.226269
0.226269
0.226269
0.226269
0.226269
0.226269
0.226269
0.226269
0.226269
0.226269
0.226269
0.226269
0.226269
0.226269
0.226269
0.226269
0.226269
0.226269
0.226269
0.226269
0.226269
0.226269
0.226269
0.226269
0.226269
0.226269
0.226269
0.226269
0.226269
0.226269
0.226269
0.226269
0.226269
0.226269
0.226269
0.226269
0.226269
0.226269
0.226269
0.226269
0.226269
0.226269
0.226269
0.226269
0.226269
0.226269
0.226269
0.226269
0.226269
0.226269
0.226269
0.226269
0.226269
0.226269
0.226269
0.226269
0.226269
0.226269
0.226269
0.226269
0.226269
0.226269
0.226269
0.226269
0.226269
0.226269
0.226269
0.226269
0.226269
0.226269
0.226269
0.226269
0.226269
0.226269
0.226269
0.226269
0.226269
0.226269
0.226269
0.226269
0.226269
0.226269
0.226269
0.226269
0.226269
0.226269
0.226269
0.226269
0.226269
0.226269
0.226269
0.226269
0.226269
0.226269
0.226269
0.226269
0.226269
0.226269
0.226269
0.226269
0.226269
0.226269
0.226269
0.226269
0.226269
0.226269
0.226269
0.226269
0.226269
0.226269
0.226269
0.226269
0.226269
0.226269
0.226269
0.226269
0.226269
0.226269
0.226269
0.226269
0.226269
0.226269
0.226269
0.226269
0.226269
0.226269
0.226269
0.226269
0.226269
0.226269
0.226269
0.226269
0.226269
0.226269
0.226269
0.226269
0.226269
0.226269
0.226269
0.226269
0.226269
0.226269
0.226269
0.226269
0.226269
0.226269
0.226269
0.226269
0.226269
0.226269
0.226269
0.226269
0.226269
0.226269
0.226269
0.226269
0.226269
0.226269
0.226269
0.226269
0.226269
0.226269
0.226269
0.226269
0.226269
0.226269
0.226269
0.226269
0.226269
0.226269
0.226269
0.226269
0.226269
0.226269
0.226269
0.226269
0.226269
0.226269
0.226269
0.226269
0.226269
0.226269
0.226269
0.226269
0.226269
0.226269
0.226269
0.226269
0.226269
0.226269
0.226269
0.226269
0.226269
0.226269
0.226269
0.226269
0.226269
0.226269
0.226269
0.226269
0.226269
0.226269
0.226269
0.226269
0.226269
0.226269
0.226269
0.226269
0.226269
0.226269
0.226269
0.226269
0.226269
0.226269
0.226269
0.226269
0.226269
0.226269
0.226269
0.226269
0.226269
0.226269
0.226269
0.226269
0.226269
0.226269
0.226269
0.226269
0.226269
0.226269
0.226269
0.226269
0.226269
0.226269
0.226269
0.226269
0.226269
0.226269
0.226269
0.226269
0.226269
0.226269
0.226269
0.226269
0.226269
0.226269
0.226269
0.226269
0.226269
0.226269
0.226269
0.226269
0.226269
0.226269
0.226269
0.226269
0.226269
0.226269
0.22627
0.226271
0.226274
0.226277
0.226277
0.226248
0.226083
0.225406
0.223229
0.21772
0.207521
0.193795
0.176445
0.154356
0.128807
0.104007
0.0840026
0.0658225
0.0550338
0.0477279
0.0427814
0.0393721
0.0369482
0.0351556
0.0337718
0.032658
0.0317273
0.0309252
0.0302168
0.0295792
0.0289972
0.0284604
0.0279612
0.0274941
0.027055
0.0266403
0.0262475
0.0258743
0.0255189
0.0251796
0.0248552
0.0245447
0.0242565
0.0239823
0.0237162
0.0234577
0.023206
0.0229606
0.022721
0.0224867
0.0222573
0.0220323
0.0218114
0.0215941
0.0213802
0.0211692
0.0209609
0.020755
0.0205511
0.020349
0.0201484
0.019949
0.0197506
0.0195529
0.0193557
0.0191587
0.0189616
0.0187644
0.0185666
0.0183682
0.018169
0.0179686
0.017767
0.017564
0.0173594
0.0171532
0.0169452
0.0167354
0.0165237
0.01631
0.0160944
0.0158769
0.0156575
0.0154364
0.0152137
0.0149894
0.0147639
0.0145373
0.0143099
0.0140818
0.0138535
0.0136251
0.0133972
0.0131699
0.0129436
0.0127188
0.0124957
0.0122748
0.0120563
0.0118406
0.011628
0.0114186
0.0112127
0.0110101
0.0108104
0.0106119
0.0104273
0.0102467
0.0100714
0.00990153
0.00973724
0.00957854
0.00942547
0.00927802
0.00913617
0.00899988
0.00886908
0.00874369
0.00862362
0.00850877
0.00839903
0.00829427
0.00819439
0.00809924
0.00800871
0.00792267
0.00784099
0.00776354
0.00769019
0.00762083
0.00755534
0.0074936
0.00743551
0.00738096
0.00732986
0.00728211
0.00723762
0.00719633
0.00715813
0.00712296
0.00709075
0.00706141
0.00703489
0.0070111
0.00698997
0.00697143
0.0069554
0.00694178
0.00693051
0.00692148
0.0069146
0.00690976
0.00690687
0.0069058
0.00690644
0.00690868
0.00691238
0.00691743
0.00692369
0.00693103
0.00693932
0.00694844
0.00695827
0.00696867
0.00697953
0.00699074
0.00700218
0.00701376
0.00702539
0.00703696
0.00704842
0.00705968
0.00707069
0.00708138
0.00709172
0.00710167
0.00711119
0.00712026
0.00712887
0.00713701
0.00714466
0.00715184
0.00715854
0.00716477
0.00717055
0.0071759
0.00718082
0.00718533
0.00718947
0.00719324
0.00719667
0.00719978
0.00720259
0.00720513
0.00720742
0.00720947
0.0072113
0.00721294
0.0072144
0.00721569
0.00721684
0.00721786
0.00721876
0.00721955
0.00722025
0.00722086
0.0072214
0.00722187
0.00722229
0.00722265
0.00722296
0.00722324
0.00722348
0.00722369
0.00722388
0.00722404
0.00722418
0.00722431
0.00722442
0.00722452
0.0072246
0.00722468
0.00722475
0.00722481
0.00722487
0.00722492
0.00722497
0.00722501
0.00722504
0.00722507
)
;

boundaryField
{
    boundary
    {
        type            empty;
    }
    inlet
    {
        type            fixedValue;
        value           uniform 0.226269;
    }
    outlet
    {
        type            zeroGradient;
    }
}


// ************************************************************************* //
