/*--------------------------------*- C++ -*----------------------------------*\
  =========                 |
  \\      /  F ield         | OpenFOAM: The Open Source CFD Toolbox
   \\    /   O peration     | Website:  https://openfoam.org
    \\  /    A nd           | Version:  7
     \\/     M anipulation  |
\*---------------------------------------------------------------------------*/
FoamFile
{
    version     2.0;
    format      ascii;
    class       volScalarField;
    location    "0.00025";
    object      OH;
}
// * * * * * * * * * * * * * * * * * * * * * * * * * * * * * * * * * * * * * //

dimensions      [0 0 0 0 0 0 0];

internalField   nonuniform List<scalar> 
500
(
9.42158e-48
1.84198e-47
2.4647e-47
2.89598e-47
3.19993e-47
3.42175e-47
3.5929e-47
3.73527e-47
3.86407e-47
3.98978e-47
4.11942e-47
4.25736e-47
4.40585e-47
4.56535e-47
4.73475e-47
4.91162e-47
5.09249e-47
5.2732e-47
5.44933e-47
5.61662e-47
5.77137e-47
5.91076e-47
6.03303e-47
6.1375e-47
6.22447e-47
6.29509e-47
6.35102e-47
6.39429e-47
6.42699e-47
6.45116e-47
6.46864e-47
6.48102e-47
6.48962e-47
6.49546e-47
6.49937e-47
6.50193e-47
6.50358e-47
6.50463e-47
6.50528e-47
6.50568e-47
6.50593e-47
6.50608e-47
6.50617e-47
6.50623e-47
6.50627e-47
6.5063e-47
6.50632e-47
6.50634e-47
6.50636e-47
6.50639e-47
6.50641e-47
6.50643e-47
6.50646e-47
6.50649e-47
6.50652e-47
6.50655e-47
6.50659e-47
6.50663e-47
6.50667e-47
6.50671e-47
6.50676e-47
6.50681e-47
6.50686e-47
6.50692e-47
6.50698e-47
6.50704e-47
6.50711e-47
6.50718e-47
6.50726e-47
6.50734e-47
6.50742e-47
6.50751e-47
6.50761e-47
6.50771e-47
6.50781e-47
6.50792e-47
6.50803e-47
6.50815e-47
6.50828e-47
6.50841e-47
6.50855e-47
6.5087e-47
6.50885e-47
6.509e-47
6.50917e-47
6.50934e-47
6.50952e-47
6.50971e-47
6.5099e-47
6.5101e-47
6.51031e-47
6.51052e-47
6.51075e-47
6.51098e-47
6.51122e-47
6.51147e-47
6.51173e-47
6.51199e-47
6.51227e-47
6.51255e-47
6.51285e-47
6.51315e-47
6.51346e-47
6.51378e-47
6.51411e-47
6.51444e-47
6.51479e-47
6.51515e-47
6.51551e-47
6.51589e-47
6.51627e-47
6.51667e-47
6.51707e-47
6.51748e-47
6.5179e-47
6.51833e-47
6.51877e-47
6.51922e-47
6.51967e-47
6.52014e-47
6.52061e-47
6.52108e-47
6.52156e-47
6.52204e-47
6.52248e-47
6.5229e-47
6.52339e-47
6.52386e-47
6.52433e-47
6.52478e-47
6.52522e-47
6.52566e-47
6.52608e-47
6.52651e-47
6.52695e-47
6.52741e-47
6.52789e-47
6.52839e-47
6.52893e-47
6.52951e-47
6.53012e-47
6.53075e-47
6.53141e-47
6.53209e-47
6.53277e-47
6.53344e-47
6.53411e-47
6.53476e-47
6.53538e-47
6.53599e-47
6.53657e-47
6.53712e-47
6.53765e-47
6.53816e-47
6.53864e-47
6.53909e-47
6.53952e-47
6.53993e-47
6.54032e-47
6.54067e-47
6.541e-47
6.54131e-47
6.54158e-47
6.54182e-47
6.54203e-47
6.5422e-47
6.54233e-47
6.54243e-47
6.54248e-47
6.54249e-47
6.54246e-47
6.54237e-47
6.54224e-47
6.54205e-47
6.5418e-47
6.5415e-47
6.54114e-47
6.54071e-47
6.54021e-47
6.53965e-47
6.53902e-47
6.53831e-47
6.53752e-47
6.53665e-47
6.5357e-47
6.53466e-47
6.53354e-47
6.53232e-47
6.53101e-47
6.5296e-47
6.52809e-47
6.52648e-47
6.52477e-47
6.52294e-47
6.521e-47
6.51896e-47
6.51679e-47
6.51451e-47
6.5121e-47
6.50958e-47
6.50692e-47
6.50414e-47
6.50124e-47
6.4982e-47
6.49503e-47
6.49172e-47
6.48828e-47
6.4847e-47
6.48099e-47
6.47714e-47
6.47315e-47
6.46904e-47
6.46488e-47
6.46119e-47
6.46137e-47
6.48721e-47
6.67788e-47
7.91178e-47
1.5676e-46
6.38811e-46
3.59837e-45
2.15707e-44
1.29513e-43
7.70617e-43
4.53556e-42
2.63939e-41
1.51838e-40
8.63367e-40
4.85174e-39
2.69422e-38
1.47828e-37
8.01348e-37
4.29134e-36
2.27008e-35
1.18618e-34
6.12216e-34
3.12115e-33
1.57181e-32
7.81986e-32
3.84395e-31
1.86734e-30
8.96731e-30
4.25844e-29
2.00075e-28
9.30547e-28
4.28742e-27
1.95854e-26
8.8792e-26
3.9996e-25
1.79231e-24
8.00141e-24
3.56589e-23
1.58697e-22
7.06574e-22
3.15148e-21
1.40951e-20
6.32561e-20
2.84937e-19
1.28822e-18
5.8437e-18
2.65836e-17
1.21199e-16
5.53447e-16
2.5299e-15
1.15718e-14
5.2948e-14
2.42324e-13
1.10926e-12
5.07891e-12
2.32608e-11
1.06558e-10
4.93194e-10
2.3063e-09
1.08552e-08
5.15079e-08
2.51493e-07
1.34092e-06
8.43187e-06
5.7564e-05
0.000284984
0.000645742
0.000841575
0.00102738
0.00149619
0.00240046
0.00365777
0.00503959
0.00649813
0.0076217
0.00852229
0.00922888
0.00977895
0.0102082
0.0105456
0.0108133
0.0110275
0.0112003
0.0113404
0.0114543
0.0115471
0.0116223
0.0116831
0.0117316
0.0117698
0.0117991
0.0118208
0.0118358
0.0118452
0.0118494
0.0118493
0.0118451
0.0118375
0.0118272
0.0118147
0.0117999
0.0117831
0.0117644
0.0117439
0.0117218
0.011698
0.0116729
0.0116464
0.0116186
0.0115895
0.0115593
0.011528
0.0114956
0.0114621
0.0114276
0.0113921
0.0113556
0.0113181
0.0112796
0.0112401
0.0111996
0.011158
0.0111155
0.0110719
0.0110272
0.0109815
0.0109347
0.0108867
0.0108377
0.0107874
0.0107361
0.0106835
0.0106298
0.010575
0.010519
0.0104618
0.0104036
0.0103443
0.0102839
0.0102226
0.0101604
0.0100974
0.0100336
0.00996911
0.00990411
0.00983867
0.00977292
0.00970697
0.00964096
0.00957505
0.00950935
0.00944403
0.00937921
0.00931505
0.00925168
0.00918921
0.00912776
0.00906743
0.00900829
0.00895039
0.00889377
0.00883853
0.00878514
0.00873345
0.00868341
0.00863497
0.00858808
0.00854267
0.00849866
0.00845597
0.00841449
0.0083741
0.00833467
0.00829605
0.00825811
0.00822069
0.00818363
0.00814679
0.00811001
0.00807314
0.00803604
0.00799858
0.00796064
0.00792209
0.00788284
0.00784281
0.00780193
0.00776013
0.00771739
0.00767368
0.00762899
0.00758335
0.00753677
0.0074893
0.007441
0.00739194
0.0073422
0.00729187
0.00724106
0.00718988
0.00713843
0.00708684
0.00703523
0.00698372
0.00693245
0.00688152
0.00683106
0.00678118
0.006732
0.00668362
0.00663615
0.00658966
0.00654426
0.00650001
0.00645698
0.00641525
0.00637486
0.00633585
0.00629827
0.00626214
0.00622749
0.00619433
0.00616267
0.0061325
0.00610382
0.00607661
0.00605087
0.00602656
0.00600365
0.00598211
0.00596191
0.00594301
0.00592535
0.0059089
0.00589361
0.00587942
0.00586629
0.00585416
0.00584299
0.00583272
0.0058233
0.00581469
0.00580682
0.00579965
0.00579313
0.00578723
0.00578188
0.00577706
0.00577272
0.00576883
0.00576534
0.00576222
0.00575944
0.00575697
0.00575478
0.00575284
0.00575114
0.00574964
0.00574832
0.00574718
0.00574618
0.00574531
0.00574457
0.00574393
0.00574338
0.00574291
0.00574251
0.00574218
0.00574191
0.00574168
0.00574149
0.00574134
0.00574122
0.00574113
0.00574106
0.00574101
0.00574098
0.00574096
0.00574096
0.00574096
0.00574098
0.005741
0.00574102
0.00574105
0.00574107
0.00574109
)
;

boundaryField
{
    boundary
    {
        type            empty;
    }
    inlet
    {
        type            fixedValue;
        value           uniform 0;
    }
    outlet
    {
        type            zeroGradient;
    }
}


// ************************************************************************* //
