/*--------------------------------*- C++ -*----------------------------------*\
  =========                 |
  \\      /  F ield         | OpenFOAM: The Open Source CFD Toolbox
   \\    /   O peration     | Website:  https://openfoam.org
    \\  /    A nd           | Version:  7
     \\/     M anipulation  |
\*---------------------------------------------------------------------------*/
FoamFile
{
    version     2.0;
    format      ascii;
    class       volScalarField;
    location    "0.00025";
    object      Qdot;
}
// * * * * * * * * * * * * * * * * * * * * * * * * * * * * * * * * * * * * * //

dimensions      [1 -1 -3 0 0 0 0];

internalField   nonuniform List<scalar> 
500
(
-2.45455e-27
-1.86983e-27
-1.7491e-27
-1.72969e-27
-1.73383e-27
-1.7453e-27
-1.76122e-27
-1.78156e-27
-1.80681e-27
-1.83744e-27
-1.87376e-27
-1.91584e-27
-1.96345e-27
-2.01607e-27
-2.07284e-27
-2.13258e-27
-2.19388e-27
-2.25514e-27
-2.31475e-27
-2.3712e-27
-2.4232e-27
-2.46981e-27
-2.51047e-27
-2.545e-27
-2.57357e-27
-2.59662e-27
-2.61475e-27
-2.62869e-27
-2.63915e-27
-2.64684e-27
-2.65236e-27
-2.65625e-27
-2.65894e-27
-2.66075e-27
-2.66196e-27
-2.66275e-27
-2.66325e-27
-2.66357e-27
-2.66377e-27
-2.66389e-27
-2.66396e-27
-2.664e-27
-2.66403e-27
-2.66405e-27
-2.66406e-27
-2.66407e-27
-2.66408e-27
-2.66408e-27
-2.66409e-27
-2.6641e-27
-2.6641e-27
-2.66411e-27
-2.66412e-27
-2.66413e-27
-2.66414e-27
-2.66415e-27
-2.66416e-27
-2.66417e-27
-2.66419e-27
-2.6642e-27
-2.66422e-27
-2.66423e-27
-2.66425e-27
-2.66427e-27
-2.66429e-27
-2.66431e-27
-2.66433e-27
-2.66435e-27
-2.66438e-27
-2.6644e-27
-2.66443e-27
-2.66446e-27
-2.66449e-27
-2.66452e-27
-2.66456e-27
-2.66459e-27
-2.66463e-27
-2.66467e-27
-2.66471e-27
-2.66475e-27
-2.6648e-27
-2.66485e-27
-2.6649e-27
-2.66495e-27
-2.665e-27
-2.66506e-27
-2.66512e-27
-2.66518e-27
-2.66524e-27
-2.66531e-27
-2.66537e-27
-2.66545e-27
-2.66552e-27
-2.6656e-27
-2.66567e-27
-2.66576e-27
-2.66584e-27
-2.66593e-27
-2.66602e-27
-2.66611e-27
-2.66621e-27
-2.66631e-27
-2.66641e-27
-2.66651e-27
-2.66662e-27
-2.66673e-27
-2.66685e-27
-2.66696e-27
-2.66708e-27
-2.66721e-27
-2.66733e-27
-2.66746e-27
-2.66759e-27
-2.66773e-27
-2.66787e-27
-2.66801e-27
-2.66815e-27
-2.6683e-27
-2.66845e-27
-2.6686e-27
-2.66876e-27
-2.66891e-27
-2.66907e-27
-2.66923e-27
-2.66942e-27
-2.66958e-27
-2.6697e-27
-2.66985e-27
-2.67e-27
-2.67016e-27
-2.6703e-27
-2.67045e-27
-2.6706e-27
-2.67075e-27
-2.6709e-27
-2.67105e-27
-2.67122e-27
-2.67139e-27
-2.67157e-27
-2.67176e-27
-2.67196e-27
-2.67216e-27
-2.67237e-27
-2.67259e-27
-2.6728e-27
-2.67302e-27
-2.67323e-27
-2.67343e-27
-2.67363e-27
-2.67383e-27
-2.67401e-27
-2.67419e-27
-2.67436e-27
-2.67452e-27
-2.67468e-27
-2.67483e-27
-2.67497e-27
-2.6751e-27
-2.67523e-27
-2.67534e-27
-2.67545e-27
-2.67555e-27
-2.67564e-27
-2.67572e-27
-2.67579e-27
-2.67584e-27
-2.67589e-27
-2.67592e-27
-2.67594e-27
-2.67594e-27
-2.67593e-27
-2.6759e-27
-2.67586e-27
-2.6758e-27
-2.67572e-27
-2.67562e-27
-2.6755e-27
-2.67536e-27
-2.67519e-27
-2.67501e-27
-2.6748e-27
-2.67457e-27
-2.67431e-27
-2.67402e-27
-2.67371e-27
-2.67337e-27
-2.673e-27
-2.6726e-27
-2.67217e-27
-2.67171e-27
-2.67121e-27
-2.67068e-27
-2.67012e-27
-2.66952e-27
-2.66889e-27
-2.66821e-27
-2.6675e-27
-2.66675e-27
-2.66596e-27
-2.66513e-27
-2.66426e-27
-2.66335e-27
-2.66239e-27
-2.66139e-27
-2.66035e-27
-2.65927e-27
-2.65814e-27
-2.65696e-27
-2.65574e-27
-2.65447e-27
-2.65316e-27
-2.65181e-27
-2.6504e-27
-2.64895e-27
-2.64746e-27
-2.64592e-27
-2.64433e-27
-2.6427e-27
-2.64103e-27
-2.63931e-27
-2.63754e-27
-2.63571e-27
-2.63373e-27
-2.63105e-27
-2.62452e-27
-2.59609e-27
-2.44382e-27
-1.59801e-27
3.08638e-27
2.87634e-26
1.67856e-25
9.1217e-25
4.84607e-24
2.53786e-23
1.31198e-22
6.6965e-22
3.37463e-21
1.679e-20
8.2474e-20
3.9999e-19
1.91553e-18
9.05963e-18
4.23275e-17
1.95424e-16
8.92033e-16
4.02803e-15
1.80072e-14
7.9773e-14
3.50608e-13
1.5309e-12
6.65215e-12
2.88904e-11
1.25084e-10
5.41891e-10
2.35389e-09
1.02691e-08
4.5049e-08
1.98874e-07
8.83723e-07
3.95194e-06
1.77755e-05
8.03615e-05
0.000364847
0.0016627
0.00760373
0.0349006
0.160908
0.746357
3.49184
16.5424
84.0333
467.848
3109.16
23759.5
196194
1.80195e+06
1.72287e+07
1.5789e+08
1.16473e+09
4.97869e+09
1.06559e+10
1.34358e+10
1.38689e+10
1.39073e+10
1.37451e+10
1.28754e+10
1.11653e+10
9.13232e+09
7.41462e+09
6.11398e+09
5.11675e+09
4.35793e+09
3.77321e+09
3.31416e+09
2.94648e+09
2.64631e+09
2.39698e+09
2.18677e+09
2.00722e+09
1.85214e+09
1.71692e+09
1.59803e+09
1.49275e+09
1.39891e+09
1.31481e+09
1.23904e+09
1.17049e+09
1.1082e+09
1.0514e+09
9.99428e+08
9.51751e+08
9.07978e+08
8.68744e+08
8.32968e+08
7.99443e+08
7.68071e+08
7.38636e+08
7.10979e+08
6.84942e+08
6.60399e+08
6.37221e+08
6.15307e+08
5.94564e+08
5.74903e+08
5.56245e+08
5.38522e+08
5.21666e+08
5.0562e+08
4.90329e+08
4.75743e+08
4.61816e+08
4.48507e+08
4.35776e+08
4.23587e+08
4.11907e+08
4.00706e+08
3.89953e+08
3.79622e+08
3.69688e+08
3.60126e+08
3.50915e+08
3.42034e+08
3.33463e+08
3.25183e+08
3.17177e+08
3.09428e+08
3.0192e+08
2.94637e+08
2.87567e+08
2.80695e+08
2.74008e+08
2.67495e+08
2.61142e+08
2.54941e+08
2.48879e+08
2.42947e+08
2.37136e+08
2.31437e+08
2.25842e+08
2.20342e+08
2.14932e+08
2.09604e+08
2.04353e+08
1.99173e+08
1.94059e+08
1.89009e+08
1.84017e+08
1.79083e+08
1.74202e+08
1.69375e+08
1.646e+08
1.59878e+08
1.55211e+08
1.50604e+08
1.46073e+08
1.41705e+08
1.37084e+08
1.32588e+08
1.28181e+08
1.23853e+08
1.19597e+08
1.1541e+08
1.11291e+08
1.07241e+08
1.03262e+08
9.93556e+07
9.55231e+07
9.17663e+07
8.80867e+07
8.44858e+07
8.09649e+07
7.75252e+07
7.41676e+07
7.0893e+07
6.77021e+07
6.45957e+07
6.15742e+07
5.86379e+07
5.57874e+07
5.30227e+07
5.03442e+07
4.77518e+07
4.52457e+07
4.28258e+07
4.04919e+07
3.82437e+07
3.60812e+07
3.40034e+07
3.20098e+07
3.00996e+07
2.82719e+07
2.65255e+07
2.4859e+07
2.32711e+07
2.17599e+07
2.03237e+07
1.89607e+07
1.76686e+07
1.64453e+07
1.52886e+07
1.41961e+07
1.31654e+07
1.2194e+07
1.12796e+07
1.04197e+07
9.61185e+06
8.85365e+06
8.14273e+06
7.47683e+06
6.85365e+06
6.27102e+06
5.72682e+06
5.21902e+06
4.74565e+06
4.30482e+06
3.89473e+06
3.51341e+06
3.15965e+06
2.83157e+06
2.52763e+06
2.24666e+06
1.98698e+06
1.74722e+06
1.52616e+06
1.32286e+06
1.13615e+06
964644
807500
663772
532384
412684
303695
204691
115041
33172.6
-40444.2
-106901
-166802
-220678
-269139
-311689
-351025
-384224
-416123
-443387
-467601
-489136
-506924
-524949
-539668
-552758
-564086
-574249
-583119
-590916
-597735
-603726
-609005
-613923
-617834
-621349
-624406
-627599
-630268
-632292
-634261
-636080
-637673
-639467
-640961
-642100
-643404
-644593
-645708
-646771
-647805
-648849
-649818
-650724
-651462
)
;

boundaryField
{
    boundary
    {
        type            empty;
    }
    inlet
    {
        type            calculated;
        value           uniform 0;
    }
    outlet
    {
        type            calculated;
        value           uniform 0;
    }
}


// ************************************************************************* //
