/*--------------------------------*- C++ -*----------------------------------*\
  =========                 |
  \\      /  F ield         | OpenFOAM: The Open Source CFD Toolbox
   \\    /   O peration     | Website:  https://openfoam.org
    \\  /    A nd           | Version:  7
     \\/     M anipulation  |
\*---------------------------------------------------------------------------*/
FoamFile
{
    version     2.0;
    format      ascii;
    class       volVectorField;
    location    "0.00025";
    object      U;
}
// * * * * * * * * * * * * * * * * * * * * * * * * * * * * * * * * * * * * * //

dimensions      [0 1 -1 0 0 0 0];

internalField   nonuniform List<vector> 
500
(
(2.34893 0 0)
(2.34889 0 0)
(2.34882 0 0)
(2.34876 0 0)
(2.34872 0 0)
(2.34869 0 0)
(2.34868 0 0)
(2.34867 0 0)
(2.34867 0 0)
(2.34867 0 0)
(2.34867 0 0)
(2.34867 0 0)
(2.34866 0 0)
(2.34863 0 0)
(2.34858 0 0)
(2.34851 0 0)
(2.34842 0 0)
(2.34832 0 0)
(2.34819 0 0)
(2.34805 0 0)
(2.3479 0 0)
(2.34775 0 0)
(2.3476 0 0)
(2.34744 0 0)
(2.3473 0 0)
(2.34716 0 0)
(2.34703 0 0)
(2.34691 0 0)
(2.3468 0 0)
(2.34669 0 0)
(2.34659 0 0)
(2.3465 0 0)
(2.34641 0 0)
(2.34632 0 0)
(2.34624 0 0)
(2.34616 0 0)
(2.34607 0 0)
(2.34599 0 0)
(2.34591 0 0)
(2.34583 0 0)
(2.34576 0 0)
(2.34568 0 0)
(2.3456 0 0)
(2.34552 0 0)
(2.34544 0 0)
(2.34536 0 0)
(2.34528 0 0)
(2.3452 0 0)
(2.34512 0 0)
(2.34504 0 0)
(2.34496 0 0)
(2.34488 0 0)
(2.3448 0 0)
(2.34471 0 0)
(2.34463 0 0)
(2.34455 0 0)
(2.34447 0 0)
(2.34439 0 0)
(2.34431 0 0)
(2.34423 0 0)
(2.34414 0 0)
(2.34406 0 0)
(2.34398 0 0)
(2.3439 0 0)
(2.34381 0 0)
(2.34373 0 0)
(2.34365 0 0)
(2.34356 0 0)
(2.34348 0 0)
(2.3434 0 0)
(2.34331 0 0)
(2.34323 0 0)
(2.34314 0 0)
(2.34306 0 0)
(2.34297 0 0)
(2.34289 0 0)
(2.3428 0 0)
(2.34272 0 0)
(2.34263 0 0)
(2.34255 0 0)
(2.34246 0 0)
(2.34237 0 0)
(2.34229 0 0)
(2.3422 0 0)
(2.34211 0 0)
(2.34203 0 0)
(2.34194 0 0)
(2.34185 0 0)
(2.34177 0 0)
(2.34168 0 0)
(2.34159 0 0)
(2.3415 0 0)
(2.34141 0 0)
(2.34132 0 0)
(2.34123 0 0)
(2.34115 0 0)
(2.34106 0 0)
(2.34097 0 0)
(2.34088 0 0)
(2.34079 0 0)
(2.3407 0 0)
(2.34061 0 0)
(2.34052 0 0)
(2.34042 0 0)
(2.34033 0 0)
(2.34024 0 0)
(2.34015 0 0)
(2.34006 0 0)
(2.33997 0 0)
(2.33987 0 0)
(2.33978 0 0)
(2.33969 0 0)
(2.3396 0 0)
(2.3395 0 0)
(2.33941 0 0)
(2.33931 0 0)
(2.33922 0 0)
(2.33913 0 0)
(2.33903 0 0)
(2.33894 0 0)
(2.33884 0 0)
(2.33875 0 0)
(2.33865 0 0)
(2.33856 0 0)
(2.33846 0 0)
(2.33836 0 0)
(2.33826 0 0)
(2.33817 0 0)
(2.33808 0 0)
(2.33798 0 0)
(2.33788 0 0)
(2.33778 0 0)
(2.33769 0 0)
(2.33759 0 0)
(2.33749 0 0)
(2.33739 0 0)
(2.3373 0 0)
(2.3372 0 0)
(2.3371 0 0)
(2.337 0 0)
(2.3369 0 0)
(2.3368 0 0)
(2.3367 0 0)
(2.3366 0 0)
(2.3365 0 0)
(2.3364 0 0)
(2.3363 0 0)
(2.3362 0 0)
(2.3361 0 0)
(2.336 0 0)
(2.3359 0 0)
(2.33579 0 0)
(2.33569 0 0)
(2.33559 0 0)
(2.33549 0 0)
(2.33538 0 0)
(2.33528 0 0)
(2.33518 0 0)
(2.33507 0 0)
(2.33497 0 0)
(2.33487 0 0)
(2.33476 0 0)
(2.33466 0 0)
(2.33455 0 0)
(2.33445 0 0)
(2.33434 0 0)
(2.33424 0 0)
(2.33413 0 0)
(2.33403 0 0)
(2.33392 0 0)
(2.33381 0 0)
(2.33371 0 0)
(2.3336 0 0)
(2.33349 0 0)
(2.33339 0 0)
(2.33328 0 0)
(2.33317 0 0)
(2.33306 0 0)
(2.33296 0 0)
(2.33285 0 0)
(2.33274 0 0)
(2.33263 0 0)
(2.33252 0 0)
(2.33241 0 0)
(2.3323 0 0)
(2.33219 0 0)
(2.33208 0 0)
(2.33197 0 0)
(2.33186 0 0)
(2.33175 0 0)
(2.33164 0 0)
(2.33153 0 0)
(2.33142 0 0)
(2.33131 0 0)
(2.33119 0 0)
(2.33108 0 0)
(2.33097 0 0)
(2.33086 0 0)
(2.33074 0 0)
(2.33063 0 0)
(2.33052 0 0)
(2.33041 0 0)
(2.33029 0 0)
(2.33018 0 0)
(2.33006 0 0)
(2.32995 0 0)
(2.32984 0 0)
(2.32972 0 0)
(2.32961 0 0)
(2.32949 0 0)
(2.32938 0 0)
(2.32926 0 0)
(2.32915 0 0)
(2.32903 0 0)
(2.32891 0 0)
(2.3288 0 0)
(2.32868 0 0)
(2.32857 0 0)
(2.32845 0 0)
(2.32833 0 0)
(2.32821 0 0)
(2.3281 0 0)
(2.32798 0 0)
(2.32786 0 0)
(2.32775 0 0)
(2.32763 0 0)
(2.32751 0 0)
(2.32739 0 0)
(2.32727 0 0)
(2.32715 0 0)
(2.32704 0 0)
(2.32692 0 0)
(2.3268 0 0)
(2.32668 0 0)
(2.32656 0 0)
(2.32644 0 0)
(2.32632 0 0)
(2.3262 0 0)
(2.32608 0 0)
(2.32596 0 0)
(2.32584 0 0)
(2.32572 0 0)
(2.3256 0 0)
(2.32548 0 0)
(2.32536 0 0)
(2.32524 0 0)
(2.32512 0 0)
(2.32499 0 0)
(2.32487 0 0)
(2.32475 0 0)
(2.32463 0 0)
(2.3245 0 0)
(2.32438 0 0)
(2.32427 0 0)
(2.32414 0 0)
(2.32402 0 0)
(2.3239 0 0)
(2.32377 0 0)
(2.32365 0 0)
(2.32353 0 0)
(2.32341 0 0)
(2.32328 0 0)
(2.32316 0 0)
(2.32303 0 0)
(2.32291 0 0)
(2.32279 0 0)
(2.32266 0 0)
(2.32253 0 0)
(2.32241 0 0)
(2.32229 0 0)
(2.32222 0 0)
(2.32233 0 0)
(2.32298 0 0)
(2.32543 0 0)
(2.33319 0 0)
(2.35511 0 0)
(2.41086 0 0)
(2.54325 0 0)
(2.84037 0 0)
(3.45949 0 0)
(4.4775 0 0)
(5.70093 0 0)
(6.90971 0 0)
(7.99941 0 0)
(8.94542 0 0)
(9.74496 0 0)
(10.4136 0 0)
(10.9694 0 0)
(11.4166 0 0)
(11.7692 0 0)
(12.0565 0 0)
(12.3011 0 0)
(12.5142 0 0)
(12.7019 0 0)
(12.8688 0 0)
(13.0187 0 0)
(13.1543 0 0)
(13.278 0 0)
(13.3915 0 0)
(13.4961 0 0)
(13.593 0 0)
(13.6832 0 0)
(13.7673 0 0)
(13.8461 0 0)
(13.92 0 0)
(13.9897 0 0)
(14.0554 0 0)
(14.1176 0 0)
(14.1765 0 0)
(14.2324 0 0)
(14.2855 0 0)
(14.3359 0 0)
(14.3827 0 0)
(14.4264 0 0)
(14.4686 0 0)
(14.5094 0 0)
(14.5487 0 0)
(14.5866 0 0)
(14.6232 0 0)
(14.6587 0 0)
(14.6929 0 0)
(14.7261 0 0)
(14.7583 0 0)
(14.7895 0 0)
(14.8197 0 0)
(14.8491 0 0)
(14.8776 0 0)
(14.9053 0 0)
(14.9322 0 0)
(14.9585 0 0)
(14.984 0 0)
(15.0088 0 0)
(15.033 0 0)
(15.0566 0 0)
(15.0795 0 0)
(15.1019 0 0)
(15.1238 0 0)
(15.1452 0 0)
(15.166 0 0)
(15.1863 0 0)
(15.2062 0 0)
(15.2257 0 0)
(15.2447 0 0)
(15.2633 0 0)
(15.2815 0 0)
(15.2994 0 0)
(15.3169 0 0)
(15.334 0 0)
(15.3508 0 0)
(15.3673 0 0)
(15.3835 0 0)
(15.3995 0 0)
(15.4151 0 0)
(15.4305 0 0)
(15.4457 0 0)
(15.4606 0 0)
(15.4753 0 0)
(15.4898 0 0)
(15.5042 0 0)
(15.5183 0 0)
(15.5322 0 0)
(15.546 0 0)
(15.5596 0 0)
(15.573 0 0)
(15.5863 0 0)
(15.5994 0 0)
(15.6123 0 0)
(15.625 0 0)
(15.6376 0 0)
(15.65 0 0)
(15.6623 0 0)
(15.6743 0 0)
(15.6862 0 0)
(15.6979 0 0)
(15.7095 0 0)
(15.7207 0 0)
(15.7315 0 0)
(15.7419 0 0)
(15.7518 0 0)
(15.7616 0 0)
(15.7709 0 0)
(15.7798 0 0)
(15.7884 0 0)
(15.7965 0 0)
(15.8042 0 0)
(15.8114 0 0)
(15.8182 0 0)
(15.8246 0 0)
(15.8304 0 0)
(15.8358 0 0)
(15.8408 0 0)
(15.8452 0 0)
(15.8492 0 0)
(15.8528 0 0)
(15.8559 0 0)
(15.8586 0 0)
(15.8609 0 0)
(15.8628 0 0)
(15.8643 0 0)
(15.8655 0 0)
(15.8664 0 0)
(15.867 0 0)
(15.8673 0 0)
(15.8674 0 0)
(15.8673 0 0)
(15.8671 0 0)
(15.8666 0 0)
(15.8661 0 0)
(15.8655 0 0)
(15.8648 0 0)
(15.8641 0 0)
(15.8634 0 0)
(15.8626 0 0)
(15.8619 0 0)
(15.8612 0 0)
(15.8606 0 0)
(15.86 0 0)
(15.8595 0 0)
(15.8591 0 0)
(15.8588 0 0)
(15.8586 0 0)
(15.8584 0 0)
(15.8584 0 0)
(15.8584 0 0)
(15.8585 0 0)
(15.8587 0 0)
(15.859 0 0)
(15.8594 0 0)
(15.8598 0 0)
(15.8603 0 0)
(15.8608 0 0)
(15.8614 0 0)
(15.862 0 0)
(15.8627 0 0)
(15.8633 0 0)
(15.864 0 0)
(15.8647 0 0)
(15.8654 0 0)
(15.8661 0 0)
(15.8667 0 0)
(15.8674 0 0)
(15.868 0 0)
(15.8686 0 0)
(15.8692 0 0)
(15.8698 0 0)
(15.8703 0 0)
(15.8708 0 0)
(15.8712 0 0)
(15.8716 0 0)
(15.872 0 0)
(15.8724 0 0)
(15.8727 0 0)
(15.8729 0 0)
(15.8732 0 0)
(15.8733 0 0)
(15.8735 0 0)
(15.8736 0 0)
(15.8737 0 0)
(15.8738 0 0)
(15.8738 0 0)
(15.8738 0 0)
(15.8738 0 0)
(15.8737 0 0)
(15.8737 0 0)
(15.8736 0 0)
(15.8734 0 0)
(15.8733 0 0)
(15.8731 0 0)
(15.873 0 0)
(15.8728 0 0)
(15.8726 0 0)
(15.8724 0 0)
(15.8721 0 0)
(15.8719 0 0)
(15.8716 0 0)
(15.8714 0 0)
(15.8711 0 0)
(15.8708 0 0)
(15.8706 0 0)
(15.8703 0 0)
(15.87 0 0)
(15.8697 0 0)
(15.8694 0 0)
(15.869 0 0)
(15.8687 0 0)
(15.8684 0 0)
(15.8681 0 0)
(15.8678 0 0)
(15.8674 0 0)
(15.8671 0 0)
(15.8667 0 0)
(15.8664 0 0)
(15.8661 0 0)
(15.8657 0 0)
(15.8654 0 0)
(15.865 0 0)
(15.8647 0 0)
(15.8643 0 0)
(15.8639 0 0)
(15.8634 0 0)
)
;

boundaryField
{
    boundary
    {
        type            empty;
    }
    inlet
    {
        type            fixedValue;
        value           uniform (2.34893 0 0);
    }
    outlet
    {
        type            zeroGradient;
    }
}


// ************************************************************************* //
