/*--------------------------------*- C++ -*----------------------------------*\
  =========                 |
  \\      /  F ield         | OpenFOAM: The Open Source CFD Toolbox
   \\    /   O peration     | Website:  https://openfoam.org
    \\  /    A nd           | Version:  7
     \\/     M anipulation  |
\*---------------------------------------------------------------------------*/
FoamFile
{
    version     2.0;
    format      ascii;
    class       surfaceScalarField;
    location    "0.0008";
    object      phi;
}
// * * * * * * * * * * * * * * * * * * * * * * * * * * * * * * * * * * * * * //

dimensions      [1 0 -1 0 0 0 0];

internalField   nonuniform List<scalar> 
124
(
6.88199e-06
6.88197e-06
6.88195e-06
6.88193e-06
6.88191e-06
6.88189e-06
6.88187e-06
6.88185e-06
6.88184e-06
6.88182e-06
6.88181e-06
6.8818e-06
6.88179e-06
6.88178e-06
6.88177e-06
6.88176e-06
6.88176e-06
6.88178e-06
6.88186e-06
6.88211e-06
6.8829e-06
6.88526e-06
6.89214e-06
6.91079e-06
6.95262e-06
7.01613e-06
7.07606e-06
7.1176e-06
7.14449e-06
7.1628e-06
7.17585e-06
7.1852e-06
7.19188e-06
7.19665e-06
7.20014e-06
7.20279e-06
7.20487e-06
7.20655e-06
7.20795e-06
7.20913e-06
7.21015e-06
7.21104e-06
7.21182e-06
7.21251e-06
7.21314e-06
7.2137e-06
7.21422e-06
7.21469e-06
7.21512e-06
7.21553e-06
7.2159e-06
7.21625e-06
7.21657e-06
7.21688e-06
7.21717e-06
7.21744e-06
7.2177e-06
7.21795e-06
7.21818e-06
7.2184e-06
7.21862e-06
7.21881e-06
7.219e-06
7.21918e-06
7.21935e-06
7.21952e-06
7.21968e-06
7.21984e-06
7.21999e-06
7.22014e-06
7.22028e-06
7.22042e-06
7.22055e-06
7.22068e-06
7.2208e-06
7.22092e-06
7.22104e-06
7.22115e-06
7.22125e-06
7.22136e-06
7.22146e-06
7.22155e-06
7.22164e-06
7.22173e-06
7.22182e-06
7.2219e-06
7.22198e-06
7.22206e-06
7.22213e-06
7.2222e-06
7.22227e-06
7.22234e-06
7.22241e-06
7.22248e-06
7.22254e-06
7.22261e-06
7.22267e-06
7.22273e-06
7.22279e-06
7.22285e-06
7.22292e-06
7.22298e-06
7.22304e-06
7.2231e-06
7.22316e-06
7.22322e-06
7.22328e-06
7.22334e-06
7.2234e-06
7.22347e-06
7.22353e-06
7.22359e-06
7.22365e-06
7.22371e-06
7.22377e-06
7.22383e-06
7.22389e-06
7.22394e-06
7.224e-06
7.22406e-06
7.22411e-06
7.22416e-06
7.22422e-06
7.22427e-06
)
;

boundaryField
{
    boundary
    {
        type            empty;
        value           nonuniform 0();
    }
    inlet
    {
        type            calculated;
        value           nonuniform 0();
    }
    outlet
    {
        type            calculated;
        value           nonuniform 0();
    }
    procBoundary1to0
    {
        type            processor;
        value           uniform 7.22431e-06;
    }
    procBoundary1to3
    {
        type            processor;
        value           uniform -6.88202e-06;
    }
}


// ************************************************************************* //
