/*--------------------------------*- C++ -*----------------------------------*\
  =========                 |
  \\      /  F ield         | OpenFOAM: The Open Source CFD Toolbox
   \\    /   O peration     | Website:  https://openfoam.org
    \\  /    A nd           | Version:  7
     \\/     M anipulation  |
\*---------------------------------------------------------------------------*/
FoamFile
{
    version     2.0;
    format      ascii;
    class       volScalarField;
    location    "0.00021";
    object      H2O2;
}
// * * * * * * * * * * * * * * * * * * * * * * * * * * * * * * * * * * * * * //

dimensions      [0 0 0 0 0 0 0];

internalField   nonuniform List<scalar> 
124
(
6.45251e-07
6.2144e-07
5.98618e-07
5.76771e-07
5.55884e-07
5.35939e-07
5.16916e-07
4.98791e-07
4.81539e-07
4.65133e-07
4.49547e-07
4.34749e-07
4.20709e-07
4.07398e-07
3.94785e-07
3.82837e-07
3.71526e-07
3.60819e-07
3.50689e-07
3.41105e-07
3.3204e-07
3.23467e-07
3.1536e-07
3.07694e-07
3.00445e-07
2.93591e-07
2.8711e-07
2.80983e-07
2.7519e-07
2.69714e-07
2.64537e-07
2.59645e-07
2.55023e-07
2.50657e-07
2.46533e-07
2.42642e-07
2.3897e-07
2.35507e-07
2.32245e-07
2.29172e-07
2.26281e-07
2.23563e-07
2.21011e-07
2.18616e-07
2.16371e-07
2.14271e-07
2.12307e-07
2.10473e-07
2.08764e-07
2.07173e-07
2.05694e-07
2.04322e-07
2.03051e-07
2.01875e-07
2.00789e-07
1.99789e-07
1.98868e-07
1.98023e-07
1.97248e-07
1.9654e-07
1.95893e-07
1.95303e-07
1.94767e-07
1.9428e-07
1.9384e-07
1.93441e-07
1.93082e-07
1.92758e-07
1.92468e-07
1.92207e-07
1.91974e-07
1.91766e-07
1.91581e-07
1.91416e-07
1.91269e-07
1.9114e-07
1.91025e-07
1.90924e-07
1.90835e-07
1.90757e-07
1.90688e-07
1.90628e-07
1.90576e-07
1.9053e-07
1.9049e-07
1.90455e-07
1.90425e-07
1.90398e-07
1.90375e-07
1.90355e-07
1.90338e-07
1.90323e-07
1.9031e-07
1.90298e-07
1.90288e-07
1.90279e-07
1.90271e-07
1.90265e-07
1.90258e-07
1.90253e-07
1.90248e-07
1.90244e-07
1.9024e-07
1.90236e-07
1.90232e-07
1.90229e-07
1.90226e-07
1.90223e-07
1.9022e-07
1.90218e-07
1.90215e-07
1.90213e-07
1.90211e-07
1.90208e-07
1.90206e-07
1.90204e-07
1.90202e-07
1.902e-07
1.90198e-07
1.90196e-07
1.90194e-07
1.90192e-07
1.90191e-07
1.9019e-07
)
;

boundaryField
{
    boundary
    {
        type            empty;
    }
    inlet
    {
        type            fixedValue;
        value           nonuniform 0();
    }
    outlet
    {
        type            zeroGradient;
    }
    procBoundary0to1
    {
        type            processor;
        value           uniform 6.7007e-07;
    }
}


// ************************************************************************* //
