/*--------------------------------*- C++ -*----------------------------------*\
  =========                 |
  \\      /  F ield         | OpenFOAM: The Open Source CFD Toolbox
   \\    /   O peration     | Website:  https://openfoam.org
    \\  /    A nd           | Version:  7
     \\/     M anipulation  |
\*---------------------------------------------------------------------------*/
FoamFile
{
    version     2.0;
    format      ascii;
    class       surfaceScalarField;
    location    "0.00055";
    object      phi;
}
// * * * * * * * * * * * * * * * * * * * * * * * * * * * * * * * * * * * * * //

dimensions      [1 0 -1 0 0 0 0];

internalField   nonuniform List<scalar> 
123
(
7.25896e-06
7.25904e-06
7.25912e-06
7.2592e-06
7.25927e-06
7.25935e-06
7.25942e-06
7.25949e-06
7.25956e-06
7.25962e-06
7.25969e-06
7.25975e-06
7.25982e-06
7.25988e-06
7.25994e-06
7.25999e-06
7.26005e-06
7.2601e-06
7.26015e-06
7.26019e-06
7.26024e-06
7.26028e-06
7.26032e-06
7.26035e-06
7.26039e-06
7.26042e-06
7.26045e-06
7.26047e-06
7.26049e-06
7.26052e-06
7.26053e-06
7.26055e-06
7.26057e-06
7.26058e-06
7.26059e-06
7.26061e-06
7.26062e-06
7.26064e-06
7.26065e-06
7.26067e-06
7.2607e-06
7.26073e-06
7.26076e-06
7.2608e-06
7.26085e-06
7.2609e-06
7.26102e-06
7.26082e-06
7.26072e-06
7.26042e-06
7.26043e-06
7.26051e-06
7.26062e-06
7.26075e-06
7.2609e-06
7.26107e-06
7.26126e-06
7.26147e-06
7.2617e-06
7.26195e-06
7.26222e-06
7.26251e-06
7.26282e-06
7.26315e-06
7.2635e-06
7.26387e-06
7.26425e-06
7.26466e-06
7.26507e-06
7.2655e-06
7.26593e-06
7.26636e-06
7.26679e-06
7.26721e-06
7.26762e-06
7.26801e-06
7.26837e-06
7.26868e-06
7.26895e-06
7.26916e-06
7.26931e-06
7.26937e-06
7.26934e-06
7.2692e-06
7.26895e-06
7.26856e-06
7.26803e-06
7.26734e-06
7.26648e-06
7.26544e-06
7.2642e-06
7.26274e-06
7.26107e-06
7.25916e-06
7.25702e-06
7.25462e-06
7.25197e-06
7.24906e-06
7.24588e-06
7.24244e-06
7.23873e-06
7.23476e-06
7.23053e-06
7.22605e-06
7.22133e-06
7.21638e-06
7.21121e-06
7.20585e-06
7.2003e-06
7.19459e-06
7.18874e-06
7.18277e-06
7.17671e-06
7.17058e-06
7.16441e-06
7.15822e-06
7.15204e-06
7.1459e-06
7.13982e-06
7.13383e-06
7.12793e-06
7.12215e-06
7.11647e-06
)
;

boundaryField
{
    boundary
    {
        type            empty;
        value           nonuniform 0();
    }
    inlet
    {
        type            calculated;
        value           nonuniform 0();
    }
    outlet
    {
        type            calculated;
        value           uniform 7.11085e-06;
    }
    procBoundary0to1
    {
        type            processor;
        value           uniform -7.25888e-06;
    }
}


// ************************************************************************* //
