/*--------------------------------*- C++ -*----------------------------------*\
  =========                 |
  \\      /  F ield         | OpenFOAM: The Open Source CFD Toolbox
   \\    /   O peration     | Website:  https://openfoam.org
    \\  /    A nd           | Version:  7
     \\/     M anipulation  |
\*---------------------------------------------------------------------------*/
FoamFile
{
    version     2.0;
    format      ascii;
    class       volVectorField;
    location    "0.00055";
    object      U;
}
// * * * * * * * * * * * * * * * * * * * * * * * * * * * * * * * * * * * * * //

dimensions      [0 1 -1 0 0 0 0];

internalField   nonuniform List<vector> 
124
(
(15.8477 0 0)
(15.8584 0 0)
(15.8687 0 0)
(15.8788 0 0)
(15.8889 0 0)
(15.8988 0 0)
(15.9086 0 0)
(15.9183 0 0)
(15.9278 0 0)
(15.9373 0 0)
(15.9466 0 0)
(15.9558 0 0)
(15.9649 0 0)
(15.9738 0 0)
(15.9827 0 0)
(15.9915 0 0)
(16.0001 0 0)
(16.0087 0 0)
(16.0171 0 0)
(16.0255 0 0)
(16.0338 0 0)
(16.0419 0 0)
(16.05 0 0)
(16.058 0 0)
(16.0659 0 0)
(16.0737 0 0)
(16.0814 0 0)
(16.0891 0 0)
(16.0966 0 0)
(16.1041 0 0)
(16.1115 0 0)
(16.1189 0 0)
(16.1261 0 0)
(16.1333 0 0)
(16.1404 0 0)
(16.1474 0 0)
(16.1543 0 0)
(16.1612 0 0)
(16.168 0 0)
(16.1748 0 0)
(16.1814 0 0)
(16.188 0 0)
(16.1946 0 0)
(16.201 0 0)
(16.2074 0 0)
(16.2137 0 0)
(16.22 0 0)
(16.226 0 0)
(16.2321 0 0)
(16.2385 0 0)
(16.2447 0 0)
(16.2507 0 0)
(16.2565 0 0)
(16.2624 0 0)
(16.2682 0 0)
(16.2739 0 0)
(16.2796 0 0)
(16.2852 0 0)
(16.2908 0 0)
(16.2964 0 0)
(16.3018 0 0)
(16.3073 0 0)
(16.3127 0 0)
(16.318 0 0)
(16.3233 0 0)
(16.3286 0 0)
(16.3338 0 0)
(16.339 0 0)
(16.3441 0 0)
(16.3492 0 0)
(16.3543 0 0)
(16.3593 0 0)
(16.3643 0 0)
(16.3693 0 0)
(16.3742 0 0)
(16.3791 0 0)
(16.384 0 0)
(16.3889 0 0)
(16.3938 0 0)
(16.3986 0 0)
(16.4034 0 0)
(16.4083 0 0)
(16.413 0 0)
(16.4178 0 0)
(16.4226 0 0)
(16.4273 0 0)
(16.432 0 0)
(16.4367 0 0)
(16.4414 0 0)
(16.4461 0 0)
(16.4507 0 0)
(16.4553 0 0)
(16.4599 0 0)
(16.4644 0 0)
(16.4689 0 0)
(16.4733 0 0)
(16.4777 0 0)
(16.482 0 0)
(16.4862 0 0)
(16.4904 0 0)
(16.4945 0 0)
(16.4985 0 0)
(16.5024 0 0)
(16.5062 0 0)
(16.5099 0 0)
(16.5134 0 0)
(16.5169 0 0)
(16.5202 0 0)
(16.5234 0 0)
(16.5265 0 0)
(16.5294 0 0)
(16.5322 0 0)
(16.5349 0 0)
(16.5375 0 0)
(16.5399 0 0)
(16.5422 0 0)
(16.5444 0 0)
(16.5466 0 0)
(16.5486 0 0)
(16.5505 0 0)
(16.5521 0 0)
(16.5528 0 0)
(16.5511 0 0)
(16.5431 0 0)
)
;

boundaryField
{
    boundary
    {
        type            empty;
    }
    inlet
    {
        type            fixedValue;
        value           nonuniform 0();
    }
    outlet
    {
        type            zeroGradient;
    }
    procBoundary0to1
    {
        type            processor;
        value           uniform (15.8372 0 0);
    }
}


// ************************************************************************* //
