/*--------------------------------*- C++ -*----------------------------------*\
  =========                 |
  \\      /  F ield         | OpenFOAM: The Open Source CFD Toolbox
   \\    /   O peration     | Website:  https://openfoam.org
    \\  /    A nd           | Version:  7
     \\/     M anipulation  |
\*---------------------------------------------------------------------------*/
FoamFile
{
    version     2.0;
    format      ascii;
    class       volScalarField;
    location    "8e-05";
    object      H;
}
// * * * * * * * * * * * * * * * * * * * * * * * * * * * * * * * * * * * * * //

dimensions      [0 0 0 0 0 0 0];

internalField   nonuniform List<scalar> 
500
(
1.49172e-41
2.12606e-41
2.37749e-41
2.55579e-41
2.71525e-41
2.85631e-41
2.9726e-41
3.06129e-41
3.1241e-41
3.16561e-41
3.19136e-41
3.20644e-41
3.21483e-41
3.21929e-41
3.22159e-41
3.22275e-41
3.22336e-41
3.22371e-41
3.22393e-41
3.22412e-41
3.22428e-41
3.22444e-41
3.22461e-41
3.22478e-41
3.22496e-41
3.22514e-41
3.22533e-41
3.22553e-41
3.22573e-41
3.22594e-41
3.22615e-41
3.22637e-41
3.2266e-41
3.22683e-41
3.22707e-41
3.22732e-41
3.22757e-41
3.22782e-41
3.22809e-41
3.22835e-41
3.22862e-41
3.2289e-41
3.22918e-41
3.22947e-41
3.22976e-41
3.23006e-41
3.23036e-41
3.23067e-41
3.23098e-41
3.23129e-41
3.23161e-41
3.23193e-41
3.23226e-41
3.23259e-41
3.23293e-41
3.23327e-41
3.23361e-41
3.23395e-41
3.2343e-41
3.23466e-41
3.23501e-41
3.23537e-41
3.23574e-41
3.23611e-41
3.23647e-41
3.23685e-41
3.23722e-41
3.2376e-41
3.23798e-41
3.23837e-41
3.23875e-41
3.23914e-41
3.23954e-41
3.23993e-41
3.24033e-41
3.24073e-41
3.24113e-41
3.24153e-41
3.24194e-41
3.24234e-41
3.24275e-41
3.24317e-41
3.24358e-41
3.244e-41
3.24441e-41
3.24483e-41
3.24525e-41
3.24567e-41
3.2461e-41
3.24652e-41
3.24695e-41
3.24737e-41
3.2478e-41
3.24823e-41
3.24866e-41
3.24909e-41
3.24952e-41
3.24995e-41
3.25039e-41
3.25082e-41
3.25125e-41
3.25168e-41
3.25212e-41
3.25255e-41
3.25298e-41
3.25342e-41
3.25385e-41
3.25428e-41
3.25471e-41
3.25514e-41
3.25557e-41
3.256e-41
3.25642e-41
3.25685e-41
3.25727e-41
3.25769e-41
3.25811e-41
3.25852e-41
3.25893e-41
3.25934e-41
3.25974e-41
3.26012e-41
3.26046e-41
3.26073e-41
3.26086e-41
3.26094e-41
3.26116e-41
3.26155e-41
3.26207e-41
3.26263e-41
3.26318e-41
3.26368e-41
3.26413e-41
3.26453e-41
3.2649e-41
3.26524e-41
3.26556e-41
3.26587e-41
3.26617e-41
3.26645e-41
3.26672e-41
3.26698e-41
3.26723e-41
3.26746e-41
3.26769e-41
3.26789e-41
3.26809e-41
3.26826e-41
3.26842e-41
3.26857e-41
3.26869e-41
3.2688e-41
3.26889e-41
3.26895e-41
3.269e-41
3.26902e-41
3.26903e-41
3.269e-41
3.26896e-41
3.26889e-41
3.26879e-41
3.26866e-41
3.26851e-41
3.26832e-41
3.26811e-41
3.26786e-41
3.26758e-41
3.26727e-41
3.26692e-41
3.26653e-41
3.26611e-41
3.26565e-41
3.26515e-41
3.26461e-41
3.26402e-41
3.2634e-41
3.26273e-41
3.26201e-41
3.26125e-41
3.26043e-41
3.25957e-41
3.25866e-41
3.2577e-41
3.25669e-41
3.25562e-41
3.2545e-41
3.25332e-41
3.25208e-41
3.25079e-41
3.24944e-41
3.24804e-41
3.24657e-41
3.24504e-41
3.24345e-41
3.2418e-41
3.24008e-41
3.23831e-41
3.23647e-41
3.23457e-41
3.2326e-41
3.23057e-41
3.22848e-41
3.22632e-41
3.2241e-41
3.22182e-41
3.21948e-41
3.21707e-41
3.21461e-41
3.21208e-41
3.20949e-41
3.20684e-41
3.20414e-41
3.20138e-41
3.19857e-41
3.1957e-41
3.19278e-41
3.1898e-41
3.18678e-41
3.18372e-41
3.1806e-41
3.17745e-41
3.17425e-41
3.17102e-41
3.16774e-41
3.16444e-41
3.1611e-41
3.15772e-41
3.15432e-41
3.1509e-41
3.14745e-41
3.14398e-41
3.14055e-41
3.13744e-41
3.13672e-41
3.15276e-41
3.28583e-41
4.23547e-41
1.08851e-40
5.73319e-40
3.81683e-39
2.64662e-38
1.84599e-37
1.2882e-36
8.98472e-36
6.2602e-35
4.35533e-34
3.02377e-33
2.0935e-32
1.4443e-31
9.92107e-31
6.78008e-30
4.62018e-29
3.11902e-28
2.0919e-27
1.39152e-26
9.17176e-26
5.98456e-25
3.86237e-24
2.46363e-23
1.55203e-22
9.65156e-22
5.92269e-21
3.58619e-20
2.14316e-19
1.265e-18
7.38402e-18
4.27097e-17
2.4548e-16
1.40733e-15
8.08493e-15
4.6788e-14
2.74197e-13
1.75319e-12
1.30371e-11
1.19537e-10
1.07282e-09
9.43787e-09
8.29096e-08
7.00666e-07
5.28394e-06
3.12426e-05
0.000123574
0.000312625
0.000587504
0.000924848
0.00127721
0.00157598
0.00177528
0.0018737
0.00189545
0.00186812
0.0018132
0.00174494
0.0016719
0.00159888
0.00152835
0.00146143
0.00139844
0.0013393
0.00128374
0.00123138
0.00118185
0.00113477
0.00108981
0.00104668
0.00100514
0.000964975
0.000926029
0.000888174
0.000851316
0.000815388
0.000780346
0.000747168
0.000715563
0.000684595
0.000654284
0.000624656
0.000595739
0.000567563
0.000540159
0.000513556
0.000487784
0.000462868
0.000438831
0.000415693
0.000393471
0.000372176
0.000351815
0.000332391
0.000313905
0.00029635
0.000279717
0.000263994
0.000249165
0.00023521
0.000222107
0.000209831
0.000198355
0.00018765
0.000177685
0.000168431
0.000159854
0.000151921
0.0001446
0.000137857
0.00013166
0.000125976
0.000120775
0.000116023
0.000111693
0.000107754
0.000104179
0.000100941
9.80146e-05
9.5375e-05
9.29994e-05
9.08661e-05
8.89545e-05
8.72453e-05
8.57206e-05
8.43634e-05
8.3158e-05
8.20899e-05
8.11454e-05
8.03121e-05
7.95784e-05
7.89337e-05
7.8368e-05
7.78724e-05
7.74384e-05
7.70585e-05
7.67256e-05
7.64333e-05
7.61763e-05
7.59505e-05
7.57545e-05
7.55933e-05
7.54668e-05
7.53654e-05
7.52832e-05
7.5216e-05
7.5161e-05
7.51158e-05
7.50786e-05
7.5048e-05
7.5023e-05
7.50025e-05
7.49857e-05
7.49721e-05
7.4961e-05
7.49521e-05
7.49448e-05
7.4939e-05
7.49343e-05
7.49306e-05
7.49277e-05
7.49253e-05
7.49235e-05
7.4922e-05
7.49209e-05
7.492e-05
7.49193e-05
7.49187e-05
7.49183e-05
7.4918e-05
7.49178e-05
7.49176e-05
7.49175e-05
7.49174e-05
7.49173e-05
7.49172e-05
7.49172e-05
7.49171e-05
7.49171e-05
7.49171e-05
7.4917e-05
7.4917e-05
7.4917e-05
7.4917e-05
7.49169e-05
7.49169e-05
7.49169e-05
7.49169e-05
7.49168e-05
7.49168e-05
7.49167e-05
7.49167e-05
7.49167e-05
7.49166e-05
7.49166e-05
7.49165e-05
7.49165e-05
7.49164e-05
7.49164e-05
7.49163e-05
7.49163e-05
7.49162e-05
7.49162e-05
7.49161e-05
7.4916e-05
7.4916e-05
7.49159e-05
7.49159e-05
7.49158e-05
7.49158e-05
7.49157e-05
7.49156e-05
7.49156e-05
7.49155e-05
7.49154e-05
7.49154e-05
7.49153e-05
7.49153e-05
7.49152e-05
7.49151e-05
7.49151e-05
7.4915e-05
7.49149e-05
7.49149e-05
7.49148e-05
7.49147e-05
7.49147e-05
7.49146e-05
7.49145e-05
7.49145e-05
7.49144e-05
7.49143e-05
7.49143e-05
7.49142e-05
7.49141e-05
7.49141e-05
7.4914e-05
7.49139e-05
7.49139e-05
7.49138e-05
7.49137e-05
7.49137e-05
7.49136e-05
7.49135e-05
7.49135e-05
7.49134e-05
7.49134e-05
7.49133e-05
7.49132e-05
7.49132e-05
7.49131e-05
7.4913e-05
7.4913e-05
7.49129e-05
7.49129e-05
7.49128e-05
7.49127e-05
7.49127e-05
7.49126e-05
7.49126e-05
7.49125e-05
7.49125e-05
7.49124e-05
7.49124e-05
7.49124e-05
)
;

boundaryField
{
    boundary
    {
        type            empty;
    }
    inlet
    {
        type            fixedValue;
        value           uniform 0;
    }
    outlet
    {
        type            zeroGradient;
    }
}


// ************************************************************************* //
