/*--------------------------------*- C++ -*----------------------------------*\
  =========                 |
  \\      /  F ield         | OpenFOAM: The Open Source CFD Toolbox
   \\    /   O peration     | Website:  https://openfoam.org
    \\  /    A nd           | Version:  7
     \\/     M anipulation  |
\*---------------------------------------------------------------------------*/
FoamFile
{
    version     2.0;
    format      ascii;
    class       volScalarField;
    location    "8e-05";
    object      H2;
}
// * * * * * * * * * * * * * * * * * * * * * * * * * * * * * * * * * * * * * //

dimensions      [0 0 0 0 0 0 0];

internalField   nonuniform List<scalar> 
500
(
0.0285116
0.0285116
0.0285116
0.0285116
0.0285116
0.0285116
0.0285116
0.0285116
0.0285116
0.0285116
0.0285116
0.0285116
0.0285116
0.0285116
0.0285116
0.0285116
0.0285116
0.0285116
0.0285116
0.0285116
0.0285116
0.0285116
0.0285116
0.0285116
0.0285116
0.0285116
0.0285116
0.0285116
0.0285116
0.0285116
0.0285116
0.0285116
0.0285116
0.0285116
0.0285116
0.0285116
0.0285116
0.0285116
0.0285116
0.0285116
0.0285116
0.0285116
0.0285116
0.0285116
0.0285116
0.0285116
0.0285116
0.0285116
0.0285116
0.0285116
0.0285116
0.0285116
0.0285116
0.0285116
0.0285116
0.0285116
0.0285116
0.0285116
0.0285116
0.0285116
0.0285116
0.0285116
0.0285116
0.0285116
0.0285116
0.0285116
0.0285116
0.0285116
0.0285116
0.0285116
0.0285116
0.0285116
0.0285116
0.0285116
0.0285116
0.0285116
0.0285116
0.0285116
0.0285116
0.0285116
0.0285116
0.0285116
0.0285116
0.0285116
0.0285116
0.0285116
0.0285116
0.0285116
0.0285116
0.0285116
0.0285116
0.0285116
0.0285116
0.0285116
0.0285116
0.0285116
0.0285116
0.0285116
0.0285116
0.0285116
0.0285116
0.0285116
0.0285116
0.0285116
0.0285116
0.0285116
0.0285116
0.0285116
0.0285116
0.0285116
0.0285116
0.0285116
0.0285116
0.0285116
0.0285116
0.0285116
0.0285116
0.0285116
0.0285116
0.0285116
0.0285116
0.0285116
0.0285116
0.0285116
0.0285116
0.0285116
0.0285116
0.0285116
0.0285116
0.0285116
0.0285116
0.0285116
0.0285116
0.0285116
0.0285116
0.0285116
0.0285116
0.0285116
0.0285116
0.0285116
0.0285116
0.0285116
0.0285116
0.0285116
0.0285116
0.0285116
0.0285116
0.0285116
0.0285116
0.0285116
0.0285116
0.0285116
0.0285116
0.0285116
0.0285116
0.0285116
0.0285116
0.0285116
0.0285116
0.0285116
0.0285116
0.0285116
0.0285116
0.0285116
0.0285116
0.0285116
0.0285116
0.0285116
0.0285116
0.0285116
0.0285116
0.0285116
0.0285116
0.0285116
0.0285116
0.0285116
0.0285116
0.0285116
0.0285116
0.0285116
0.0285116
0.0285116
0.0285116
0.0285116
0.0285116
0.0285116
0.0285116
0.0285116
0.0285116
0.0285116
0.0285116
0.0285116
0.0285116
0.0285116
0.0285116
0.0285116
0.0285116
0.0285116
0.0285116
0.0285116
0.0285116
0.0285116
0.0285116
0.0285116
0.0285116
0.0285116
0.0285116
0.0285116
0.0285116
0.0285116
0.0285116
0.0285116
0.0285116
0.0285116
0.0285116
0.0285116
0.0285116
0.0285116
0.0285116
0.0285116
0.0285116
0.0285116
0.0285116
0.0285116
0.0285116
0.0285116
0.0285116
0.0285116
0.0285116
0.0285116
0.0285116
0.0285116
0.0285116
0.0285116
0.0285116
0.0285116
0.0285116
0.0285116
0.0285116
0.0285116
0.0285116
0.0285116
0.0285116
0.0285116
0.0285116
0.0285116
0.0285116
0.0285116
0.0285116
0.0285116
0.0285116
0.0285116
0.0285116
0.0285116
0.0285116
0.0285116
0.0285116
0.0285116
0.0285116
0.0285116
0.0285116
0.0285116
0.0285116
0.0285116
0.0285116
0.0285116
0.0285116
0.0285116
0.0285115
0.0285114
0.0285111
0.0285102
0.0285077
0.0285011
0.0284843
0.028443
0.0283461
0.0281297
0.027677
0.0268196
0.0253978
0.023369
0.0208917
0.0181069
0.0151065
0.0121268
0.00952646
0.00753926
0.0061655
0.00527488
0.00471963
0.00438201
0.00418065
0.00406296
0.00399614
0.00396005
0.00394244
0.00393586
0.00393573
0.00393918
0.00394435
0.00395
0.00395518
0.00395918
0.00396139
0.0039613
0.00395842
0.00395233
0.00394265
0.00392906
0.00391127
0.00388909
0.00386318
0.00383377
0.0038001
0.00376212
0.00371986
0.00367339
0.00362281
0.0035683
0.00351004
0.00344828
0.00338328
0.00331534
0.00324478
0.00317195
0.00309719
0.00302088
0.0029434
0.00286512
0.00278642
0.00270767
0.00262923
0.00255144
0.00247465
0.00239917
0.00232528
0.00225325
0.00218332
0.00211571
0.00205059
0.00198812
0.00192842
0.00187158
0.00181768
0.00176675
0.0017188
0.00167382
0.00163178
0.00159263
0.00155629
0.00152268
0.0014917
0.00146324
0.00143718
0.0014134
0.00139177
0.00137216
0.00135444
0.00133847
0.00132413
0.0013113
0.00129984
0.00128964
0.00128058
0.00127257
0.00126549
0.00125925
0.00125376
0.00124893
0.00124467
0.00124091
0.00123756
0.00123456
0.00123184
0.00122937
0.00122763
0.00122627
0.00122523
0.00122441
0.00122375
0.00122321
0.00122277
0.00122241
0.00122211
0.00122186
0.00122166
0.00122149
0.00122135
0.00122124
0.00122115
0.00122107
0.00122101
0.00122097
0.00122093
0.0012209
0.00122088
0.00122086
0.00122085
0.00122084
0.00122083
0.00122082
0.00122082
0.00122082
0.00122082
0.00122082
0.00122082
0.00122082
0.00122082
0.00122082
0.00122082
0.00122083
0.00122083
0.00122083
0.00122083
0.00122083
0.00122084
0.00122084
0.00122084
0.00122084
0.00122085
0.00122085
0.00122085
0.00122085
0.00122085
0.00122086
0.00122086
0.00122086
0.00122086
0.00122086
0.00122086
0.00122087
0.00122087
0.00122087
0.00122087
0.00122087
0.00122087
0.00122088
0.00122088
0.00122088
0.00122088
0.00122088
0.00122088
0.00122088
0.00122089
0.00122089
0.00122089
0.00122089
0.00122089
0.00122089
0.00122089
0.00122089
0.0012209
0.0012209
0.0012209
0.0012209
0.0012209
0.0012209
0.0012209
0.0012209
0.0012209
0.0012209
0.00122091
0.00122091
0.00122091
0.00122091
0.00122091
0.00122091
0.00122091
0.00122091
0.00122091
0.00122091
0.00122091
0.00122091
0.00122091
0.00122091
0.00122091
0.00122091
0.00122091
0.00122091
0.00122091
0.00122091
0.00122091
0.00122091
0.00122091
0.00122091
0.00122091
0.00122091
0.00122091
0.00122091
0.00122091
0.00122091
0.00122091
0.00122091
0.00122091
0.0012209
0.0012209
0.0012209
0.0012209
0.0012209
)
;

boundaryField
{
    boundary
    {
        type            empty;
    }
    inlet
    {
        type            fixedValue;
        value           uniform 0.0285116;
    }
    outlet
    {
        type            zeroGradient;
    }
}


// ************************************************************************* //
