/*--------------------------------*- C++ -*----------------------------------*\
  =========                 |
  \\      /  F ield         | OpenFOAM: The Open Source CFD Toolbox
   \\    /   O peration     | Website:  https://openfoam.org
    \\  /    A nd           | Version:  7
     \\/     M anipulation  |
\*---------------------------------------------------------------------------*/
FoamFile
{
    version     2.0;
    format      ascii;
    class       volScalarField;
    location    "8e-05";
    object      H2O;
}
// * * * * * * * * * * * * * * * * * * * * * * * * * * * * * * * * * * * * * //

dimensions      [0 0 0 0 0 0 0];

internalField   nonuniform List<scalar> 
500
(
8.36037e-48
2.42362e-47
4.32086e-47
6.31312e-47
8.20774e-47
9.86116e-47
1.11953e-46
1.21962e-46
1.28978e-46
1.33595e-46
1.36457e-46
1.38138e-46
1.39076e-46
1.39574e-46
1.39828e-46
1.39951e-46
1.40009e-46
1.40034e-46
1.40045e-46
1.40049e-46
1.40051e-46
1.40051e-46
1.4005e-46
1.4005e-46
1.40049e-46
1.40048e-46
1.40047e-46
1.40046e-46
1.40046e-46
1.40045e-46
1.40044e-46
1.40043e-46
1.40042e-46
1.40041e-46
1.4004e-46
1.40039e-46
1.40039e-46
1.40038e-46
1.40037e-46
1.40036e-46
1.40036e-46
1.40035e-46
1.40034e-46
1.40034e-46
1.40033e-46
1.40032e-46
1.40032e-46
1.40032e-46
1.40031e-46
1.40031e-46
1.40031e-46
1.4003e-46
1.4003e-46
1.4003e-46
1.4003e-46
1.40031e-46
1.40031e-46
1.40031e-46
1.40032e-46
1.40032e-46
1.40033e-46
1.40033e-46
1.40034e-46
1.40035e-46
1.40036e-46
1.40037e-46
1.40039e-46
1.4004e-46
1.40042e-46
1.40043e-46
1.40045e-46
1.40047e-46
1.40049e-46
1.40051e-46
1.40054e-46
1.40056e-46
1.40059e-46
1.40061e-46
1.40064e-46
1.40067e-46
1.40071e-46
1.40074e-46
1.40078e-46
1.40081e-46
1.40085e-46
1.40089e-46
1.40093e-46
1.40098e-46
1.40102e-46
1.40107e-46
1.40112e-46
1.40117e-46
1.40122e-46
1.40127e-46
1.40133e-46
1.40138e-46
1.40144e-46
1.4015e-46
1.40156e-46
1.40163e-46
1.40169e-46
1.40176e-46
1.40183e-46
1.4019e-46
1.40197e-46
1.40204e-46
1.40212e-46
1.4022e-46
1.40228e-46
1.40236e-46
1.40244e-46
1.40252e-46
1.4026e-46
1.40269e-46
1.40278e-46
1.40287e-46
1.40296e-46
1.40305e-46
1.40313e-46
1.40321e-46
1.40322e-46
1.403e-46
1.40192e-46
1.39781e-46
1.38266e-46
1.35586e-46
1.36105e-46
1.36798e-46
1.37588e-46
1.38361e-46
1.39025e-46
1.3954e-46
1.39906e-46
1.40148e-46
1.403e-46
1.40391e-46
1.40445e-46
1.40478e-46
1.40498e-46
1.40513e-46
1.40525e-46
1.40534e-46
1.40543e-46
1.40552e-46
1.4056e-46
1.40567e-46
1.40575e-46
1.40581e-46
1.40588e-46
1.40594e-46
1.40599e-46
1.40604e-46
1.40608e-46
1.40612e-46
1.40615e-46
1.40617e-46
1.40619e-46
1.40619e-46
1.40619e-46
1.40618e-46
1.40616e-46
1.40613e-46
1.4061e-46
1.40605e-46
1.40598e-46
1.40591e-46
1.40582e-46
1.40573e-46
1.40561e-46
1.40549e-46
1.40534e-46
1.40519e-46
1.40501e-46
1.40482e-46
1.40461e-46
1.40439e-46
1.40414e-46
1.40388e-46
1.4036e-46
1.40329e-46
1.40297e-46
1.40262e-46
1.40225e-46
1.40186e-46
1.40145e-46
1.40101e-46
1.40054e-46
1.40006e-46
1.39954e-46
1.399e-46
1.39843e-46
1.39784e-46
1.39722e-46
1.39656e-46
1.39589e-46
1.39518e-46
1.39444e-46
1.39367e-46
1.39288e-46
1.39205e-46
1.3912e-46
1.39031e-46
1.3894e-46
1.38845e-46
1.38747e-46
1.38647e-46
1.38543e-46
1.38436e-46
1.38327e-46
1.38214e-46
1.38099e-46
1.37981e-46
1.37859e-46
1.37736e-46
1.37609e-46
1.3748e-46
1.37348e-46
1.37213e-46
1.37077e-46
1.36937e-46
1.36796e-46
1.36652e-46
1.36506e-46
1.36358e-46
1.36208e-46
1.36056e-46
1.35903e-46
1.35753e-46
1.35647e-46
1.35986e-46
1.40889e-46
1.93741e-46
7.5508e-46
6.71053e-45
6.95795e-44
7.27768e-43
7.54902e-42
7.74775e-41
7.86613e-40
7.90438e-39
7.8687e-38
7.76916e-37
7.61687e-36
7.42075e-35
7.18471e-34
6.90626e-33
6.57777e-32
6.19115e-31
5.74513e-30
5.25223e-29
4.74018e-28
5.15483e-27
4.75163e-26
4.31598e-25
3.90659e-24
3.52316e-23
3.16234e-22
2.82057e-21
2.49488e-20
2.1835e-19
1.88617e-18
1.60411e-17
1.33972e-16
1.09612e-15
8.76467e-15
6.83384e-14
5.18448e-13
3.81903e-12
2.72604e-11
1.88183e-10
1.25382e-09
8.0464e-09
4.96214e-08
2.93357e-07
1.65775e-06
8.91972e-06
4.54147e-05
0.000216103
0.0009341
0.00345729
0.0100855
0.0222803
0.0387503
0.0586694
0.0824097
0.10866
0.133767
0.154488
0.169919
0.180824
0.188433
0.193825
0.197781
0.20082
0.203269
0.20533
0.207129
0.208739
0.210207
0.21156
0.212816
0.213986
0.21508
0.216103
0.217063
0.217966
0.218817
0.219623
0.22039
0.221124
0.221832
0.222518
0.223166
0.223792
0.224413
0.22503
0.225647
0.226263
0.22688
0.227498
0.228115
0.228731
0.229344
0.229953
0.230555
0.231149
0.231731
0.232301
0.232855
0.233391
0.233908
0.234405
0.234879
0.23533
0.235756
0.236158
0.236534
0.236886
0.237212
0.237514
0.237793
0.238048
0.238281
0.238493
0.238685
0.238859
0.239015
0.239155
0.23928
0.239392
0.239491
0.239578
0.239656
0.239724
0.239784
0.239837
0.239882
0.239923
0.239958
0.239988
0.240014
0.240037
0.240057
0.240074
0.240089
0.240102
0.240113
0.240122
0.24013
0.240137
0.240143
0.240148
0.240152
0.240156
0.240159
0.240163
0.240165
0.240167
0.240168
0.240169
0.24017
0.240171
0.240172
0.240172
0.240173
0.240173
0.240174
0.240174
0.240174
0.240174
0.240175
0.240175
0.240175
0.240175
0.240175
0.240175
0.240175
0.240175
0.240175
0.240175
0.240175
0.240175
0.240175
0.240174
0.240174
0.240174
0.240174
0.240174
0.240174
0.240174
0.240174
0.240174
0.240174
0.240174
0.240174
0.240174
0.240174
0.240174
0.240174
0.240174
0.240174
0.240174
0.240174
0.240174
0.240174
0.240174
0.240174
0.240174
0.240174
0.240174
0.240173
0.240173
0.240173
0.240173
0.240173
0.240173
0.240173
0.240173
0.240173
0.240173
0.240173
0.240173
0.240173
0.240173
0.240173
0.240173
0.240173
0.240173
0.240173
0.240173
0.240173
0.240173
0.240173
0.240173
0.240173
0.240173
0.240173
0.240173
0.240173
0.240173
0.240173
0.240173
0.240173
0.240173
0.240173
0.240173
0.240173
0.240173
0.240173
0.240173
0.240173
0.240173
0.240173
0.240173
0.240173
0.240173
0.240173
0.240173
0.240173
0.240173
0.240173
0.240173
0.240173
0.240173
0.240173
0.240173
0.240173
0.240173
0.240173
0.240173
0.240173
0.240173
0.240173
0.240173
0.240173
0.240173
0.240173
0.240173
0.240173
0.240173
)
;

boundaryField
{
    boundary
    {
        type            empty;
    }
    inlet
    {
        type            fixedValue;
        value           uniform 0;
    }
    outlet
    {
        type            zeroGradient;
    }
}


// ************************************************************************* //
