/*--------------------------------*- C++ -*----------------------------------*\
  =========                 |
  \\      /  F ield         | OpenFOAM: The Open Source CFD Toolbox
   \\    /   O peration     | Website:  https://openfoam.org
    \\  /    A nd           | Version:  7
     \\/     M anipulation  |
\*---------------------------------------------------------------------------*/
FoamFile
{
    version     2.0;
    format      ascii;
    class       volScalarField;
    location    "8e-05";
    object      H2O2;
}
// * * * * * * * * * * * * * * * * * * * * * * * * * * * * * * * * * * * * * //

dimensions      [0 0 0 0 0 0 0];

internalField   nonuniform List<scalar> 
500
(
1.959e-52
6.1286e-52
1.16574e-51
1.79578e-51
2.43326e-51
3.01527e-51
3.49976e-51
3.87051e-51
4.13317e-51
4.30657e-51
4.41384e-51
4.47636e-51
4.51086e-51
4.52894e-51
4.53799e-51
4.54232e-51
4.54431e-51
4.54519e-51
4.54557e-51
4.54572e-51
4.54579e-51
4.54581e-51
4.54583e-51
4.54583e-51
4.54584e-51
4.54585e-51
4.54585e-51
4.54586e-51
4.54587e-51
4.54588e-51
4.54589e-51
4.5459e-51
4.54591e-51
4.54593e-51
4.54594e-51
4.54596e-51
4.54598e-51
4.546e-51
4.54603e-51
4.54605e-51
4.54608e-51
4.54611e-51
4.54614e-51
4.54617e-51
4.54621e-51
4.54625e-51
4.54629e-51
4.54633e-51
4.54638e-51
4.54643e-51
4.54648e-51
4.54654e-51
4.5466e-51
4.54667e-51
4.54673e-51
4.5468e-51
4.54688e-51
4.54696e-51
4.54704e-51
4.54712e-51
4.54722e-51
4.54731e-51
4.54741e-51
4.54751e-51
4.54762e-51
4.54773e-51
4.54785e-51
4.54797e-51
4.5481e-51
4.54823e-51
4.54837e-51
4.54851e-51
4.54866e-51
4.54881e-51
4.54897e-51
4.54913e-51
4.5493e-51
4.54948e-51
4.54966e-51
4.54985e-51
4.55004e-51
4.55024e-51
4.55044e-51
4.55065e-51
4.55087e-51
4.55109e-51
4.55132e-51
4.55155e-51
4.55179e-51
4.55204e-51
4.55229e-51
4.55255e-51
4.55282e-51
4.55309e-51
4.55337e-51
4.55366e-51
4.55395e-51
4.55425e-51
4.55455e-51
4.55486e-51
4.55518e-51
4.5555e-51
4.55583e-51
4.55617e-51
4.55651e-51
4.55686e-51
4.55721e-51
4.55758e-51
4.55794e-51
4.55832e-51
4.55869e-51
4.55908e-51
4.55947e-51
4.55986e-51
4.56026e-51
4.56067e-51
4.56108e-51
4.56149e-51
4.5619e-51
4.56227e-51
4.56246e-51
4.56187e-51
4.5581e-51
4.54187e-51
4.47717e-51
4.35296e-51
4.37432e-51
4.40531e-51
4.44155e-51
4.47718e-51
4.50756e-51
4.53062e-51
4.54653e-51
4.55668e-51
4.56279e-51
4.56633e-51
4.56837e-51
4.5696e-51
4.5704e-51
4.57099e-51
4.57148e-51
4.57192e-51
4.57233e-51
4.57272e-51
4.57311e-51
4.57347e-51
4.57383e-51
4.57417e-51
4.5745e-51
4.57481e-51
4.5751e-51
4.57537e-51
4.57563e-51
4.57586e-51
4.57607e-51
4.57625e-51
4.57641e-51
4.57654e-51
4.57664e-51
4.57671e-51
4.57675e-51
4.57675e-51
4.57672e-51
4.57665e-51
4.57654e-51
4.57638e-51
4.57619e-51
4.57594e-51
4.57565e-51
4.57531e-51
4.57492e-51
4.57447e-51
4.57397e-51
4.5734e-51
4.57278e-51
4.57209e-51
4.57134e-51
4.57052e-51
4.56963e-51
4.56867e-51
4.56764e-51
4.56653e-51
4.56534e-51
4.56407e-51
4.56271e-51
4.56128e-51
4.55975e-51
4.55814e-51
4.55644e-51
4.55464e-51
4.55275e-51
4.55077e-51
4.54869e-51
4.54651e-51
4.54422e-51
4.54184e-51
4.53936e-51
4.53677e-51
4.53407e-51
4.53128e-51
4.52837e-51
4.52536e-51
4.52224e-51
4.51902e-51
4.51569e-51
4.51225e-51
4.50871e-51
4.50506e-51
4.50131e-51
4.49745e-51
4.49349e-51
4.48943e-51
4.48527e-51
4.48101e-51
4.47665e-51
4.4722e-51
4.46766e-51
4.46303e-51
4.45831e-51
4.4535e-51
4.44862e-51
4.44365e-51
4.4386e-51
4.43349e-51
4.4283e-51
4.42304e-51
4.41772e-51
4.41235e-51
4.40694e-51
4.40165e-51
4.39755e-51
4.40328e-51
4.50698e-51
5.82616e-51
2.4627e-50
3.12759e-49
4.84548e-48
7.63988e-47
1.19923e-45
1.86482e-44
2.86766e-43
4.35753e-42
6.54021e-41
9.6923e-40
1.41766e-38
2.04558e-37
2.91017e-36
4.07971e-35
5.63271e-34
7.65556e-33
1.02377e-31
1.73684e-30
2.24384e-29
2.82081e-28
3.47901e-27
4.20705e-26
4.98401e-25
5.77928e-24
6.55318e-23
7.25908e-22
7.84692e-21
8.26824e-20
8.482e-19
8.46038e-18
8.19366e-17
7.69305e-16
6.99067e-15
6.13649e-14
5.19245e-13
4.22476e-12
3.29572e-11
2.45662e-10
1.74268e-09
1.17089e-08
7.40842e-08
4.3785e-07
2.37989e-06
1.14153e-05
4.30049e-05
9.95697e-05
0.000132607
0.000118789
6.81187e-05
2.95302e-05
1.20522e-05
6.08451e-06
4.62167e-06
4.71374e-06
5.23871e-06
5.76841e-06
6.15952e-06
6.38879e-06
6.47754e-06
6.45797e-06
6.3599e-06
6.20709e-06
6.01703e-06
5.80192e-06
5.57027e-06
5.32781e-06
5.0784e-06
4.8247e-06
4.56869e-06
4.31193e-06
4.05587e-06
3.80193e-06
3.55162e-06
3.30649e-06
3.06813e-06
2.83814e-06
2.61803e-06
2.40919e-06
2.21869e-06
2.0427e-06
1.87792e-06
1.7246e-06
1.58274e-06
1.45218e-06
1.33256e-06
1.22341e-06
1.12417e-06
1.03417e-06
9.52738e-07
8.79187e-07
8.12829e-07
7.53003e-07
6.99084e-07
6.50487e-07
6.06671e-07
5.67145e-07
5.31461e-07
4.99217e-07
4.7005e-07
4.43641e-07
4.19702e-07
3.9798e-07
3.7825e-07
3.60313e-07
3.43993e-07
3.29135e-07
3.15603e-07
3.03273e-07
2.92037e-07
2.818e-07
2.72475e-07
2.63985e-07
2.56261e-07
2.49241e-07
2.42866e-07
2.37085e-07
2.3185e-07
2.27118e-07
2.22846e-07
2.18998e-07
2.15539e-07
2.12435e-07
2.09656e-07
2.07173e-07
2.0496e-07
2.02992e-07
2.01246e-07
1.997e-07
1.98335e-07
1.97132e-07
1.96075e-07
1.95148e-07
1.94337e-07
1.93629e-07
1.93011e-07
1.92474e-07
1.92008e-07
1.91604e-07
1.91254e-07
1.90949e-07
1.90678e-07
1.90414e-07
1.90197e-07
1.90084e-07
1.89968e-07
1.89862e-07
1.89768e-07
1.89689e-07
1.89623e-07
1.89567e-07
1.89522e-07
1.89484e-07
1.89453e-07
1.89428e-07
1.89407e-07
1.89389e-07
1.89375e-07
1.89362e-07
1.89352e-07
1.89343e-07
1.89335e-07
1.89328e-07
1.89322e-07
1.89316e-07
1.89311e-07
1.89306e-07
1.89302e-07
1.89298e-07
1.89294e-07
1.8929e-07
1.89286e-07
1.89282e-07
1.89278e-07
1.89275e-07
1.89271e-07
1.89268e-07
1.89264e-07
1.8926e-07
1.89257e-07
1.89253e-07
1.8925e-07
1.89246e-07
1.89243e-07
1.89239e-07
1.89236e-07
1.89232e-07
1.89229e-07
1.89225e-07
1.89222e-07
1.89219e-07
1.89215e-07
1.89212e-07
1.89208e-07
1.89205e-07
1.89201e-07
1.89198e-07
1.89194e-07
1.89191e-07
1.89188e-07
1.89184e-07
1.89181e-07
1.89178e-07
1.89174e-07
1.89171e-07
1.89168e-07
1.89164e-07
1.89161e-07
1.89158e-07
1.89155e-07
1.89151e-07
1.89148e-07
1.89145e-07
1.89142e-07
1.89139e-07
1.89136e-07
1.89133e-07
1.8913e-07
1.89127e-07
1.89124e-07
1.89121e-07
1.89118e-07
1.89115e-07
1.89112e-07
1.8911e-07
1.89107e-07
1.89104e-07
1.89102e-07
1.89099e-07
1.89097e-07
1.89094e-07
1.89092e-07
1.89089e-07
1.89087e-07
1.89085e-07
1.89082e-07
1.8908e-07
1.89078e-07
1.89076e-07
1.89074e-07
1.89072e-07
1.8907e-07
1.89068e-07
1.89066e-07
1.89064e-07
1.89062e-07
1.89061e-07
1.89059e-07
1.89057e-07
1.89056e-07
1.89054e-07
1.89053e-07
1.89051e-07
1.8905e-07
1.89049e-07
1.89047e-07
1.89046e-07
1.89045e-07
1.89044e-07
1.89043e-07
1.89042e-07
1.89041e-07
1.8904e-07
1.89039e-07
1.89038e-07
1.89037e-07
1.89036e-07
)
;

boundaryField
{
    boundary
    {
        type            empty;
    }
    inlet
    {
        type            fixedValue;
        value           uniform 0;
    }
    outlet
    {
        type            zeroGradient;
    }
}


// ************************************************************************* //
