/*--------------------------------*- C++ -*----------------------------------*\
  =========                 |
  \\      /  F ield         | OpenFOAM: The Open Source CFD Toolbox
   \\    /   O peration     | Website:  https://openfoam.org
    \\  /    A nd           | Version:  7
     \\/     M anipulation  |
\*---------------------------------------------------------------------------*/
FoamFile
{
    version     2.0;
    format      ascii;
    class       volScalarField;
    location    "8e-05";
    object      HO2;
}
// * * * * * * * * * * * * * * * * * * * * * * * * * * * * * * * * * * * * * //

dimensions      [0 0 0 0 0 0 0];

internalField   nonuniform List<scalar> 
500
(
5.75172e-38
1.33036e-37
2.08864e-37
2.81024e-37
3.45485e-37
3.99292e-37
4.41213e-37
4.71729e-37
4.92532e-37
5.05857e-37
5.13903e-37
5.18501e-37
5.20996e-37
5.22285e-37
5.22921e-37
5.23221e-37
5.23357e-37
5.23416e-37
5.2344e-37
5.23448e-37
5.23451e-37
5.2345e-37
5.23449e-37
5.23447e-37
5.23445e-37
5.23443e-37
5.2344e-37
5.23438e-37
5.23435e-37
5.23433e-37
5.2343e-37
5.23428e-37
5.23425e-37
5.23423e-37
5.2342e-37
5.23418e-37
5.23415e-37
5.23413e-37
5.2341e-37
5.23408e-37
5.23405e-37
5.23403e-37
5.234e-37
5.23398e-37
5.23396e-37
5.23394e-37
5.23392e-37
5.2339e-37
5.23388e-37
5.23386e-37
5.23384e-37
5.23383e-37
5.23381e-37
5.2338e-37
5.23379e-37
5.23378e-37
5.23377e-37
5.23377e-37
5.23376e-37
5.23376e-37
5.23376e-37
5.23377e-37
5.23377e-37
5.23378e-37
5.23378e-37
5.2338e-37
5.23381e-37
5.23383e-37
5.23385e-37
5.23387e-37
5.23389e-37
5.23392e-37
5.23395e-37
5.23398e-37
5.23402e-37
5.23406e-37
5.2341e-37
5.23414e-37
5.23419e-37
5.23424e-37
5.2343e-37
5.23436e-37
5.23442e-37
5.23449e-37
5.23456e-37
5.23463e-37
5.23471e-37
5.23479e-37
5.23487e-37
5.23496e-37
5.23505e-37
5.23515e-37
5.23524e-37
5.23535e-37
5.23545e-37
5.23557e-37
5.23568e-37
5.2358e-37
5.23592e-37
5.23605e-37
5.23618e-37
5.23631e-37
5.23645e-37
5.23659e-37
5.23673e-37
5.23688e-37
5.23703e-37
5.23719e-37
5.23735e-37
5.23751e-37
5.23767e-37
5.23784e-37
5.23801e-37
5.23819e-37
5.23836e-37
5.23854e-37
5.23872e-37
5.2389e-37
5.23908e-37
5.23924e-37
5.23929e-37
5.23885e-37
5.23645e-37
5.22632e-37
5.1858e-37
5.10873e-37
5.12306e-37
5.14287e-37
5.16542e-37
5.18721e-37
5.20559e-37
5.21942e-37
5.2289e-37
5.23489e-37
5.23845e-37
5.24047e-37
5.2416e-37
5.24223e-37
5.24261e-37
5.24286e-37
5.24305e-37
5.2432e-37
5.24334e-37
5.24346e-37
5.24357e-37
5.24366e-37
5.24375e-37
5.24382e-37
5.24387e-37
5.24391e-37
5.24393e-37
5.24394e-37
5.24393e-37
5.2439e-37
5.24384e-37
5.24377e-37
5.24367e-37
5.24355e-37
5.2434e-37
5.24322e-37
5.24302e-37
5.24278e-37
5.24251e-37
5.24221e-37
5.24188e-37
5.24151e-37
5.2411e-37
5.24065e-37
5.24016e-37
5.23962e-37
5.23904e-37
5.23842e-37
5.23774e-37
5.23702e-37
5.23625e-37
5.23542e-37
5.23453e-37
5.23359e-37
5.23259e-37
5.23153e-37
5.23041e-37
5.22922e-37
5.22797e-37
5.22665e-37
5.22526e-37
5.2238e-37
5.22226e-37
5.22065e-37
5.21897e-37
5.21721e-37
5.21537e-37
5.21345e-37
5.21145e-37
5.20937e-37
5.20721e-37
5.20496e-37
5.20262e-37
5.2002e-37
5.1977e-37
5.1951e-37
5.19242e-37
5.18965e-37
5.1868e-37
5.18385e-37
5.18082e-37
5.1777e-37
5.17449e-37
5.1712e-37
5.16782e-37
5.16435e-37
5.1608e-37
5.15717e-37
5.15345e-37
5.14966e-37
5.14579e-37
5.14184e-37
5.13781e-37
5.13371e-37
5.12955e-37
5.12531e-37
5.121e-37
5.11664e-37
5.11221e-37
5.10772e-37
5.10318e-37
5.09858e-37
5.09393e-37
5.08924e-37
5.08452e-37
5.07988e-37
5.07599e-37
5.07687e-37
5.10729e-37
5.31935e-37
6.64466e-37
1.47689e-36
6.42081e-36
3.63003e-35
2.15382e-34
1.27803e-33
7.51256e-33
4.3655e-32
2.50749e-31
1.42532e-30
8.03552e-30
4.50607e-29
2.52065e-28
1.40963e-27
7.88985e-27
4.42115e-26
2.48024e-25
1.45109e-24
8.2154e-24
4.62589e-23
2.61442e-22
1.48612e-21
8.50893e-21
4.91609e-20
2.87225e-19
1.70099e-18
1.02333e-17
6.26378e-17
3.90184e-16
2.46962e-15
1.58248e-14
1.02093e-13
6.5859e-13
4.21618e-12
2.65848e-11
1.63941e-10
9.82496e-10
5.69051e-09
3.1667e-08
1.68354e-07
8.47698e-07
4.00717e-06
1.74819e-05
6.76032e-05
0.000211672
0.000440343
0.000516669
0.000452538
0.000342738
0.000244114
0.000171307
0.000119659
8.32733e-05
5.8375e-05
4.19423e-05
3.13086e-05
2.44132e-05
1.98493e-05
1.67249e-05
1.44948e-05
1.28302e-05
1.15324e-05
1.04801e-05
9.59793e-06
8.83788e-06
8.1688e-06
7.56996e-06
7.02728e-06
6.53106e-06
6.07449e-06
5.65272e-06
5.2623e-06
4.90069e-06
4.56598e-06
4.25676e-06
3.97185e-06
3.71035e-06
3.47148e-06
3.26103e-06
3.0724e-06
2.9009e-06
2.74589e-06
2.60667e-06
2.48247e-06
2.37242e-06
2.27563e-06
2.19112e-06
2.11787e-06
2.05482e-06
2.00091e-06
1.95509e-06
1.91634e-06
1.88369e-06
1.85625e-06
1.83318e-06
1.81376e-06
1.79736e-06
1.78345e-06
1.77157e-06
1.76137e-06
1.75255e-06
1.74492e-06
1.73828e-06
1.73253e-06
1.72758e-06
1.72335e-06
1.71979e-06
1.71687e-06
1.71453e-06
1.71275e-06
1.71148e-06
1.71068e-06
1.7103e-06
1.7103e-06
1.71063e-06
1.71124e-06
1.71208e-06
1.71311e-06
1.71428e-06
1.71555e-06
1.71689e-06
1.71826e-06
1.71964e-06
1.72099e-06
1.72232e-06
1.72359e-06
1.72479e-06
1.72593e-06
1.72699e-06
1.72797e-06
1.72887e-06
1.72969e-06
1.73044e-06
1.73112e-06
1.73173e-06
1.73228e-06
1.73277e-06
1.73323e-06
1.73366e-06
1.73407e-06
1.73448e-06
1.73485e-06
1.73519e-06
1.73547e-06
1.73562e-06
1.73571e-06
1.73577e-06
1.73581e-06
1.73585e-06
1.73588e-06
1.73592e-06
1.73595e-06
1.73598e-06
1.73601e-06
1.73604e-06
1.73607e-06
1.73611e-06
1.73614e-06
1.73617e-06
1.7362e-06
1.73623e-06
1.73627e-06
1.7363e-06
1.73633e-06
1.73636e-06
1.73639e-06
1.73642e-06
1.73645e-06
1.73648e-06
1.73651e-06
1.73654e-06
1.73657e-06
1.73659e-06
1.73662e-06
1.73665e-06
1.73668e-06
1.73671e-06
1.73673e-06
1.73676e-06
1.73679e-06
1.73682e-06
1.73684e-06
1.73687e-06
1.7369e-06
1.73693e-06
1.73695e-06
1.73698e-06
1.73701e-06
1.73703e-06
1.73706e-06
1.73709e-06
1.73711e-06
1.73714e-06
1.73716e-06
1.73719e-06
1.73721e-06
1.73724e-06
1.73726e-06
1.73729e-06
1.73731e-06
1.73734e-06
1.73736e-06
1.73739e-06
1.73741e-06
1.73743e-06
1.73745e-06
1.73748e-06
1.7375e-06
1.73752e-06
1.73754e-06
1.73756e-06
1.73759e-06
1.73761e-06
1.73763e-06
1.73765e-06
1.73766e-06
1.73768e-06
1.7377e-06
1.73772e-06
1.73774e-06
1.73775e-06
1.73777e-06
1.73779e-06
1.7378e-06
1.73782e-06
1.73783e-06
1.73784e-06
1.73786e-06
1.73787e-06
1.73788e-06
1.7379e-06
1.73791e-06
1.73792e-06
1.73793e-06
1.73794e-06
1.73795e-06
1.73796e-06
1.73796e-06
1.73797e-06
1.73798e-06
1.73798e-06
1.73799e-06
1.73799e-06
1.73799e-06
1.738e-06
1.738e-06
1.738e-06
1.738e-06
1.738e-06
1.738e-06
1.738e-06
1.738e-06
1.73799e-06
1.73799e-06
1.73798e-06
1.73798e-06
1.73797e-06
1.73797e-06
1.73796e-06
1.73796e-06
1.73795e-06
1.73794e-06
1.73793e-06
1.73793e-06
1.73792e-06
1.73791e-06
)
;

boundaryField
{
    boundary
    {
        type            empty;
    }
    inlet
    {
        type            fixedValue;
        value           uniform 0;
    }
    outlet
    {
        type            zeroGradient;
    }
}


// ************************************************************************* //
