/*--------------------------------*- C++ -*----------------------------------*\
  =========                 |
  \\      /  F ield         | OpenFOAM: The Open Source CFD Toolbox
   \\    /   O peration     | Website:  https://openfoam.org
    \\  /    A nd           | Version:  7
     \\/     M anipulation  |
\*---------------------------------------------------------------------------*/
FoamFile
{
    version     2.0;
    format      ascii;
    class       volScalarField;
    location    "8e-05";
    object      O;
}
// * * * * * * * * * * * * * * * * * * * * * * * * * * * * * * * * * * * * * //

dimensions      [0 0 0 0 0 0 0];

internalField   nonuniform List<scalar> 
500
(
1.65586e-47
4.04072e-47
6.47214e-47
8.82519e-47
1.09713e-46
1.28088e-46
1.4284e-46
1.53954e-46
1.61828e-46
1.67089e-46
1.70415e-46
1.72412e-46
1.73555e-46
1.74179e-46
1.74506e-46
1.74671e-46
1.74751e-46
1.74787e-46
1.74803e-46
1.7481e-46
1.74812e-46
1.74812e-46
1.74811e-46
1.7481e-46
1.74809e-46
1.74808e-46
1.74806e-46
1.74805e-46
1.74803e-46
1.74802e-46
1.748e-46
1.74798e-46
1.74797e-46
1.74795e-46
1.74794e-46
1.74792e-46
1.7479e-46
1.74788e-46
1.74787e-46
1.74785e-46
1.74783e-46
1.74782e-46
1.7478e-46
1.74778e-46
1.74777e-46
1.74775e-46
1.74773e-46
1.74772e-46
1.7477e-46
1.74769e-46
1.74767e-46
1.74766e-46
1.74765e-46
1.74763e-46
1.74762e-46
1.74761e-46
1.7476e-46
1.74759e-46
1.74758e-46
1.74757e-46
1.74756e-46
1.74756e-46
1.74755e-46
1.74755e-46
1.74754e-46
1.74754e-46
1.74754e-46
1.74754e-46
1.74754e-46
1.74754e-46
1.74754e-46
1.74754e-46
1.74755e-46
1.74755e-46
1.74756e-46
1.74757e-46
1.74758e-46
1.74759e-46
1.7476e-46
1.74762e-46
1.74763e-46
1.74765e-46
1.74767e-46
1.74769e-46
1.74771e-46
1.74773e-46
1.74776e-46
1.74778e-46
1.74781e-46
1.74784e-46
1.74787e-46
1.74791e-46
1.74794e-46
1.74798e-46
1.74801e-46
1.74805e-46
1.74809e-46
1.74813e-46
1.74818e-46
1.74822e-46
1.74827e-46
1.74832e-46
1.74837e-46
1.74842e-46
1.74847e-46
1.74853e-46
1.74859e-46
1.74864e-46
1.7487e-46
1.74876e-46
1.74882e-46
1.74889e-46
1.74895e-46
1.74902e-46
1.74908e-46
1.74915e-46
1.74922e-46
1.74929e-46
1.74934e-46
1.74937e-46
1.74927e-46
1.74878e-46
1.74718e-46
1.74289e-46
1.73436e-46
1.72476e-46
1.71744e-46
1.71828e-46
1.72385e-46
1.73073e-46
1.73696e-46
1.7418e-46
1.74521e-46
1.74745e-46
1.74884e-46
1.74967e-46
1.75016e-46
1.75045e-46
1.75063e-46
1.75074e-46
1.75082e-46
1.75088e-46
1.75093e-46
1.75097e-46
1.751e-46
1.75103e-46
1.75105e-46
1.75107e-46
1.75108e-46
1.75109e-46
1.75108e-46
1.75107e-46
1.75105e-46
1.75103e-46
1.75099e-46
1.75094e-46
1.75089e-46
1.75082e-46
1.75074e-46
1.75065e-46
1.75054e-46
1.75042e-46
1.75029e-46
1.75015e-46
1.74999e-46
1.74981e-46
1.74962e-46
1.7494e-46
1.74917e-46
1.74893e-46
1.74866e-46
1.74837e-46
1.74806e-46
1.74773e-46
1.74738e-46
1.747e-46
1.7466e-46
1.74617e-46
1.74572e-46
1.74524e-46
1.74474e-46
1.7442e-46
1.74364e-46
1.74305e-46
1.74243e-46
1.74178e-46
1.74109e-46
1.74038e-46
1.73963e-46
1.73884e-46
1.73803e-46
1.73718e-46
1.73629e-46
1.73537e-46
1.73441e-46
1.73341e-46
1.73238e-46
1.73132e-46
1.73021e-46
1.72907e-46
1.72789e-46
1.72667e-46
1.72541e-46
1.72412e-46
1.72278e-46
1.72141e-46
1.72001e-46
1.71856e-46
1.71708e-46
1.71556e-46
1.71401e-46
1.71242e-46
1.7108e-46
1.70914e-46
1.70745e-46
1.70572e-46
1.70397e-46
1.70218e-46
1.70036e-46
1.69852e-46
1.69664e-46
1.69474e-46
1.69282e-46
1.69087e-46
1.68889e-46
1.68691e-46
1.68496e-46
1.68348e-46
1.68627e-46
1.72876e-46
2.15724e-46
6.44814e-46
4.99572e-45
4.9345e-44
5.00709e-43
5.0668e-42
5.08507e-41
5.05093e-40
4.9601e-39
4.8134e-38
4.61596e-37
4.37631e-36
4.10496e-35
3.81272e-34
3.50865e-33
3.19831e-32
2.8829e-31
2.56014e-30
2.2273e-29
1.88612e-28
1.54689e-27
1.19138e-26
9.21506e-26
6.96939e-25
5.15637e-24
3.72887e-23
2.63296e-22
1.81324e-21
1.21644e-20
7.9394e-20
5.03437e-19
3.09684e-18
1.8451e-17
1.06297e-16
5.9107e-16
3.16642e-15
1.63106e-14
8.06289e-14
3.81775e-13
1.72846e-12
7.47194e-12
3.08153e-11
1.21256e-10
4.55945e-10
1.64424e-09
5.72959e-09
1.96652e-08
7.06274e-08
3.09724e-07
1.90722e-06
1.33338e-05
7.07623e-05
0.000290132
0.000904511
0.00199836
0.00331576
0.00449125
0.00531915
0.0057897
0.00598417
0.00599288
0.0058864
0.005713
0.00550363
0.00527746
0.00504617
0.00481675
0.00459334
0.00437834
0.00417306
0.00397813
0.00379374
0.00361976
0.00345587
0.00330161
0.00315638
0.00301954
0.0028904
0.00276826
0.00265242
0.00254225
0.00243718
0.00233974
0.00224774
0.00215867
0.00207225
0.00198827
0.00190656
0.00182703
0.00174961
0.00167429
0.00160108
0.00153003
0.0014612
0.00139464
0.00133043
0.00126864
0.00120932
0.00115254
0.00109833
0.00104672
0.000997706
0.000951292
0.000907452
0.000866151
0.000827338
0.000790953
0.000756925
0.000725174
0.000695614
0.000668154
0.0006427
0.000619157
0.000597425
0.000577409
0.000559011
0.000542137
0.000526694
0.000512592
0.000499741
0.000488058
0.00047746
0.000467869
0.000459211
0.000451412
0.000444404
0.000438123
0.000432506
0.000427497
0.00042304
0.000419085
0.000415583
0.000412491
0.000409767
0.000407374
0.000405275
0.00040344
0.000401839
0.000400445
0.000399234
0.000398185
0.000397277
0.000396495
0.00039582
0.000395236
0.000394715
0.00039434
0.000394001
0.000393704
0.000393451
0.000393237
0.000393058
0.000392911
0.000392791
0.000392693
0.000392614
0.000392551
0.0003925
0.00039246
0.000392429
0.000392404
0.000392384
0.000392369
0.000392358
0.000392349
0.000392342
0.000392338
0.000392334
0.000392332
0.00039233
0.000392329
0.000392329
0.000392328
0.000392329
0.000392329
0.00039233
0.00039233
0.000392331
0.000392332
0.000392333
0.000392334
0.000392335
0.000392336
0.000392337
0.000392338
0.000392339
0.00039234
0.000392341
0.000392342
0.000392343
0.000392344
0.000392344
0.000392345
0.000392346
0.000392347
0.000392348
0.000392349
0.00039235
0.000392351
0.000392351
0.000392352
0.000392353
0.000392354
0.000392355
0.000392355
0.000392356
0.000392357
0.000392358
0.000392358
0.000392359
0.00039236
0.00039236
0.000392361
0.000392362
0.000392362
0.000392363
0.000392364
0.000392364
0.000392365
0.000392365
0.000392366
0.000392366
0.000392367
0.000392367
0.000392367
0.000392368
0.000392368
0.000392369
0.000392369
0.000392369
0.00039237
0.00039237
0.00039237
0.00039237
0.00039237
0.000392371
0.000392371
0.000392371
0.000392371
0.000392371
0.000392371
0.000392371
0.000392371
0.000392371
0.000392371
0.000392371
0.000392371
0.000392371
0.000392371
0.00039237
0.00039237
0.00039237
0.00039237
0.000392369
0.000392369
0.000392369
0.000392368
0.000392368
0.000392367
0.000392367
0.000392367
0.000392366
0.000392366
0.000392365
0.000392365
0.000392364
0.000392364
0.000392363
0.000392363
0.000392362
)
;

boundaryField
{
    boundary
    {
        type            empty;
    }
    inlet
    {
        type            fixedValue;
        value           uniform 0;
    }
    outlet
    {
        type            zeroGradient;
    }
}


// ************************************************************************* //
