/*--------------------------------*- C++ -*----------------------------------*\
  =========                 |
  \\      /  F ield         | OpenFOAM: The Open Source CFD Toolbox
   \\    /   O peration     | Website:  https://openfoam.org
    \\  /    A nd           | Version:  7
     \\/     M anipulation  |
\*---------------------------------------------------------------------------*/
FoamFile
{
    version     2.0;
    format      ascii;
    class       volScalarField;
    location    "8e-05";
    object      O2;
}
// * * * * * * * * * * * * * * * * * * * * * * * * * * * * * * * * * * * * * //

dimensions      [0 0 0 0 0 0 0];

internalField   nonuniform List<scalar> 
500
(
0.226269
0.226269
0.226269
0.226269
0.226269
0.226269
0.226269
0.226269
0.226269
0.226269
0.226269
0.226269
0.226269
0.226269
0.226269
0.226269
0.226269
0.226269
0.226269
0.226269
0.226269
0.226269
0.226269
0.226269
0.226269
0.226269
0.226269
0.226269
0.226269
0.226269
0.226269
0.226269
0.226269
0.226269
0.226269
0.226269
0.226269
0.226269
0.226269
0.226269
0.226269
0.226269
0.226269
0.226269
0.226269
0.226269
0.226269
0.226269
0.226269
0.226269
0.226269
0.226269
0.226269
0.226269
0.226269
0.226269
0.226269
0.226269
0.226269
0.226269
0.226269
0.226269
0.226269
0.226269
0.226269
0.226269
0.226269
0.226269
0.226269
0.226269
0.226269
0.226269
0.226269
0.226269
0.226269
0.226269
0.226269
0.226269
0.226269
0.226269
0.226269
0.226269
0.226269
0.226269
0.226269
0.226269
0.226269
0.226269
0.226269
0.226269
0.226269
0.226269
0.226269
0.226269
0.226269
0.226269
0.226269
0.226269
0.226269
0.226269
0.226269
0.226269
0.226269
0.226269
0.226269
0.226269
0.226269
0.226269
0.226269
0.226269
0.226269
0.226269
0.226269
0.226269
0.226269
0.226269
0.226269
0.226269
0.226269
0.226269
0.226269
0.226269
0.226269
0.226269
0.226269
0.226269
0.226269
0.226269
0.226269
0.226269
0.226269
0.226269
0.226269
0.226269
0.226269
0.226269
0.226269
0.226269
0.226269
0.226269
0.226269
0.226269
0.226269
0.226269
0.226269
0.226269
0.226269
0.226269
0.226269
0.226269
0.226269
0.226269
0.226269
0.226269
0.226269
0.226269
0.226269
0.226269
0.226269
0.226269
0.226269
0.226269
0.226269
0.226269
0.226269
0.226269
0.226269
0.226269
0.226269
0.226269
0.226269
0.226269
0.226269
0.226269
0.226269
0.226269
0.226269
0.226269
0.226269
0.226269
0.226269
0.226269
0.226269
0.226269
0.226269
0.226269
0.226269
0.226269
0.226269
0.226269
0.226269
0.226269
0.226269
0.226269
0.226269
0.226269
0.226269
0.226269
0.226269
0.226269
0.226269
0.226269
0.226269
0.226269
0.226269
0.226269
0.226269
0.226269
0.226269
0.226269
0.226269
0.226269
0.226269
0.226269
0.226269
0.226269
0.226269
0.226269
0.226269
0.226269
0.226269
0.226269
0.226269
0.226269
0.226269
0.226269
0.226269
0.226269
0.226269
0.226269
0.226269
0.226269
0.226269
0.226269
0.226269
0.226269
0.226269
0.226269
0.226269
0.226269
0.226269
0.226269
0.226269
0.226269
0.226269
0.226269
0.226269
0.226269
0.226269
0.226269
0.226269
0.226269
0.226269
0.226269
0.226269
0.226269
0.226269
0.226269
0.226269
0.226269
0.226269
0.226269
0.226269
0.226269
0.226269
0.226269
0.226269
0.226269
0.226269
0.226269
0.226269
0.226269
0.22627
0.226271
0.226274
0.226277
0.226261
0.226137
0.225551
0.223525
0.21821
0.208052
0.194176
0.176721
0.154586
0.128833
0.103376
0.0819222
0.0657283
0.0541994
0.0461499
0.0404842
0.0363863
0.0333034
0.0308782
0.0288853
0.0271841
0.0256874
0.024341
0.0231112
0.0219769
0.0209244
0.0199447
0.0190316
0.0181804
0.017387
0.0166479
0.0159598
0.0153195
0.0147237
0.0141693
0.0136535
0.0131884
0.0127591
0.0123546
0.0119731
0.0116127
0.0112719
0.0109492
0.0106435
0.0103537
0.0100788
0.00981832
0.00957155
0.00933808
0.00911756
0.00890974
0.00871442
0.00853144
0.0083607
0.00820207
0.00805542
0.00792062
0.00779749
0.00768579
0.00758524
0.00749552
0.00741621
0.00734686
0.00728695
0.00723591
0.00719311
0.00715792
0.00712966
0.00710764
0.00709119
0.00707961
0.00707225
0.0070685
0.00706776
0.00706949
0.00707319
0.00707841
0.00708477
0.00709191
0.00709954
0.00710742
0.00711534
0.00712314
0.00713069
0.00713789
0.00714469
0.00715103
0.00715689
0.00716225
0.00716713
0.00717155
0.00717551
0.00717906
0.00718223
0.00718506
0.0071876
0.00718991
0.00719204
0.00719409
0.00719615
0.00719794
0.00719878
0.00719937
0.00719979
0.00720008
0.00720029
0.00720044
0.00720055
0.00720064
0.00720072
0.00720078
0.00720083
0.00720088
0.00720093
0.00720096
0.007201
0.00720103
0.00720105
0.00720107
0.00720109
0.0072011
0.00720111
0.00720112
0.00720113
0.00720113
0.00720113
0.00720113
0.00720113
0.00720113
0.00720113
0.00720113
0.00720113
0.00720113
0.00720113
0.00720112
0.00720112
0.00720112
0.00720112
0.00720112
0.00720111
0.00720111
0.00720111
0.00720111
0.00720111
0.00720111
0.0072011
0.0072011
0.0072011
0.0072011
0.0072011
0.0072011
0.0072011
0.00720109
0.00720109
0.00720109
0.00720109
0.00720109
0.00720109
0.00720109
0.00720109
0.00720108
0.00720108
0.00720108
0.00720108
0.00720108
0.00720108
0.00720107
0.00720107
0.00720107
0.00720107
0.00720107
0.00720107
0.00720106
0.00720106
0.00720106
0.00720106
0.00720106
0.00720105
0.00720105
0.00720105
0.00720105
0.00720105
0.00720105
0.00720104
0.00720104
0.00720104
0.00720104
0.00720104
0.00720103
0.00720103
0.00720103
0.00720103
0.00720102
0.00720102
0.00720102
0.00720102
0.00720102
0.00720101
0.00720101
0.00720101
0.00720101
0.00720101
0.00720101
0.007201
0.007201
0.007201
0.007201
0.007201
0.00720099
0.00720099
0.00720099
0.00720099
0.00720099
0.00720098
0.00720098
0.00720098
0.00720098
0.00720098
0.00720097
0.00720097
0.00720097
0.00720097
0.00720097
0.00720097
)
;

boundaryField
{
    boundary
    {
        type            empty;
    }
    inlet
    {
        type            fixedValue;
        value           uniform 0.226269;
    }
    outlet
    {
        type            zeroGradient;
    }
}


// ************************************************************************* //
