/*--------------------------------*- C++ -*----------------------------------*\
  =========                 |
  \\      /  F ield         | OpenFOAM: The Open Source CFD Toolbox
   \\    /   O peration     | Website:  https://openfoam.org
    \\  /    A nd           | Version:  7
     \\/     M anipulation  |
\*---------------------------------------------------------------------------*/
FoamFile
{
    version     2.0;
    format      ascii;
    class       volScalarField;
    location    "8e-05";
    object      OH;
}
// * * * * * * * * * * * * * * * * * * * * * * * * * * * * * * * * * * * * * //

dimensions      [0 0 0 0 0 0 0];

internalField   nonuniform List<scalar> 
500
(
9.87708e-48
2.02805e-47
2.8599e-47
3.53627e-47
4.08365e-47
4.51522e-47
4.84153e-47
5.07592e-47
5.23512e-47
5.33726e-47
5.39923e-47
5.43488e-47
5.45436e-47
5.4645e-47
5.46954e-47
5.47194e-47
5.47302e-47
5.47347e-47
5.47363e-47
5.47367e-47
5.47365e-47
5.47361e-47
5.47355e-47
5.47349e-47
5.47342e-47
5.47335e-47
5.47328e-47
5.4732e-47
5.47312e-47
5.47304e-47
5.47295e-47
5.47287e-47
5.47278e-47
5.47268e-47
5.47259e-47
5.47249e-47
5.47239e-47
5.47229e-47
5.47218e-47
5.47207e-47
5.47196e-47
5.47185e-47
5.47174e-47
5.47162e-47
5.4715e-47
5.47138e-47
5.47126e-47
5.47114e-47
5.47101e-47
5.47089e-47
5.47076e-47
5.47063e-47
5.4705e-47
5.47037e-47
5.47024e-47
5.4701e-47
5.46997e-47
5.46983e-47
5.4697e-47
5.46956e-47
5.46942e-47
5.46929e-47
5.46915e-47
5.46901e-47
5.46887e-47
5.46873e-47
5.46859e-47
5.46846e-47
5.46832e-47
5.46818e-47
5.46804e-47
5.4679e-47
5.46776e-47
5.46763e-47
5.46749e-47
5.46735e-47
5.46722e-47
5.46709e-47
5.46695e-47
5.46682e-47
5.46669e-47
5.46656e-47
5.46643e-47
5.4663e-47
5.46617e-47
5.46605e-47
5.46592e-47
5.4658e-47
5.46568e-47
5.46556e-47
5.46544e-47
5.46532e-47
5.4652e-47
5.46509e-47
5.46497e-47
5.46486e-47
5.46475e-47
5.46464e-47
5.46453e-47
5.46443e-47
5.46432e-47
5.46422e-47
5.46411e-47
5.46401e-47
5.46391e-47
5.4638e-47
5.4637e-47
5.4636e-47
5.4635e-47
5.4634e-47
5.4633e-47
5.4632e-47
5.4631e-47
5.46299e-47
5.46289e-47
5.46279e-47
5.46268e-47
5.46257e-47
5.46245e-47
5.46232e-47
5.46212e-47
5.46173e-47
5.46078e-47
5.45859e-47
5.45489e-47
5.45161e-47
5.44645e-47
5.44576e-47
5.44809e-47
5.45138e-47
5.45436e-47
5.45657e-47
5.45803e-47
5.45887e-47
5.45928e-47
5.45942e-47
5.45938e-47
5.45923e-47
5.45902e-47
5.45877e-47
5.45849e-47
5.45818e-47
5.45785e-47
5.4575e-47
5.45713e-47
5.45674e-47
5.45632e-47
5.45587e-47
5.4554e-47
5.4549e-47
5.45437e-47
5.45381e-47
5.45322e-47
5.45259e-47
5.45193e-47
5.45122e-47
5.45048e-47
5.4497e-47
5.44887e-47
5.448e-47
5.44708e-47
5.44612e-47
5.4451e-47
5.44403e-47
5.4429e-47
5.44171e-47
5.44047e-47
5.43916e-47
5.43779e-47
5.43635e-47
5.43485e-47
5.43327e-47
5.43162e-47
5.42989e-47
5.42809e-47
5.4262e-47
5.42423e-47
5.42218e-47
5.42004e-47
5.41781e-47
5.41548e-47
5.41307e-47
5.41055e-47
5.40794e-47
5.40523e-47
5.40241e-47
5.39949e-47
5.39646e-47
5.39333e-47
5.39008e-47
5.38672e-47
5.38325e-47
5.37966e-47
5.37596e-47
5.37214e-47
5.36821e-47
5.36415e-47
5.35997e-47
5.35568e-47
5.35126e-47
5.34672e-47
5.34207e-47
5.33729e-47
5.33239e-47
5.32737e-47
5.32224e-47
5.31698e-47
5.31162e-47
5.30613e-47
5.30054e-47
5.29483e-47
5.28901e-47
5.28309e-47
5.27707e-47
5.27094e-47
5.26471e-47
5.25839e-47
5.25198e-47
5.24548e-47
5.2389e-47
5.23224e-47
5.2255e-47
5.21869e-47
5.21181e-47
5.20486e-47
5.19787e-47
5.19089e-47
5.18461e-47
5.1861e-47
5.2703e-47
6.2338e-47
1.6511e-46
1.24682e-45
1.25144e-44
1.28571e-43
1.31005e-42
1.31986e-41
1.31505e-40
1.2968e-39
1.26695e-38
1.22759e-37
1.18058e-36
1.12715e-35
1.06768e-34
1.00167e-33
9.28159e-33
8.46407e-32
7.56753e-31
6.61282e-30
5.63877e-29
4.69424e-28
3.72266e-27
2.98088e-26
2.34265e-25
1.80646e-24
1.36603e-23
1.01238e-22
7.3488e-22
5.2218e-21
3.62993e-20
2.46721e-19
1.63871e-18
1.06307e-17
6.73228e-17
4.16e-16
2.507e-15
1.47284e-14
8.43212e-14
4.70318e-13
2.55567e-12
1.35333e-11
6.98955e-11
3.56847e-10
1.7987e-09
8.94957e-09
4.40619e-08
2.18441e-07
1.15274e-06
7.07535e-06
4.81763e-05
0.00025129
0.00061005
0.000820965
0.00100322
0.00144566
0.00230797
0.00352477
0.00487127
0.00613285
0.00719578
0.00803554
0.00867404
0.00914799
0.00949356
0.00974118
0.00991492
0.0100334
0.0101109
0.0101587
0.0101854
0.010198
0.0102017
0.0102009
0.0101986
0.0101969
0.0101972
0.0102002
0.0102056
0.0102131
0.0102216
0.0102297
0.0102359
0.0102386
0.010237
0.0102297
0.0102152
0.0101923
0.0101599
0.0101172
0.0100637
0.00999895
0.00992288
0.00983566
0.00973767
0.0096295
0.00951191
0.00938583
0.0092523
0.00911242
0.00896739
0.00881839
0.00866663
0.00851326
0.00835942
0.00820614
0.00805442
0.00790513
0.00775907
0.00761695
0.00747935
0.00734679
0.00721968
0.00709834
0.00698302
0.00687388
0.00677102
0.00667446
0.00658417
0.00650008
0.00642207
0.00634995
0.00628354
0.00622261
0.0061669
0.00611616
0.00607011
0.00602844
0.00599089
0.00595715
0.00592694
0.00589997
0.00587599
0.00585471
0.0058359
0.00581932
0.00580475
0.00579198
0.00578081
0.00577109
0.00576263
0.0057553
0.00574898
0.00574355
0.00573889
0.00573491
0.00573138
0.00572887
0.0057265
0.00572439
0.00572256
0.00572102
0.00571974
0.00571869
0.00571784
0.00571715
0.0057166
0.00571617
0.00571582
0.00571556
0.00571536
0.00571521
0.00571509
0.00571501
0.00571495
0.00571492
0.0057149
0.00571489
0.00571489
0.0057149
0.00571491
0.00571493
0.00571495
0.00571498
0.00571501
0.00571504
0.00571506
0.0057151
0.00571513
0.00571516
0.00571519
0.00571522
0.00571525
0.00571529
0.00571532
0.00571535
0.00571538
0.00571541
0.00571544
0.00571548
0.00571551
0.00571554
0.00571557
0.0057156
0.00571563
0.00571566
0.00571569
0.00571572
0.00571575
0.00571578
0.00571581
0.00571584
0.00571586
0.00571589
0.00571592
0.00571595
0.00571598
0.005716
0.00571603
0.00571606
0.00571608
0.00571611
0.00571613
0.00571616
0.00571618
0.00571621
0.00571623
0.00571625
0.00571628
0.0057163
0.00571632
0.00571634
0.00571636
0.00571638
0.0057164
0.00571642
0.00571644
0.00571646
0.00571648
0.00571649
0.00571651
0.00571653
0.00571654
0.00571656
0.00571657
0.00571658
0.0057166
0.00571661
0.00571662
0.00571663
0.00571664
0.00571665
0.00571666
0.00571667
0.00571667
0.00571668
0.00571669
0.00571669
0.0057167
0.0057167
0.0057167
0.0057167
0.00571671
0.00571671
0.00571671
0.00571671
0.0057167
0.0057167
0.0057167
0.00571669
0.00571669
0.00571669
0.00571668
0.00571667
0.00571667
0.00571666
0.00571665
0.00571665
0.00571664
0.00571663
0.00571663
)
;

boundaryField
{
    boundary
    {
        type            empty;
    }
    inlet
    {
        type            fixedValue;
        value           uniform 0;
    }
    outlet
    {
        type            zeroGradient;
    }
}


// ************************************************************************* //
