/*--------------------------------*- C++ -*----------------------------------*\
  =========                 |
  \\      /  F ield         | OpenFOAM: The Open Source CFD Toolbox
   \\    /   O peration     | Website:  https://openfoam.org
    \\  /    A nd           | Version:  7
     \\/     M anipulation  |
\*---------------------------------------------------------------------------*/
FoamFile
{
    version     2.0;
    format      ascii;
    class       volScalarField;
    location    "8e-05";
    object      p;
}
// * * * * * * * * * * * * * * * * * * * * * * * * * * * * * * * * * * * * * //

dimensions      [1 -1 -2 0 0 0 0];

internalField   nonuniform List<scalar> 
500
(
102867
102867
102867
102867
102867
102867
102867
102867
102868
102868
102868
102868
102868
102868
102868
102868
102868
102868
102868
102868
102868
102868
102868
102868
102868
102868
102868
102868
102868
102868
102868
102869
102869
102869
102869
102869
102869
102869
102869
102869
102869
102869
102869
102870
102870
102870
102870
102870
102870
102870
102870
102870
102870
102871
102871
102871
102871
102871
102871
102871
102871
102871
102872
102872
102872
102872
102872
102872
102872
102873
102873
102873
102873
102873
102873
102873
102874
102874
102874
102874
102874
102874
102874
102875
102875
102875
102875
102875
102875
102876
102876
102876
102876
102876
102876
102877
102877
102877
102877
102877
102877
102878
102878
102878
102878
102878
102878
102879
102879
102879
102879
102879
102879
102880
102880
102880
102880
102880
102880
102881
102881
102881
102881
102881
102881
102881
102882
102882
102882
102882
102882
102882
102882
102883
102883
102883
102883
102883
102883
102883
102884
102884
102884
102884
102884
102884
102884
102884
102885
102885
102885
102885
102885
102885
102885
102885
102885
102886
102886
102886
102886
102886
102886
102886
102886
102886
102886
102886
102886
102886
102887
102887
102887
102887
102887
102887
102887
102887
102887
102887
102887
102887
102887
102887
102887
102887
102887
102887
102887
102887
102887
102887
102887
102887
102887
102887
102887
102886
102886
102886
102886
102886
102886
102886
102886
102886
102886
102886
102885
102885
102885
102885
102885
102885
102885
102884
102884
102884
102884
102884
102883
102883
102883
102883
102883
102882
102882
102882
102882
102881
102881
102881
102881
102880
102880
102880
102879
102879
102879
102878
102878
102878
102877
102877
102877
102876
102876
102876
102875
102875
102875
102874
102874
102873
102873
102873
102872
102872
102871
102871
102870
102870
102870
102869
102869
102868
102868
102867
102867
102866
102866
102865
102865
102864
102864
102863
102863
102862
102862
102861
102859
102858
102855
102853
102850
102848
102846
102844
102843
102842
102841
102840
102839
102838
102838
102837
102837
102836
102836
102836
102835
102835
102834
102834
102834
102834
102833
102833
102833
102832
102832
102832
102832
102831
102831
102831
102831
102830
102830
102830
102830
102829
102829
102829
102829
102829
102828
102828
102828
102828
102827
102827
102827
102827
102826
102826
102826
102826
102825
102825
102825
102825
102824
102824
102824
102824
102823
102823
102823
102823
102822
102822
102822
102822
102821
102821
102821
102820
102820
102820
102820
102819
102819
102819
102818
102818
102818
102818
102817
102817
102817
102816
102816
102816
102815
102815
102815
102814
102814
102814
102814
102813
102813
102813
102812
102812
102812
102811
102811
102811
102810
102810
102809
102809
102809
102808
102808
102808
102807
102807
102807
102806
102806
102806
102805
102805
102804
102804
102804
102803
102803
102802
102802
102802
102801
102801
102800
102800
102800
102799
102799
102798
102798
102798
102797
102797
102796
102796
102795
102795
102795
102794
102794
102793
102793
102792
102792
102791
102791
102790
102790
102790
102789
102789
102788
102788
102787
102787
102786
102786
102785
102785
102784
102784
102783
102783
102782
102782
102781
102781
102780
102780
102779
102779
102778
102777
102777
102776
102776
102775
102775
102774
102774
102773
102772
102772
102771
102771
102770
102770
102769
102768
102768
102767
102767
102766
102765
102765
102764
102763
102763
102762
102762
102761
102760
102760
102759
102758
102758
102757
)
;

boundaryField
{
    boundary
    {
        type            empty;
    }
    inlet
    {
        type            zeroGradient;
    }
    outlet
    {
        type            waveTransmissive;
        gamma           1.4;
        value           uniform 102757;
    }
}


// ************************************************************************* //
