/*--------------------------------*- C++ -*----------------------------------*\
  =========                 |
  \\      /  F ield         | OpenFOAM: The Open Source CFD Toolbox
   \\    /   O peration     | Website:  https://openfoam.org
    \\  /    A nd           | Version:  7
     \\/     M anipulation  |
\*---------------------------------------------------------------------------*/
FoamFile
{
    version     2.0;
    format      ascii;
    class       surfaceScalarField;
    location    "8e-05";
    object      phi;
}
// * * * * * * * * * * * * * * * * * * * * * * * * * * * * * * * * * * * * * //

dimensions      [1 0 -1 0 0 0 0];

internalField   nonuniform List<scalar> 
499
(
6.90794e-06
6.90188e-06
6.89425e-06
6.88577e-06
6.87723e-06
6.8692e-06
6.86197e-06
6.85561e-06
6.85003e-06
6.84509e-06
6.84063e-06
6.83648e-06
6.83256e-06
6.82876e-06
6.82506e-06
6.82142e-06
6.81782e-06
6.81427e-06
6.81076e-06
6.80728e-06
6.80385e-06
6.80045e-06
6.7971e-06
6.79379e-06
6.79053e-06
6.78732e-06
6.78415e-06
6.78104e-06
6.77797e-06
6.77496e-06
6.77201e-06
6.76911e-06
6.76627e-06
6.76348e-06
6.76076e-06
6.7581e-06
6.75549e-06
6.75296e-06
6.75048e-06
6.74808e-06
6.74573e-06
6.74346e-06
6.74125e-06
6.73911e-06
6.73704e-06
6.73504e-06
6.73312e-06
6.73126e-06
6.72948e-06
6.72776e-06
6.72613e-06
6.72456e-06
6.72307e-06
6.72165e-06
6.72031e-06
6.71904e-06
6.71785e-06
6.71674e-06
6.71569e-06
6.71473e-06
6.71384e-06
6.71302e-06
6.71228e-06
6.71162e-06
6.71103e-06
6.71052e-06
6.71008e-06
6.70972e-06
6.70943e-06
6.70921e-06
6.70907e-06
6.70901e-06
6.70901e-06
6.70909e-06
6.70924e-06
6.70946e-06
6.70976e-06
6.71012e-06
6.71055e-06
6.71105e-06
6.71162e-06
6.71226e-06
6.71297e-06
6.71374e-06
6.71458e-06
6.71548e-06
6.71644e-06
6.71747e-06
6.71856e-06
6.71971e-06
6.72091e-06
6.72218e-06
6.72351e-06
6.72489e-06
6.72632e-06
6.72781e-06
6.72936e-06
6.73095e-06
6.7326e-06
6.7343e-06
6.73604e-06
6.73783e-06
6.73966e-06
6.74154e-06
6.74347e-06
6.74543e-06
6.74743e-06
6.74948e-06
6.75156e-06
6.75367e-06
6.75582e-06
6.758e-06
6.76022e-06
6.76246e-06
6.76473e-06
6.76703e-06
6.76935e-06
6.7717e-06
6.77407e-06
6.77646e-06
6.77887e-06
6.7813e-06
6.78374e-06
6.78619e-06
6.78867e-06
6.79116e-06
6.79366e-06
6.79616e-06
6.79866e-06
6.80116e-06
6.80367e-06
6.80618e-06
6.80869e-06
6.8112e-06
6.81371e-06
6.81622e-06
6.81872e-06
6.82121e-06
6.8237e-06
6.82617e-06
6.82863e-06
6.83108e-06
6.83352e-06
6.83594e-06
6.83834e-06
6.84073e-06
6.84309e-06
6.84543e-06
6.84775e-06
6.85005e-06
6.85233e-06
6.85457e-06
6.8568e-06
6.85899e-06
6.86115e-06
6.86328e-06
6.86539e-06
6.86746e-06
6.86949e-06
6.8715e-06
6.87346e-06
6.87539e-06
6.87729e-06
6.87914e-06
6.88096e-06
6.88274e-06
6.88448e-06
6.88618e-06
6.88783e-06
6.88944e-06
6.89101e-06
6.89254e-06
6.89402e-06
6.89546e-06
6.89685e-06
6.89819e-06
6.89949e-06
6.90074e-06
6.90194e-06
6.90309e-06
6.9042e-06
6.90525e-06
6.90626e-06
6.90722e-06
6.90812e-06
6.90898e-06
6.90978e-06
6.91053e-06
6.91123e-06
6.91187e-06
6.91247e-06
6.91301e-06
6.91349e-06
6.91393e-06
6.91431e-06
6.91463e-06
6.9149e-06
6.91512e-06
6.91528e-06
6.91538e-06
6.91544e-06
6.91543e-06
6.91537e-06
6.91526e-06
6.91508e-06
6.91486e-06
6.91457e-06
6.91423e-06
6.91384e-06
6.91338e-06
6.91288e-06
6.91231e-06
6.91169e-06
6.91101e-06
6.91028e-06
6.90948e-06
6.90864e-06
6.90773e-06
6.90677e-06
6.90575e-06
6.90468e-06
6.90354e-06
6.90236e-06
6.90111e-06
6.89981e-06
6.89845e-06
6.89703e-06
6.89556e-06
6.89403e-06
6.89244e-06
6.8908e-06
6.8891e-06
6.88734e-06
6.88553e-06
6.88366e-06
6.88173e-06
6.87974e-06
6.8777e-06
6.8756e-06
6.87344e-06
6.87123e-06
6.86896e-06
6.86663e-06
6.86424e-06
6.8618e-06
6.8593e-06
6.85674e-06
6.85413e-06
6.85145e-06
6.84873e-06
6.84595e-06
6.84312e-06
6.84022e-06
6.83726e-06
6.83424e-06
6.83117e-06
6.82804e-06
6.82485e-06
6.82162e-06
6.81832e-06
6.81498e-06
6.81158e-06
6.80812e-06
6.80461e-06
6.80105e-06
6.79744e-06
6.79377e-06
6.79004e-06
6.78627e-06
6.78244e-06
6.77855e-06
6.77462e-06
6.77069e-06
6.76699e-06
6.76432e-06
6.7652e-06
6.77639e-06
6.81179e-06
6.88411e-06
6.97229e-06
7.03379e-06
7.0631e-06
7.07506e-06
7.0798e-06
7.0816e-06
7.08221e-06
7.08249e-06
7.08284e-06
7.08341e-06
7.0842e-06
7.08515e-06
7.0861e-06
7.08688e-06
7.08725e-06
7.08697e-06
7.08573e-06
7.08318e-06
7.07894e-06
7.0726e-06
7.06373e-06
7.05193e-06
7.03682e-06
7.01812e-06
6.99558e-06
6.96909e-06
6.93863e-06
6.90428e-06
6.86626e-06
6.82487e-06
6.7805e-06
6.73361e-06
6.68473e-06
6.6374e-06
6.58906e-06
6.5402e-06
6.49127e-06
6.44272e-06
6.39497e-06
6.34842e-06
6.30341e-06
6.26026e-06
6.21922e-06
6.1805e-06
6.14427e-06
6.11066e-06
6.07974e-06
6.05154e-06
6.02605e-06
6.00325e-06
5.98306e-06
5.96538e-06
5.95009e-06
5.93706e-06
5.92613e-06
5.91714e-06
5.90992e-06
5.90429e-06
5.90009e-06
5.89713e-06
5.89526e-06
5.89432e-06
5.89415e-06
5.89463e-06
5.89561e-06
5.897e-06
5.89867e-06
5.90056e-06
5.90256e-06
5.90462e-06
5.90669e-06
5.9087e-06
5.91063e-06
5.91244e-06
5.91412e-06
5.91565e-06
5.917e-06
5.91819e-06
5.91921e-06
5.92005e-06
5.92072e-06
5.92123e-06
5.92159e-06
5.92179e-06
5.92186e-06
5.92179e-06
5.92161e-06
5.92131e-06
5.92091e-06
5.92041e-06
5.91983e-06
5.91916e-06
5.91843e-06
5.91763e-06
5.91678e-06
5.91589e-06
5.91499e-06
5.91407e-06
5.91309e-06
5.91206e-06
5.91099e-06
5.90989e-06
5.90876e-06
5.90761e-06
5.90644e-06
5.90525e-06
5.90404e-06
5.90282e-06
5.90159e-06
5.90034e-06
5.89909e-06
5.89782e-06
5.89654e-06
5.89525e-06
5.89396e-06
5.89265e-06
5.89133e-06
5.89001e-06
5.88868e-06
5.88734e-06
5.88599e-06
5.88463e-06
5.88327e-06
5.88189e-06
5.88051e-06
5.87912e-06
5.87773e-06
5.87632e-06
5.87491e-06
5.87349e-06
5.87206e-06
5.87062e-06
5.86918e-06
5.86772e-06
5.86626e-06
5.86479e-06
5.86331e-06
5.86182e-06
5.86032e-06
5.85882e-06
5.85731e-06
5.85578e-06
5.85425e-06
5.85271e-06
5.85117e-06
5.84961e-06
5.84804e-06
5.84647e-06
5.84489e-06
5.84329e-06
5.84169e-06
5.84008e-06
5.83846e-06
5.83683e-06
5.83519e-06
5.83355e-06
5.83189e-06
5.83022e-06
5.82855e-06
5.82686e-06
5.82517e-06
5.82346e-06
5.82175e-06
5.82003e-06
5.8183e-06
5.81655e-06
5.8148e-06
5.81304e-06
5.81127e-06
5.80948e-06
5.80769e-06
5.80589e-06
5.80408e-06
5.80226e-06
5.80042e-06
5.79858e-06
5.79673e-06
5.79487e-06
5.79299e-06
5.79111e-06
5.78921e-06
5.78731e-06
5.78539e-06
5.78347e-06
5.78153e-06
5.77958e-06
5.77762e-06
5.77565e-06
5.77367e-06
5.77168e-06
5.76968e-06
5.76766e-06
5.76564e-06
5.7636e-06
5.76155e-06
5.75949e-06
5.75742e-06
5.75534e-06
5.75324e-06
5.75114e-06
5.74902e-06
5.74689e-06
5.74475e-06
5.74259e-06
5.74043e-06
5.73825e-06
5.73606e-06
5.73385e-06
5.73164e-06
5.72941e-06
5.72717e-06
5.72491e-06
5.72264e-06
5.72036e-06
5.71807e-06
5.71576e-06
5.71344e-06
5.71111e-06
5.70876e-06
5.7064e-06
)
;

boundaryField
{
    boundary
    {
        type            empty;
        value           nonuniform 0();
    }
    inlet
    {
        type            calculated;
        value           uniform -6.9126e-06;
    }
    outlet
    {
        type            calculated;
        value           uniform 5.70403e-06;
    }
}


// ************************************************************************* //
