/*--------------------------------*- C++ -*----------------------------------*\
  =========                 |
  \\      /  F ield         | OpenFOAM: The Open Source CFD Toolbox
   \\    /   O peration     | Website:  https://openfoam.org
    \\  /    A nd           | Version:  7
     \\/     M anipulation  |
\*---------------------------------------------------------------------------*/
FoamFile
{
    version     2.0;
    format      ascii;
    class       volScalarField;
    location    "8e-05";
    object      Qdot;
}
// * * * * * * * * * * * * * * * * * * * * * * * * * * * * * * * * * * * * * //

dimensions      [1 -1 -3 0 0 0 0];

internalField   nonuniform List<scalar> 
500
(
-2.44525e-27
-1.94663e-27
-1.92018e-27
-2.01031e-27
-2.12312e-27
-2.22821e-27
-2.31417e-27
-2.37813e-27
-2.42199e-27
-2.44992e-27
-2.46657e-27
-2.4759e-27
-2.48087e-27
-2.48338e-27
-2.48461e-27
-2.48521e-27
-2.4855e-27
-2.48566e-27
-2.48576e-27
-2.48584e-27
-2.48591e-27
-2.48598e-27
-2.48605e-27
-2.48613e-27
-2.48621e-27
-2.48629e-27
-2.48637e-27
-2.48646e-27
-2.48655e-27
-2.48664e-27
-2.48674e-27
-2.48684e-27
-2.48694e-27
-2.48704e-27
-2.48715e-27
-2.48726e-27
-2.48737e-27
-2.48748e-27
-2.4876e-27
-2.48772e-27
-2.48784e-27
-2.48797e-27
-2.48809e-27
-2.48822e-27
-2.48835e-27
-2.48849e-27
-2.48863e-27
-2.48877e-27
-2.48891e-27
-2.48906e-27
-2.4892e-27
-2.48935e-27
-2.48951e-27
-2.48966e-27
-2.48982e-27
-2.48998e-27
-2.49015e-27
-2.49031e-27
-2.49048e-27
-2.49065e-27
-2.49083e-27
-2.491e-27
-2.49118e-27
-2.49137e-27
-2.49155e-27
-2.49174e-27
-2.49193e-27
-2.49212e-27
-2.49232e-27
-2.49252e-27
-2.49272e-27
-2.49292e-27
-2.49313e-27
-2.49334e-27
-2.49356e-27
-2.49377e-27
-2.49399e-27
-2.49422e-27
-2.49444e-27
-2.49467e-27
-2.4949e-27
-2.49513e-27
-2.49537e-27
-2.49561e-27
-2.49585e-27
-2.4961e-27
-2.49635e-27
-2.4966e-27
-2.49686e-27
-2.49711e-27
-2.49737e-27
-2.49764e-27
-2.4979e-27
-2.49817e-27
-2.49844e-27
-2.49872e-27
-2.49899e-27
-2.49927e-27
-2.49955e-27
-2.49984e-27
-2.50013e-27
-2.50041e-27
-2.50071e-27
-2.501e-27
-2.50129e-27
-2.50159e-27
-2.50189e-27
-2.50219e-27
-2.5025e-27
-2.5028e-27
-2.50311e-27
-2.50341e-27
-2.50372e-27
-2.50403e-27
-2.50434e-27
-2.50466e-27
-2.50497e-27
-2.50528e-27
-2.5056e-27
-2.50591e-27
-2.50622e-27
-2.50652e-27
-2.5068e-27
-2.50703e-27
-2.50713e-27
-2.50716e-27
-2.50733e-27
-2.50768e-27
-2.50813e-27
-2.5086e-27
-2.50905e-27
-2.50946e-27
-2.50983e-27
-2.51017e-27
-2.51048e-27
-2.51079e-27
-2.51108e-27
-2.51136e-27
-2.51164e-27
-2.51191e-27
-2.51217e-27
-2.51243e-27
-2.51268e-27
-2.51293e-27
-2.51317e-27
-2.5134e-27
-2.51362e-27
-2.51383e-27
-2.51403e-27
-2.51423e-27
-2.51441e-27
-2.51458e-27
-2.51474e-27
-2.51489e-27
-2.51502e-27
-2.51514e-27
-2.51525e-27
-2.51534e-27
-2.51541e-27
-2.51547e-27
-2.51551e-27
-2.51553e-27
-2.51554e-27
-2.51552e-27
-2.51548e-27
-2.51542e-27
-2.51534e-27
-2.51524e-27
-2.51511e-27
-2.51496e-27
-2.51478e-27
-2.51457e-27
-2.51434e-27
-2.51408e-27
-2.51378e-27
-2.51346e-27
-2.5131e-27
-2.51272e-27
-2.51229e-27
-2.51184e-27
-2.51135e-27
-2.51082e-27
-2.51026e-27
-2.50965e-27
-2.50901e-27
-2.50833e-27
-2.50761e-27
-2.50684e-27
-2.50604e-27
-2.50519e-27
-2.5043e-27
-2.50336e-27
-2.50238e-27
-2.50135e-27
-2.50028e-27
-2.49916e-27
-2.49799e-27
-2.49678e-27
-2.49551e-27
-2.49421e-27
-2.49285e-27
-2.49144e-27
-2.48999e-27
-2.48849e-27
-2.48694e-27
-2.48535e-27
-2.48371e-27
-2.48202e-27
-2.48028e-27
-2.4785e-27
-2.47668e-27
-2.47481e-27
-2.4729e-27
-2.47095e-27
-2.46895e-27
-2.46692e-27
-2.46484e-27
-2.46273e-27
-2.46058e-27
-2.4584e-27
-2.45618e-27
-2.45394e-27
-2.45166e-27
-2.44935e-27
-2.44701e-27
-2.44465e-27
-2.44226e-27
-2.43985e-27
-2.43742e-27
-2.43497e-27
-2.43249e-27
-2.42995e-27
-2.42706e-27
-2.42188e-27
-2.40076e-27
-2.26868e-27
-1.36248e-27
4.95123e-27
4.90859e-26
3.58123e-25
2.52561e-24
1.77567e-23
1.25031e-22
8.82635e-22
6.25e-21
4.44079e-20
3.16614e-19
2.26393e-18
1.62167e-17
1.16175e-16
8.3096e-16
5.89548e-15
4.189e-14
2.96472e-13
2.08553e-12
1.45569e-11
1.00647e-10
6.88162e-10
4.64579e-09
3.09224e-08
2.02656e-07
1.30622e-06
8.27215e-06
5.14322e-05
0.000313786
0.00187808
0.0110287
0.0635816
0.36033
2.01183
11.1044
65.7813
417.372
3140.72
23867.6
193556
1.70557e+06
1.56565e+07
1.39554e+08
1.02525e+09
4.53419e+09
1.01977e+10
1.31869e+10
1.36449e+10
1.36388e+10
1.34467e+10
1.25112e+10
1.08409e+10
8.98078e+09
7.33604e+09
6.02463e+09
5.01674e+09
4.24456e+09
3.64536e+09
3.17126e+09
2.78802e+09
2.47174e+09
2.2056e+09
1.97784e+09
1.78003e+09
1.60605e+09
1.45146e+09
1.31294e+09
1.18801e+09
1.07481e+09
9.71897e+08
8.78146e+08
7.92674e+08
7.14764e+08
6.43787e+08
5.7926e+08
5.20795e+08
4.69295e+08
4.23206e+08
3.81101e+08
3.42806e+08
3.08013e+08
2.76444e+08
2.47843e+08
2.21963e+08
1.9857e+08
1.77445e+08
1.58385e+08
1.41202e+08
1.25722e+08
1.11785e+08
9.92481e+07
8.79792e+07
7.78593e+07
6.87804e+07
6.06446e+07
5.33633e+07
4.68555e+07
4.10477e+07
3.5874e+07
3.12711e+07
2.71842e+07
2.35623e+07
2.03586e+07
1.7532e+07
1.50399e+07
1.28507e+07
1.09311e+07
9.25335e+06
7.78948e+06
6.51479e+06
5.40809e+06
4.45054e+06
3.62396e+06
2.91288e+06
2.30497e+06
1.78393e+06
1.34017e+06
963624
645524
378031
154129
-32289.9
-186034
-312678
-416857
-498965
-565413
-617681
-657726
-688357
-710542
-725749
-735876
-742021
-746489
-750644
-761324
-786958
-850570
-993788
-1.02949e+06
-900918
-823730
-779704
-754112
-738423
-729926
-724104
-720355
-717420
-715316
-713605
-712469
-711648
-711272
-710531
-710476
-710570
-710810
-711172
-711642
-712205
-712848
-713558
-714324
-715136
-715986
-716868
-717774
-718701
-719644
-720599
-721564
-722537
-723515
-724498
-725483
-726467
-727446
-728429
-729415
-730402
-731388
-732373
-733355
-734335
-735312
-736286
-737257
-738225
-739189
-740150
-741107
-742059
-743008
-743951
-744889
-745822
-746749
-747670
-748584
-749491
-750390
-751279
-752148
-752965
-753811
-754662
-755508
-756347
-757176
-757995
-758803
-759600
-760385
-761159
-761920
-762669
-763404
-764126
-764835
-765529
-766209
-766875
-767526
-768161
-768781
-769386
-769975
-770887
-771462
-772007
-772530
-773034
-773520
-773989
-774439
-774872
-775287
-775684
-776063
-776424
-776767
-777091
-777398
-777686
-777956
-778208
-778442
-778657
-778854
-779034
-779098
-779244
-779373
-779487
-779585
-779670
-779744
-779810
-779874
-779944
-780030
-780133
)
;

boundaryField
{
    boundary
    {
        type            empty;
    }
    inlet
    {
        type            calculated;
        value           uniform 0;
    }
    outlet
    {
        type            calculated;
        value           uniform 0;
    }
}


// ************************************************************************* //
