/*--------------------------------*- C++ -*----------------------------------*\
  =========                 |
  \\      /  F ield         | OpenFOAM: The Open Source CFD Toolbox
   \\    /   O peration     | Website:  https://openfoam.org
    \\  /    A nd           | Version:  7
     \\/     M anipulation  |
\*---------------------------------------------------------------------------*/
FoamFile
{
    version     2.0;
    format      ascii;
    class       volScalarField;
    location    "8e-05";
    object      rho;
}
// * * * * * * * * * * * * * * * * * * * * * * * * * * * * * * * * * * * * * //

dimensions      [1 -3 0 0 0 0 0];

internalField   nonuniform List<scalar> 
500
(
0.862343
0.861982
0.861475
0.86091
0.860368
0.859902
0.859534
0.859264
0.859079
0.85896
0.858888
0.858846
0.858824
0.858812
0.858807
0.858804
0.858803
0.858802
0.858802
0.858802
0.858802
0.858802
0.858803
0.858803
0.858803
0.858803
0.858803
0.858803
0.858803
0.858804
0.858804
0.858804
0.858804
0.858804
0.858805
0.858805
0.858805
0.858805
0.858805
0.858806
0.858806
0.858806
0.858806
0.858807
0.858807
0.858807
0.858808
0.858808
0.858808
0.858808
0.858809
0.858809
0.858809
0.85881
0.85881
0.85881
0.858811
0.858811
0.858811
0.858812
0.858812
0.858812
0.858813
0.858813
0.858813
0.858814
0.858814
0.858815
0.858815
0.858815
0.858816
0.858816
0.858816
0.858817
0.858817
0.858818
0.858818
0.858818
0.858819
0.858819
0.85882
0.85882
0.85882
0.858821
0.858821
0.858822
0.858822
0.858822
0.858823
0.858823
0.858823
0.858824
0.858824
0.858825
0.858825
0.858825
0.858826
0.858826
0.858826
0.858827
0.858827
0.858827
0.858828
0.858828
0.858828
0.858829
0.858829
0.858829
0.858829
0.85883
0.85883
0.85883
0.85883
0.858831
0.858831
0.858831
0.858831
0.858832
0.858832
0.858832
0.858832
0.858832
0.858833
0.858833
0.858834
0.858835
0.858836
0.858836
0.858836
0.858835
0.858835
0.858835
0.858835
0.858835
0.858835
0.858835
0.858835
0.858835
0.858836
0.858836
0.858836
0.858836
0.858836
0.858837
0.858837
0.858837
0.858838
0.858838
0.858838
0.858839
0.858839
0.858839
0.85884
0.85884
0.858841
0.858841
0.858842
0.858843
0.858843
0.858844
0.858845
0.858846
0.858846
0.858847
0.858848
0.858849
0.85885
0.858852
0.858853
0.858854
0.858855
0.858857
0.858858
0.85886
0.858862
0.858863
0.858865
0.858867
0.858869
0.858871
0.858873
0.858876
0.858878
0.858881
0.858883
0.858886
0.858889
0.858892
0.858895
0.858898
0.858902
0.858905
0.858909
0.858913
0.858917
0.858921
0.858925
0.858929
0.858934
0.858938
0.858943
0.858948
0.858953
0.858958
0.858963
0.858969
0.858974
0.85898
0.858986
0.858992
0.858998
0.859004
0.85901
0.859017
0.859023
0.85903
0.859037
0.859044
0.859051
0.859058
0.859065
0.859072
0.859079
0.859087
0.859094
0.859102
0.859109
0.859117
0.859124
0.859132
0.85914
0.859147
0.859155
0.859163
0.85917
0.859178
0.859186
0.859194
0.859201
0.859209
0.859217
0.859225
0.859232
0.85924
0.859248
0.859256
0.859264
0.859271
0.85928
0.859288
0.859297
0.859307
0.859315
0.859323
0.85933
0.859338
0.859346
0.859355
0.859363
0.859372
0.859382
0.859391
0.859401
0.859411
0.859422
0.859432
0.859443
0.859455
0.859466
0.859479
0.859492
0.859505
0.859512
0.859476
0.859233
0.858135
0.853841
0.838811
0.793907
0.694648
0.556109
0.433388
0.350075
0.296127
0.259322
0.233192
0.2146
0.201407
0.191911
0.184882
0.17951
0.175272
0.171832
0.168967
0.166525
0.164399
0.162512
0.160802
0.159225
0.157743
0.156327
0.154953
0.153603
0.152263
0.150925
0.149581
0.148229
0.146872
0.14551
0.144151
0.1428
0.141467
0.140197
0.138977
0.137785
0.136628
0.135513
0.134444
0.133428
0.132466
0.131564
0.130722
0.129943
0.129226
0.128572
0.12798
0.127448
0.126974
0.126555
0.12619
0.125874
0.125604
0.125378
0.12519
0.125038
0.124918
0.124826
0.124759
0.124714
0.124687
0.124676
0.124678
0.124691
0.124712
0.12474
0.124773
0.124809
0.124848
0.124887
0.124927
0.124966
0.125005
0.125041
0.125076
0.125109
0.12514
0.125168
0.125194
0.125218
0.12524
0.125259
0.125277
0.125292
0.125306
0.125318
0.125329
0.125339
0.125347
0.125354
0.12536
0.125365
0.12537
0.125373
0.125376
0.125378
0.125379
0.12538
0.125382
0.125383
0.125384
0.125385
0.125385
0.125385
0.125385
0.125385
0.125385
0.125384
0.125384
0.125383
0.125383
0.125382
0.125381
0.125381
0.12538
0.125379
0.125379
0.125378
0.125377
0.125376
0.125375
0.125375
0.125374
0.125373
0.125372
0.125371
0.125371
0.12537
0.125369
0.125368
0.125367
0.125367
0.125366
0.125365
0.125364
0.125363
0.125362
0.125362
0.125361
0.12536
0.125359
0.125358
0.125357
0.125357
0.125356
0.125355
0.125354
0.125353
0.125352
0.125351
0.125351
0.12535
0.125349
0.125348
0.125347
0.125346
0.125346
0.125345
0.125344
0.125343
0.125342
0.125341
0.12534
0.12534
0.125339
0.125338
0.125337
0.125336
0.125335
0.125334
0.125334
0.125333
0.125332
0.125331
0.12533
0.125329
0.125328
0.125328
0.125327
0.125326
0.125325
0.125324
0.125323
0.125323
0.125322
0.125321
0.12532
0.125319
0.125318
0.125318
0.125317
0.125316
0.125315
0.125314
0.125314
0.125313
0.125312
0.125311
0.125311
0.12531
0.125309
0.125308
0.125307
0.125307
0.125306
0.125305
0.125304
0.125304
0.125303
0.125302
0.125301
0.125301
0.1253
0.125299
0.125298
0.125298
0.125297
0.125296
0.125295
0.125295
0.125294
)
;

boundaryField
{
    boundary
    {
        type            empty;
    }
    inlet
    {
        type            calculated;
        value           uniform 0.862486;
    }
    outlet
    {
        type            calculated;
        value           uniform 0.125293;
    }
}


// ************************************************************************* //
