/*--------------------------------*- C++ -*----------------------------------*\
  =========                 |
  \\      /  F ield         | OpenFOAM: The Open Source CFD Toolbox
   \\    /   O peration     | Website:  https://openfoam.org
    \\  /    A nd           | Version:  7
     \\/     M anipulation  |
\*---------------------------------------------------------------------------*/
FoamFile
{
    version     2.0;
    format      ascii;
    class       volScalarField;
    location    "8e-05";
    object      T;
}
// * * * * * * * * * * * * * * * * * * * * * * * * * * * * * * * * * * * * * //

dimensions      [0 0 0 1 0 0 0];

internalField   nonuniform List<scalar> 
500
(
300.05
300.175
300.352
300.549
300.738
300.902
301.031
301.125
301.19
301.232
301.257
301.272
301.28
301.284
301.286
301.287
301.288
301.288
301.288
301.288
301.288
301.288
301.288
301.289
301.289
301.289
301.289
301.289
301.289
301.289
301.289
301.29
301.29
301.29
301.29
301.29
301.29
301.29
301.291
301.291
301.291
301.291
301.291
301.291
301.292
301.292
301.292
301.292
301.292
301.293
301.293
301.293
301.293
301.293
301.294
301.294
301.294
301.294
301.295
301.295
301.295
301.295
301.296
301.296
301.296
301.296
301.297
301.297
301.297
301.297
301.298
301.298
301.298
301.298
301.299
301.299
301.299
301.3
301.3
301.3
301.301
301.301
301.301
301.301
301.302
301.302
301.302
301.303
301.303
301.303
301.304
301.304
301.305
301.305
301.305
301.306
301.306
301.306
301.307
301.307
301.307
301.308
301.308
301.309
301.309
301.309
301.31
301.31
301.31
301.311
301.311
301.312
301.312
301.312
301.313
301.313
301.314
301.314
301.314
301.315
301.315
301.316
301.316
301.316
301.316
301.316
301.317
301.317
301.317
301.318
301.319
301.319
301.32
301.32
301.32
301.321
301.321
301.321
301.322
301.322
301.322
301.323
301.323
301.323
301.324
301.324
301.324
301.324
301.325
301.325
301.325
301.325
301.325
301.325
301.326
301.326
301.326
301.326
301.326
301.326
301.326
301.326
301.326
301.326
301.326
301.325
301.325
301.325
301.325
301.325
301.324
301.324
301.324
301.323
301.323
301.322
301.322
301.321
301.32
301.32
301.319
301.318
301.317
301.316
301.316
301.315
301.313
301.312
301.311
301.31
301.309
301.307
301.306
301.305
301.303
301.301
301.3
301.298
301.296
301.295
301.293
301.291
301.289
301.287
301.284
301.282
301.28
301.278
301.275
301.273
301.27
301.267
301.265
301.262
301.259
301.256
301.254
301.251
301.248
301.245
301.242
301.238
301.235
301.232
301.229
301.225
301.222
301.219
301.215
301.212
301.209
301.205
301.202
301.198
301.194
301.191
301.187
301.184
301.18
301.176
301.173
301.169
301.165
301.162
301.158
301.154
301.15
301.146
301.143
301.138
301.134
301.13
301.126
301.122
301.118
301.114
301.11
301.106
301.102
301.097
301.093
301.088
301.083
301.078
301.073
301.068
301.063
301.058
301.052
301.047
301.042
301.038
301.042
301.072
301.204
301.708
303.502
309.561
328.389
377.953
476.865
619.167
775.927
927.965
1070.34
1199.52
1310.56
1401.63
1474.97
1534.25
1582.89
1623.54
1658.13
1688.1
1714.49
1738.11
1759.61
1779.49
1798.2
1816.11
1833.52
1850.7
1867.88
1885.24
1902.91
1920.99
1939.54
1958.58
1978.08
1998
2018.24
2038.7
2058.68
2078.29
2097.91
2117.41
2136.67
2155.58
2174.02
2191.89
2209.12
2225.6
2241.29
2256.11
2270.04
2283.05
2295.12
2306.25
2316.46
2325.76
2334.19
2341.78
2348.58
2354.63
2359.98
2364.7
2368.83
2372.42
2375.54
2378.23
2380.54
2382.51
2384.19
2385.62
2386.82
2387.84
2388.7
2389.42
2390.02
2390.53
2390.96
2391.32
2391.62
2391.88
2392.1
2392.29
2392.45
2392.59
2392.71
2392.81
2392.91
2392.99
2393.06
2393.12
2393.18
2393.23
2393.28
2393.32
2393.36
2393.4
2393.43
2393.46
2393.49
2393.53
2393.57
2393.63
2393.66
2393.67
2393.67
2393.68
2393.68
2393.68
2393.69
2393.69
2393.7
2393.7
2393.71
2393.72
2393.72
2393.73
2393.74
2393.74
2393.75
2393.76
2393.76
2393.77
2393.78
2393.78
2393.79
2393.8
2393.8
2393.81
2393.82
2393.83
2393.83
2393.84
2393.85
2393.85
2393.86
2393.87
2393.87
2393.88
2393.89
2393.89
2393.9
2393.9
2393.91
2393.92
2393.92
2393.93
2393.94
2393.94
2393.95
2393.96
2393.96
2393.97
2393.97
2393.98
2393.99
2393.99
2394
2394
2394.01
2394.02
2394.02
2394.03
2394.03
2394.04
2394.04
2394.05
2394.06
2394.06
2394.07
2394.07
2394.08
2394.08
2394.09
2394.09
2394.1
2394.1
2394.11
2394.11
2394.12
2394.12
2394.12
2394.13
2394.13
2394.14
2394.14
2394.14
2394.15
2394.15
2394.16
2394.16
2394.16
2394.16
2394.17
2394.17
2394.17
2394.18
2394.18
2394.18
2394.18
2394.18
2394.19
2394.19
2394.19
2394.19
2394.19
2394.19
2394.2
2394.2
2394.2
2394.2
2394.2
2394.2
2394.2
2394.2
2394.2
2394.2
2394.2
2394.2
2394.2
2394.2
2394.2
2394.2
2394.19
2394.19
2394.19
2394.19
)
;

boundaryField
{
    boundary
    {
        type            empty;
    }
    inlet
    {
        type            fixedValue;
        value           uniform 300;
    }
    outlet
    {
        type            zeroGradient;
    }
}


// ************************************************************************* //
