/*--------------------------------*- C++ -*----------------------------------*\
  =========                 |
  \\      /  F ield         | OpenFOAM: The Open Source CFD Toolbox
   \\    /   O peration     | Website:  https://openfoam.org
    \\  /    A nd           | Version:  7
     \\/     M anipulation  |
\*---------------------------------------------------------------------------*/
FoamFile
{
    version     2.0;
    format      ascii;
    class       volVectorField;
    location    "8e-05";
    object      U;
}
// * * * * * * * * * * * * * * * * * * * * * * * * * * * * * * * * * * * * * //

dimensions      [0 1 -1 0 0 0 0];

internalField   nonuniform List<vector> 
500
(
(2.34845 0 0)
(2.34801 0 0)
(2.34713 0 0)
(2.34554 0 0)
(2.34393 0 0)
(2.34248 0 0)
(2.34092 0 0)
(2.33933 0 0)
(2.3378 0 0)
(2.33634 0 0)
(2.33494 0 0)
(2.33361 0 0)
(2.33229 0 0)
(2.33101 0 0)
(2.32975 0 0)
(2.32851 0 0)
(2.32728 0 0)
(2.32606 0 0)
(2.32486 0 0)
(2.32367 0 0)
(2.32248 0 0)
(2.32131 0 0)
(2.32016 0 0)
(2.31903 0 0)
(2.31791 0 0)
(2.3168 0 0)
(2.31571 0 0)
(2.31464 0 0)
(2.3136 0 0)
(2.31255 0 0)
(2.31152 0 0)
(2.31052 0 0)
(2.30955 0 0)
(2.30859 0 0)
(2.30765 0 0)
(2.30673 0 0)
(2.30583 0 0)
(2.30495 0 0)
(2.3041 0 0)
(2.30326 0 0)
(2.30245 0 0)
(2.30167 0 0)
(2.3009 0 0)
(2.30016 0 0)
(2.29944 0 0)
(2.29874 0 0)
(2.29807 0 0)
(2.29743 0 0)
(2.2968 0 0)
(2.29621 0 0)
(2.29564 0 0)
(2.29509 0 0)
(2.29457 0 0)
(2.29407 0 0)
(2.2936 0 0)
(2.29315 0 0)
(2.29273 0 0)
(2.29233 0 0)
(2.29197 0 0)
(2.29162 0 0)
(2.2913 0 0)
(2.29101 0 0)
(2.29075 0 0)
(2.29051 0 0)
(2.29029 0 0)
(2.2901 0 0)
(2.28994 0 0)
(2.2898 0 0)
(2.28969 0 0)
(2.28961 0 0)
(2.28954 0 0)
(2.2895 0 0)
(2.28949 0 0)
(2.28951 0 0)
(2.28954 0 0)
(2.28961 0 0)
(2.28969 0 0)
(2.2898 0 0)
(2.28994 0 0)
(2.2901 0 0)
(2.29028 0 0)
(2.29048 0 0)
(2.29071 0 0)
(2.29096 0 0)
(2.29124 0 0)
(2.29153 0 0)
(2.29185 0 0)
(2.29219 0 0)
(2.29255 0 0)
(2.29293 0 0)
(2.29333 0 0)
(2.29375 0 0)
(2.29419 0 0)
(2.29465 0 0)
(2.29513 0 0)
(2.29563 0 0)
(2.29615 0 0)
(2.29668 0 0)
(2.29723 0 0)
(2.2978 0 0)
(2.29839 0 0)
(2.29899 0 0)
(2.29961 0 0)
(2.30024 0 0)
(2.30089 0 0)
(2.30155 0 0)
(2.30223 0 0)
(2.30291 0 0)
(2.30362 0 0)
(2.30434 0 0)
(2.30506 0 0)
(2.30579 0 0)
(2.30654 0 0)
(2.30731 0 0)
(2.30807 0 0)
(2.30885 0 0)
(2.30964 0 0)
(2.31043 0 0)
(2.31124 0 0)
(2.31205 0 0)
(2.31287 0 0)
(2.31369 0 0)
(2.31452 0 0)
(2.31535 0 0)
(2.31617 0 0)
(2.31699 0 0)
(2.31789 0 0)
(2.31878 0 0)
(2.31961 0 0)
(2.32044 0 0)
(2.3213 0 0)
(2.32217 0 0)
(2.32302 0 0)
(2.32388 0 0)
(2.32474 0 0)
(2.32559 0 0)
(2.32645 0 0)
(2.3273 0 0)
(2.32815 0 0)
(2.32899 0 0)
(2.32984 0 0)
(2.33068 0 0)
(2.33151 0 0)
(2.33234 0 0)
(2.33316 0 0)
(2.33398 0 0)
(2.33479 0 0)
(2.33559 0 0)
(2.33638 0 0)
(2.33717 0 0)
(2.33795 0 0)
(2.33872 0 0)
(2.33948 0 0)
(2.34023 0 0)
(2.34098 0 0)
(2.34171 0 0)
(2.34243 0 0)
(2.34314 0 0)
(2.34384 0 0)
(2.34453 0 0)
(2.3452 0 0)
(2.34586 0 0)
(2.34652 0 0)
(2.34715 0 0)
(2.34778 0 0)
(2.34839 0 0)
(2.34898 0 0)
(2.34957 0 0)
(2.35014 0 0)
(2.35069 0 0)
(2.35123 0 0)
(2.35176 0 0)
(2.35226 0 0)
(2.35275 0 0)
(2.35323 0 0)
(2.3537 0 0)
(2.35414 0 0)
(2.35457 0 0)
(2.35498 0 0)
(2.35538 0 0)
(2.35576 0 0)
(2.35612 0 0)
(2.35647 0 0)
(2.35679 0 0)
(2.35711 0 0)
(2.35739 0 0)
(2.35767 0 0)
(2.35794 0 0)
(2.35817 0 0)
(2.35838 0 0)
(2.35859 0 0)
(2.35878 0 0)
(2.35894 0 0)
(2.35909 0 0)
(2.35921 0 0)
(2.35932 0 0)
(2.35941 0 0)
(2.35948 0 0)
(2.35953 0 0)
(2.35957 0 0)
(2.35958 0 0)
(2.35958 0 0)
(2.35956 0 0)
(2.35951 0 0)
(2.35944 0 0)
(2.35936 0 0)
(2.35926 0 0)
(2.35914 0 0)
(2.359 0 0)
(2.35883 0 0)
(2.35865 0 0)
(2.35845 0 0)
(2.35823 0 0)
(2.35799 0 0)
(2.35773 0 0)
(2.35746 0 0)
(2.35716 0 0)
(2.35684 0 0)
(2.3565 0 0)
(2.35614 0 0)
(2.35577 0 0)
(2.35537 0 0)
(2.35495 0 0)
(2.35452 0 0)
(2.35406 0 0)
(2.35359 0 0)
(2.35309 0 0)
(2.35258 0 0)
(2.35204 0 0)
(2.3515 0 0)
(2.35092 0 0)
(2.35033 0 0)
(2.34971 0 0)
(2.34909 0 0)
(2.34844 0 0)
(2.34777 0 0)
(2.34708 0 0)
(2.34637 0 0)
(2.34564 0 0)
(2.34489 0 0)
(2.34412 0 0)
(2.34333 0 0)
(2.34253 0 0)
(2.34171 0 0)
(2.34086 0 0)
(2.33998 0 0)
(2.3391 0 0)
(2.3382 0 0)
(2.33728 0 0)
(2.33632 0 0)
(2.33534 0 0)
(2.33434 0 0)
(2.3334 0 0)
(2.33241 0 0)
(2.33134 0 0)
(2.33026 0 0)
(2.32918 0 0)
(2.32809 0 0)
(2.32696 0 0)
(2.32582 0 0)
(2.32467 0 0)
(2.3235 0 0)
(2.3223 0 0)
(2.32108 0 0)
(2.31985 0 0)
(2.3186 0 0)
(2.31733 0 0)
(2.31605 0 0)
(2.31474 0 0)
(2.3134 0 0)
(2.31205 0 0)
(2.31069 0 0)
(2.30935 0 0)
(2.3081 0 0)
(2.30775 0 0)
(2.31121 0 0)
(2.32689 0 0)
(2.37645 0 0)
(2.50392 0 0)
(2.79463 0 0)
(3.40131 0 0)
(4.40599 0 0)
(5.61952 0 0)
(6.81874 0 0)
(7.8967 0 0)
(8.83459 0 0)
(9.63058 0 0)
(10.2841 0 0)
(10.8076 0 0)
(11.2257 0 0)
(11.5652 0 0)
(11.847 0 0)
(12.086 0 0)
(12.2922 0 0)
(12.4728 0 0)
(12.633 0 0)
(12.7765 0 0)
(12.9064 0 0)
(13.0247 0 0)
(13.1331 0 0)
(13.2329 0 0)
(13.325 0 0)
(13.41 0 0)
(13.4884 0 0)
(13.5605 0 0)
(13.6266 0 0)
(13.6866 0 0)
(13.7409 0 0)
(13.7893 0 0)
(13.832 0 0)
(13.8689 0 0)
(13.9001 0 0)
(13.9255 0 0)
(13.9463 0 0)
(13.9633 0 0)
(13.9765 0 0)
(13.9859 0 0)
(13.9919 0 0)
(13.9948 0 0)
(13.9948 0 0)
(13.9925 0 0)
(13.988 0 0)
(13.9819 0 0)
(13.9744 0 0)
(13.9658 0 0)
(13.9565 0 0)
(13.9468 0 0)
(13.937 0 0)
(13.9272 0 0)
(13.9176 0 0)
(13.9085 0 0)
(13.9 0 0)
(13.8921 0 0)
(13.885 0 0)
(13.8786 0 0)
(13.8731 0 0)
(13.8683 0 0)
(13.8643 0 0)
(13.861 0 0)
(13.8584 0 0)
(13.8564 0 0)
(13.855 0 0)
(13.854 0 0)
(13.8533 0 0)
(13.8532 0 0)
(13.8532 0 0)
(13.8533 0 0)
(13.8537 0 0)
(13.8541 0 0)
(13.8546 0 0)
(13.855 0 0)
(13.8554 0 0)
(13.8558 0 0)
(13.856 0 0)
(13.8561 0 0)
(13.8561 0 0)
(13.8559 0 0)
(13.8556 0 0)
(13.8552 0 0)
(13.8545 0 0)
(13.8538 0 0)
(13.8528 0 0)
(13.8518 0 0)
(13.8505 0 0)
(13.8492 0 0)
(13.8477 0 0)
(13.8461 0 0)
(13.8443 0 0)
(13.8425 0 0)
(13.8406 0 0)
(13.8385 0 0)
(13.8364 0 0)
(13.8342 0 0)
(13.8319 0 0)
(13.8298 0 0)
(13.8273 0 0)
(13.8254 0 0)
(13.8227 0 0)
(13.8205 0 0)
(13.8178 0 0)
(13.8152 0 0)
(13.8126 0 0)
(13.8099 0 0)
(13.8072 0 0)
(13.8044 0 0)
(13.8016 0 0)
(13.7989 0 0)
(13.796 0 0)
(13.7932 0 0)
(13.7903 0 0)
(13.7874 0 0)
(13.7845 0 0)
(13.7816 0 0)
(13.7787 0 0)
(13.7757 0 0)
(13.7727 0 0)
(13.7697 0 0)
(13.7667 0 0)
(13.7637 0 0)
(13.7606 0 0)
(13.7575 0 0)
(13.7544 0 0)
(13.7513 0 0)
(13.7482 0 0)
(13.745 0 0)
(13.7419 0 0)
(13.7387 0 0)
(13.7355 0 0)
(13.7323 0 0)
(13.729 0 0)
(13.7258 0 0)
(13.7225 0 0)
(13.7192 0 0)
(13.7159 0 0)
(13.7125 0 0)
(13.7092 0 0)
(13.7058 0 0)
(13.7024 0 0)
(13.699 0 0)
(13.6955 0 0)
(13.6921 0 0)
(13.6886 0 0)
(13.6851 0 0)
(13.6816 0 0)
(13.6781 0 0)
(13.6745 0 0)
(13.6709 0 0)
(13.6673 0 0)
(13.6637 0 0)
(13.6601 0 0)
(13.6564 0 0)
(13.6527 0 0)
(13.649 0 0)
(13.6453 0 0)
(13.6415 0 0)
(13.6378 0 0)
(13.634 0 0)
(13.6302 0 0)
(13.6263 0 0)
(13.6225 0 0)
(13.6186 0 0)
(13.6147 0 0)
(13.6108 0 0)
(13.6068 0 0)
(13.6028 0 0)
(13.5988 0 0)
(13.5948 0 0)
(13.5908 0 0)
(13.5867 0 0)
(13.5826 0 0)
(13.5785 0 0)
(13.5744 0 0)
(13.5702 0 0)
(13.5661 0 0)
(13.5619 0 0)
(13.5576 0 0)
(13.5534 0 0)
(13.5491 0 0)
(13.5448 0 0)
(13.5405 0 0)
(13.5361 0 0)
(13.5317 0 0)
(13.5273 0 0)
(13.5229 0 0)
(13.5185 0 0)
(13.514 0 0)
(13.5095 0 0)
(13.5049 0 0)
(13.5004 0 0)
(13.4958 0 0)
(13.4912 0 0)
(13.4865 0 0)
(13.4819 0 0)
(13.4772 0 0)
(13.4725 0 0)
(13.4677 0 0)
(13.463 0 0)
(13.4582 0 0)
(13.4533 0 0)
(13.4485 0 0)
(13.4436 0 0)
(13.4387 0 0)
(13.4337 0 0)
(13.4288 0 0)
(13.4238 0 0)
(13.4187 0 0)
(13.4137 0 0)
(13.4086 0 0)
(13.4035 0 0)
(13.3983 0 0)
(13.3931 0 0)
(13.3879 0 0)
(13.3827 0 0)
(13.3774 0 0)
(13.3721 0 0)
(13.3668 0 0)
(13.3615 0 0)
(13.356 0 0)
(13.3502 0 0)
(13.343 0 0)
)
;

boundaryField
{
    boundary
    {
        type            empty;
    }
    inlet
    {
        type            fixedValue;
        value           uniform (2.34893 0 0);
    }
    outlet
    {
        type            zeroGradient;
    }
}


// ************************************************************************* //
