/*--------------------------------*- C++ -*----------------------------------*\
  =========                 |
  \\      /  F ield         | OpenFOAM: The Open Source CFD Toolbox
   \\    /   O peration     | Website:  https://openfoam.org
    \\  /    A nd           | Version:  7
     \\/     M anipulation  |
\*---------------------------------------------------------------------------*/
FoamFile
{
    version     2.0;
    format      ascii;
    class       volScalarField;
    location    "0.00013";
    object      p;
}
// * * * * * * * * * * * * * * * * * * * * * * * * * * * * * * * * * * * * * //

dimensions      [1 -1 -2 0 0 0 0];

internalField   nonuniform List<scalar> 
124
(
102950
102950
102950
102950
102950
102950
102950
102950
102950
102950
102949
102949
102949
102949
102949
102949
102949
102949
102949
102949
102949
102949
102948
102948
102948
102948
102948
102948
102948
102948
102948
102948
102948
102948
102948
102947
102947
102947
102947
102947
102947
102947
102947
102947
102947
102947
102947
102946
102946
102946
102946
102946
102946
102946
102946
102946
102946
102946
102946
102946
102945
102945
102945
102945
102945
102945
102945
102945
102945
102945
102945
102945
102944
102944
102944
102944
102944
102944
102944
102944
102944
102944
102944
102944
102943
102943
102943
102943
102943
102943
102943
102943
102943
102943
102943
102943
102942
102942
102942
102942
102942
102942
102942
102942
102942
102942
102942
102942
102941
102941
102941
102941
102941
102941
102941
102941
102941
102941
102941
102940
102940
102940
102940
102940
)
;

boundaryField
{
    boundary
    {
        type            empty;
    }
    inlet
    {
        type            zeroGradient;
    }
    outlet
    {
        type            waveTransmissive;
        gamma           1.4;
        value           uniform 102940;
    }
    procBoundary0to1
    {
        type            processor;
        value           uniform 102950;
    }
}


// ************************************************************************* //
