/*--------------------------------*- C++ -*----------------------------------*\
  =========                 |
  \\      /  F ield         | OpenFOAM: The Open Source CFD Toolbox
   \\    /   O peration     | Website:  https://openfoam.org
    \\  /    A nd           | Version:  7
     \\/     M anipulation  |
\*---------------------------------------------------------------------------*/
FoamFile
{
    version     2.0;
    format      ascii;
    class       volScalarField;
    location    "4e-05";
    object      H2O2;
}
// * * * * * * * * * * * * * * * * * * * * * * * * * * * * * * * * * * * * * //

dimensions      [0 0 0 0 0 0 0];

internalField   nonuniform List<scalar> 
125
(
3.0726e-36
5.40849e-35
9.38063e-34
1.60877e-32
2.72616e-31
4.56107e-30
7.52792e-29
1.22455e-27
1.96124e-26
3.08937e-25
4.78053e-24
7.25757e-23
1.07946e-21
1.57058e-20
2.23163e-19
3.091e-18
4.165e-17
5.44753e-16
6.89885e-15
8.43617e-14
9.93027e-13
1.12128e-11
1.20979e-10
1.24164e-09
1.20567e-08
1.0989e-07
9.24336e-07
6.83121e-06
3.82228e-05
0.000113526
0.000146702
0.000118145
5.90565e-05
2.36007e-05
9.71012e-06
5.30905e-06
4.28323e-06
4.36307e-06
4.71295e-06
5.01477e-06
5.15771e-06
5.11898e-06
4.91454e-06
4.57897e-06
4.15558e-06
3.68891e-06
3.21803e-06
2.77208e-06
2.369e-06
2.01694e-06
1.71685e-06
1.46528e-06
1.25658e-06
1.08444e-06
9.42717e-07
8.25951e-07
7.29468e-07
6.49401e-07
5.82611e-07
5.26581e-07
4.79311e-07
4.40413e-07
4.07637e-07
3.79218e-07
3.54489e-07
3.32908e-07
3.14034e-07
2.97504e-07
2.83017e-07
2.70322e-07
2.59203e-07
2.49476e-07
2.40982e-07
2.3358e-07
2.27144e-07
2.21563e-07
2.16737e-07
2.12577e-07
2.09001e-07
2.05937e-07
2.0332e-07
2.01092e-07
1.992e-07
1.97599e-07
1.96248e-07
1.95112e-07
1.94159e-07
1.93362e-07
1.92697e-07
1.92144e-07
1.91685e-07
1.91306e-07
1.90992e-07
1.90734e-07
1.90522e-07
1.90348e-07
1.90205e-07
1.90089e-07
1.89994e-07
1.89916e-07
1.89853e-07
1.89801e-07
1.89758e-07
1.89723e-07
1.89695e-07
1.89671e-07
1.89651e-07
1.89635e-07
1.89621e-07
1.89609e-07
1.89599e-07
1.8959e-07
1.89582e-07
1.89575e-07
1.89568e-07
1.89562e-07
1.89557e-07
1.89551e-07
1.89546e-07
1.8954e-07
1.89535e-07
1.89529e-07
1.89522e-07
1.89514e-07
1.89507e-07
)
;

boundaryField
{
    boundary
    {
        type            empty;
    }
    inlet
    {
        type            fixedValue;
        value           nonuniform 0();
    }
    outlet
    {
        type            zeroGradient;
    }
    procBoundary1to0
    {
        type            processor;
        value           uniform 1.895e-07;
    }
    procBoundary1to3
    {
        type            processor;
        value           uniform 8.11852e-38;
    }
}


// ************************************************************************* //
