/*--------------------------------*- C++ -*----------------------------------*\
  =========                 |
  \\      /  F ield         | OpenFOAM: The Open Source CFD Toolbox
   \\    /   O peration     | Website:  https://openfoam.org
    \\  /    A nd           | Version:  7
     \\/     M anipulation  |
\*---------------------------------------------------------------------------*/
FoamFile
{
    version     2.0;
    format      ascii;
    class       volScalarField;
    location    "4e-05";
    object      HO2;
}
// * * * * * * * * * * * * * * * * * * * * * * * * * * * * * * * * * * * * * //

dimensions      [0 0 0 0 0 0 0];

internalField   nonuniform List<scalar> 
125
(
1.64618e-25
9.06719e-25
4.94685e-24
2.70328e-23
1.48059e-22
8.12723e-22
4.47077e-21
2.46464e-20
1.36185e-19
7.54539e-19
4.19494e-18
2.34312e-17
1.31757e-16
7.48237e-16
4.31071e-15
2.53391e-14
1.52935e-13
9.5301e-13
6.14934e-12
4.10275e-11
2.81061e-10
1.93702e-09
1.31378e-08
8.52228e-08
5.26851e-07
3.06214e-06
1.61548e-05
7.27952e-05
0.000247388
0.000496518
0.000510956
0.000431021
0.000317543
0.000222119
0.00015343
0.000104995
7.11637e-05
4.82452e-05
3.3157e-05
2.33447e-05
1.69387e-05
1.26891e-05
9.80074e-06
7.77978e-06
6.32242e-06
5.24176e-06
4.42194e-06
3.78986e-06
3.29795e-06
2.91388e-06
2.6145e-06
2.38236e-06
2.20372e-06
2.06744e-06
1.9644e-06
1.88712e-06
1.82957e-06
1.78694e-06
1.7555e-06
1.73243e-06
1.7156e-06
1.70383e-06
1.6955e-06
1.68967e-06
1.68582e-06
1.68356e-06
1.68256e-06
1.68257e-06
1.68338e-06
1.68479e-06
1.68665e-06
1.68881e-06
1.69116e-06
1.6936e-06
1.69605e-06
1.69844e-06
1.70073e-06
1.70289e-06
1.70488e-06
1.70671e-06
1.70836e-06
1.70984e-06
1.71115e-06
1.71231e-06
1.71332e-06
1.71419e-06
1.71495e-06
1.71561e-06
1.71616e-06
1.71664e-06
1.71705e-06
1.71739e-06
1.71768e-06
1.71793e-06
1.71814e-06
1.71832e-06
1.71847e-06
1.7186e-06
1.71871e-06
1.71881e-06
1.7189e-06
1.71897e-06
1.71903e-06
1.71909e-06
1.71914e-06
1.71919e-06
1.71923e-06
1.71927e-06
1.71931e-06
1.71935e-06
1.71938e-06
1.71941e-06
1.71945e-06
1.71948e-06
1.71951e-06
1.71953e-06
1.71956e-06
1.71959e-06
1.71962e-06
1.71964e-06
1.71967e-06
1.71969e-06
1.7197e-06
1.71967e-06
1.71951e-06
)
;

boundaryField
{
    boundary
    {
        type            empty;
    }
    inlet
    {
        type            fixedValue;
        value           nonuniform 0();
    }
    outlet
    {
        type            zeroGradient;
    }
    procBoundary1to0
    {
        type            processor;
        value           uniform 1.71945e-06;
    }
    procBoundary1to3
    {
        type            processor;
        value           uniform 2.66177e-26;
    }
}


// ************************************************************************* //
