/*--------------------------------*- C++ -*----------------------------------*\
  =========                 |
  \\      /  F ield         | OpenFOAM: The Open Source CFD Toolbox
   \\    /   O peration     | Website:  https://openfoam.org
    \\  /    A nd           | Version:  7
     \\/     M anipulation  |
\*---------------------------------------------------------------------------*/
FoamFile
{
    version     2.0;
    format      ascii;
    class       volScalarField;
    location    "4e-05";
    object      p;
}
// * * * * * * * * * * * * * * * * * * * * * * * * * * * * * * * * * * * * * //

dimensions      [1 -1 -2 0 0 0 0];

internalField   nonuniform List<scalar> 
125
(
102329
102327
102325
102323
102320
102318
102316
102314
102312
102310
102308
102306
102303
102301
102299
102297
102295
102293
102291
102289
102287
102285
102283
102281
102279
102277
102275
102273
102271
102269
102266
102263
102260
102257
102254
102252
102249
102247
102246
102244
102243
102242
102240
102239
102238
102237
102236
102235
102234
102233
102232
102231
102230
102229
102229
102228
102227
102226
102225
102224
102223
102222
102222
102221
102220
102219
102218
102218
102217
102216
102215
102214
102213
102213
102212
102211
102210
102209
102209
102208
102207
102206
102205
102204
102204
102203
102202
102201
102200
102199
102199
102198
102197
102196
102195
102194
102194
102193
102192
102191
102190
102190
102189
102188
102187
102186
102186
102185
102184
102183
102182
102182
102181
102180
102179
102179
102178
102177
102176
102176
102175
102174
102173
102173
102172
)
;

boundaryField
{
    boundary
    {
        type            empty;
    }
    inlet
    {
        type            zeroGradient;
    }
    outlet
    {
        type            waveTransmissive;
        gamma           1.4;
        value           nonuniform 0();
    }
    procBoundary1to0
    {
        type            processor;
        value           uniform 102171;
    }
    procBoundary1to3
    {
        type            processor;
        value           uniform 102331;
    }
}


// ************************************************************************* //
