/*--------------------------------*- C++ -*----------------------------------*\
  =========                 |
  \\      /  F ield         | OpenFOAM: The Open Source CFD Toolbox
   \\    /   O peration     | Website:  https://openfoam.org
    \\  /    A nd           | Version:  7
     \\/     M anipulation  |
\*---------------------------------------------------------------------------*/
FoamFile
{
    version     2.0;
    format      ascii;
    class       surfaceScalarField;
    location    "4e-05";
    object      phi;
}
// * * * * * * * * * * * * * * * * * * * * * * * * * * * * * * * * * * * * * //

dimensions      [1 0 -1 0 0 0 0];

internalField   nonuniform List<scalar> 
124
(
2.12681e-06
2.10072e-06
2.07481e-06
2.04905e-06
2.02347e-06
1.99807e-06
1.97284e-06
1.9478e-06
1.92294e-06
1.89828e-06
1.87381e-06
1.84954e-06
1.82547e-06
1.80161e-06
1.77796e-06
1.75452e-06
1.7313e-06
1.70829e-06
1.68552e-06
1.66296e-06
1.64064e-06
1.61854e-06
1.59668e-06
1.57517e-06
1.55477e-06
1.53952e-06
1.54808e-06
1.65664e-06
2.09404e-06
3.03297e-06
3.95005e-06
4.52093e-06
4.84868e-06
5.04944e-06
5.1799e-06
5.26253e-06
5.3092e-06
5.32727e-06
5.32098e-06
5.29292e-06
5.24536e-06
5.18087e-06
5.10247e-06
5.01357e-06
4.91764e-06
4.81804e-06
4.71778e-06
4.61946e-06
4.52516e-06
4.43649e-06
4.35459e-06
4.28017e-06
4.21362e-06
4.15502e-06
4.10422e-06
4.06086e-06
4.02448e-06
3.99449e-06
3.97024e-06
3.95107e-06
3.93629e-06
3.9258e-06
3.91808e-06
3.91267e-06
3.90915e-06
3.90712e-06
3.90623e-06
3.90617e-06
3.90669e-06
3.90757e-06
3.90863e-06
3.90973e-06
3.91077e-06
3.91166e-06
3.91234e-06
3.91277e-06
3.91294e-06
3.91283e-06
3.91245e-06
3.91179e-06
3.91088e-06
3.90973e-06
3.90836e-06
3.90678e-06
3.90502e-06
3.90309e-06
3.90101e-06
3.89881e-06
3.89649e-06
3.89407e-06
3.89156e-06
3.88898e-06
3.88634e-06
3.88364e-06
3.88089e-06
3.87811e-06
3.87529e-06
3.87244e-06
3.86956e-06
3.86666e-06
3.86375e-06
3.86082e-06
3.85788e-06
3.85493e-06
3.85196e-06
3.84899e-06
3.84601e-06
3.84303e-06
3.84004e-06
3.83704e-06
3.83404e-06
3.83103e-06
3.82802e-06
3.825e-06
3.82198e-06
3.81896e-06
3.81593e-06
3.8129e-06
3.80986e-06
3.80683e-06
3.80378e-06
3.80074e-06
3.79769e-06
3.79463e-06
)
;

boundaryField
{
    boundary
    {
        type            empty;
        value           nonuniform 0();
    }
    inlet
    {
        type            calculated;
        value           nonuniform 0();
    }
    outlet
    {
        type            calculated;
        value           nonuniform 0();
    }
    procBoundary1to0
    {
        type            processor;
        value           uniform 3.79157e-06;
    }
    procBoundary1to3
    {
        type            processor;
        value           uniform -2.15308e-06;
    }
}


// ************************************************************************* //
