/*--------------------------------*- C++ -*----------------------------------*\
  =========                 |
  \\      /  F ield         | OpenFOAM: The Open Source CFD Toolbox
   \\    /   O peration     | Website:  https://openfoam.org
    \\  /    A nd           | Version:  7
     \\/     M anipulation  |
\*---------------------------------------------------------------------------*/
FoamFile
{
    version     2.0;
    format      ascii;
    class       volScalarField;
    location    "4e-05";
    object      Qdot;
}
// * * * * * * * * * * * * * * * * * * * * * * * * * * * * * * * * * * * * * //

dimensions      [1 -1 -3 0 0 0 0];

internalField   nonuniform List<scalar> 
125
(
8.4479e-15
4.98075e-14
2.91398e-13
1.70435e-12
9.96828e-12
5.8301e-11
3.40981e-10
1.9943e-09
1.16648e-08
6.82364e-08
3.99266e-07
2.33717e-06
1.36899e-05
8.02628e-05
0.000471179
0.0027704
0.0163189
0.09631
0.569392
3.39177
22.4377
158.849
1289.73
9143.93
64381.9
459485
3.35095e+06
2.55054e+07
1.9993e+08
1.32259e+09
5.16204e+09
1.04838e+10
1.24494e+10
1.2337e+10
1.20485e+10
1.14601e+10
1.01115e+10
8.27659e+09
6.47294e+09
4.96358e+09
3.78721e+09
2.89462e+09
2.22161e+09
1.71295e+09
1.32644e+09
1.03104e+09
8.04061e+08
6.28825e+08
4.92962e+08
3.87199e+08
3.04542e+08
2.39675e+08
1.88567e+08
1.48157e+08
1.16092e+08
9.05765e+07
7.02302e+07
5.39871e+07
4.10207e+07
3.0693e+07
2.25086e+07
1.61884e+07
1.1205e+07
7.25444e+06
4.1594e+06
1.77357e+06
-35378.2
-1.37295e+06
-2.32837e+06
-2.97607e+06
-3.38143e+06
-3.59783e+06
-3.67048e+06
-3.63628e+06
-3.5256e+06
-3.36226e+06
-3.16448e+06
-2.94445e+06
-2.72235e+06
-2.49826e+06
-2.28044e+06
-2.07448e+06
-1.87939e+06
-1.69762e+06
-1.53245e+06
-1.38253e+06
-1.24761e+06
-1.12711e+06
-1.02046e+06
-925373
-843229
-771587
-708985
-655235
-609531
-570027
-536803
-508410
-485425
-465813
-449672
-436665
-425618
-416527
-409246
-403438
-398998
-395824
-393173
-391201
-389786
-388824
-388228
-387943
-387887
-388032
-388360
-388884
-389665
-390852
-392765
-396085
-402260
-414430
-440118
)
;

boundaryField
{
    boundary
    {
        type            empty;
    }
    inlet
    {
        type            calculated;
        value           nonuniform 0();
    }
    outlet
    {
        type            calculated;
        value           nonuniform 0();
    }
    procBoundary1to0
    {
        type            processor;
        value           uniform 0;
    }
    procBoundary1to3
    {
        type            processor;
        value           uniform 0;
    }
}


// ************************************************************************* //
