/*--------------------------------*- C++ -*----------------------------------*\
  =========                 |
  \\      /  F ield         | OpenFOAM: The Open Source CFD Toolbox
   \\    /   O peration     | Website:  https://openfoam.org
    \\  /    A nd           | Version:  7
     \\/     M anipulation  |
\*---------------------------------------------------------------------------*/
FoamFile
{
    version     2.0;
    format      ascii;
    class       volScalarField;
    location    "4e-05";
    object      T;
}
// * * * * * * * * * * * * * * * * * * * * * * * * * * * * * * * * * * * * * //

dimensions      [0 0 0 1 0 0 0];

internalField   nonuniform List<scalar> 
125
(
300.629
300.624
300.619
300.614
300.609
300.604
300.598
300.593
300.587
300.582
300.576
300.57
300.564
300.558
300.552
300.546
300.54
300.533
300.527
300.52
300.514
300.507
300.502
300.504
300.537
300.722
301.595
305.476
321.578
375.643
493.362
654.514
820.69
975.691
1116.76
1240.51
1344.26
1430.08
1502.81
1567.17
1626.62
1683.37
1738.66
1792.98
1846.38
1898.58
1949.16
1997.65
2043.6
2086.6
2126.37
2162.71
2195.53
2224.83
2250.7
2273.3
2292.85
2309.59
2323.78
2335.72
2345.68
2353.68
2360.16
2365.56
2370
2373.65
2376.64
2379.08
2381.07
2382.69
2384.01
2385.09
2385.98
2386.7
2387.3
2387.8
2388.22
2388.57
2388.87
2389.12
2389.33
2389.51
2389.67
2389.8
2389.92
2390.02
2390.11
2390.18
2390.25
2390.31
2390.35
2390.4
2390.44
2390.47
2390.5
2390.52
2390.55
2390.57
2390.59
2390.6
2390.62
2390.63
2390.64
2390.65
2390.66
2390.67
2390.68
2390.69
2390.7
2390.71
2390.72
2390.72
2390.73
2390.74
2390.75
2390.75
2390.76
2390.77
2390.77
2390.78
2390.79
2390.79
2390.8
2390.8
2390.81
)
;

boundaryField
{
    boundary
    {
        type            empty;
    }
    inlet
    {
        type            fixedValue;
        value           nonuniform 0();
    }
    outlet
    {
        type            zeroGradient;
    }
    procBoundary1to0
    {
        type            processor;
        value           uniform 2390.82;
    }
    procBoundary1to3
    {
        type            processor;
        value           uniform 300.634;
    }
}


// ************************************************************************* //
