/*--------------------------------*- C++ -*----------------------------------*\
  =========                 |
  \\      /  F ield         | OpenFOAM: The Open Source CFD Toolbox
   \\    /   O peration     | Website:  https://openfoam.org
    \\  /    A nd           | Version:  7
     \\/     M anipulation  |
\*---------------------------------------------------------------------------*/
FoamFile
{
    version     2.0;
    format      ascii;
    class       volVectorField;
    location    "4e-05";
    object      U;
}
// * * * * * * * * * * * * * * * * * * * * * * * * * * * * * * * * * * * * * //

dimensions      [0 1 -1 0 0 0 0];

internalField   nonuniform List<vector> 
125
(
(0.732411 0 0)
(0.723555 0 0)
(0.71466 0 0)
(0.705771 0 0)
(0.696931 0 0)
(0.688321 0 0)
(0.679584 0 0)
(0.670932 0 0)
(0.662435 0 0)
(0.653974 0 0)
(0.645556 0 0)
(0.637205 0 0)
(0.628909 0 0)
(0.620705 0 0)
(0.612608 0 0)
(0.604505 0 0)
(0.596623 0 0)
(0.588653 0 0)
(0.580778 0 0)
(0.573055 0 0)
(0.565381 0 0)
(0.557755 0 0)
(0.550295 0 0)
(0.542833 0 0)
(0.535701 0 0)
(0.529138 0 0)
(0.526792 0 0)
(0.545802 0 0)
(0.6503 0 0)
(0.98127 0 0)
(1.69794 0 0)
(2.78255 0 0)
(3.95644 0 0)
(5.04932 0 0)
(6.00115 0 0)
(6.80327 0 0)
(7.45831 0 0)
(7.97853 0 0)
(8.38665 0 0)
(8.70774 0 0)
(8.96186 0 0)
(9.16268 0 0)
(9.3192 0 0)
(9.43784 0 0)
(9.52371 0 0)
(9.58131 0 0)
(9.61467 0 0)
(9.6273 0 0)
(9.62447 0 0)
(9.6085 0 0)
(9.58284 0 0)
(9.55071 0 0)
(9.51493 0 0)
(9.47754 0 0)
(9.44039 0 0)
(9.4049 0 0)
(9.37206 0 0)
(9.34253 0 0)
(9.31665 0 0)
(9.29459 0 0)
(9.27613 0 0)
(9.26137 0 0)
(9.24988 0 0)
(9.24092 0 0)
(9.23395 0 0)
(9.2287 0 0)
(9.22475 0 0)
(9.22189 0 0)
(9.21984 0 0)
(9.2183 0 0)
(9.21703 0 0)
(9.21587 0 0)
(9.21464 0 0)
(9.21328 0 0)
(9.21175 0 0)
(9.20991 0 0)
(9.20769 0 0)
(9.20512 0 0)
(9.20218 0 0)
(9.19888 0 0)
(9.19521 0 0)
(9.19121 0 0)
(9.18688 0 0)
(9.18225 0 0)
(9.17734 0 0)
(9.17219 0 0)
(9.16681 0 0)
(9.16123 0 0)
(9.15547 0 0)
(9.14956 0 0)
(9.1435 0 0)
(9.13732 0 0)
(9.13104 0 0)
(9.12467 0 0)
(9.11821 0 0)
(9.11169 0 0)
(9.10511 0 0)
(9.09848 0 0)
(9.0918 0 0)
(9.08509 0 0)
(9.07834 0 0)
(9.07157 0 0)
(9.06477 0 0)
(9.05796 0 0)
(9.05112 0 0)
(9.04427 0 0)
(9.03741 0 0)
(9.03053 0 0)
(9.02364 0 0)
(9.01674 0 0)
(9.00983 0 0)
(9.00291 0 0)
(8.99599 0 0)
(8.98906 0 0)
(8.98212 0 0)
(8.97518 0 0)
(8.96823 0 0)
(8.96127 0 0)
(8.95432 0 0)
(8.94733 0 0)
(8.94035 0 0)
(8.93347 0 0)
(8.92838 0 0)
(8.922 0 0)
(8.91408 0 0)
)
;

boundaryField
{
    boundary
    {
        type            empty;
    }
    inlet
    {
        type            fixedValue;
        value           nonuniform 0();
    }
    outlet
    {
        type            zeroGradient;
    }
    procBoundary1to0
    {
        type            processor;
        value           uniform (8.90698 0 0);
    }
    procBoundary1to3
    {
        type            processor;
        value           uniform (0.741411 0 0);
    }
}


// ************************************************************************* //
