/*--------------------------------*- C++ -*----------------------------------*\
  =========                 |
  \\      /  F ield         | OpenFOAM: The Open Source CFD Toolbox
   \\    /   O peration     | Website:  https://openfoam.org
    \\  /    A nd           | Version:  7
     \\/     M anipulation  |
\*---------------------------------------------------------------------------*/
FoamFile
{
    version     2.0;
    format      ascii;
    class       volScalarField;
    location    "0.00044";
    object      H2O2;
}
// * * * * * * * * * * * * * * * * * * * * * * * * * * * * * * * * * * * * * //

dimensions      [0 0 0 0 0 0 0];

internalField   nonuniform List<scalar> 
125
(
7.75002e-21
3.47705e-20
1.54392e-19
6.80912e-19
2.98637e-18
1.30348e-17
5.66561e-17
2.45369e-16
1.05938e-15
4.56198e-15
1.96025e-14
8.40806e-14
3.60125e-13
1.54068e-12
6.58546e-12
2.813e-11
1.20101e-10
5.12616e-10
2.18757e-09
9.33445e-09
3.9822e-08
1.69722e-07
7.20513e-07
3.01391e-06
1.19714e-05
4.03945e-05
9.07828e-05
0.000122367
0.000111637
6.46365e-05
2.78922e-05
1.12253e-05
5.67471e-06
4.44248e-06
4.65984e-06
5.35473e-06
5.94193e-06
6.3754e-06
6.63853e-06
6.75699e-06
6.76623e-06
6.69828e-06
6.57845e-06
6.42535e-06
6.2522e-06
6.06827e-06
5.87984e-06
5.6912e-06
5.50521e-06
5.32373e-06
5.14795e-06
4.97855e-06
4.81591e-06
4.66016e-06
4.51131e-06
4.36923e-06
4.23373e-06
4.10458e-06
3.98155e-06
3.86441e-06
3.75298e-06
3.65026e-06
3.55364e-06
3.46092e-06
3.37191e-06
3.28643e-06
3.20431e-06
3.12539e-06
3.04951e-06
2.97654e-06
2.90634e-06
2.83877e-06
2.77371e-06
2.71105e-06
2.65067e-06
2.59247e-06
2.53634e-06
2.48219e-06
2.42992e-06
2.37946e-06
2.33071e-06
2.28361e-06
2.23807e-06
2.19402e-06
2.15141e-06
2.11017e-06
2.07023e-06
2.03154e-06
1.99405e-06
1.95771e-06
1.92246e-06
1.88826e-06
1.85508e-06
1.82286e-06
1.79157e-06
1.76117e-06
1.73162e-06
1.7029e-06
1.67497e-06
1.6478e-06
1.62136e-06
1.59562e-06
1.57056e-06
1.54616e-06
1.52238e-06
1.49921e-06
1.47663e-06
1.45461e-06
1.43314e-06
1.41219e-06
1.39175e-06
1.3718e-06
1.35232e-06
1.3333e-06
1.31473e-06
1.29659e-06
1.27885e-06
1.26152e-06
1.24458e-06
1.22801e-06
1.2118e-06
1.19592e-06
1.18038e-06
1.16515e-06
1.15022e-06
)
;

boundaryField
{
    boundary
    {
        type            empty;
    }
    inlet
    {
        type            fixedValue;
        value           nonuniform 0();
    }
    outlet
    {
        type            zeroGradient;
    }
    procBoundary1to0
    {
        type            processor;
        value           uniform 1.13558e-06;
    }
    procBoundary1to3
    {
        type            processor;
        value           uniform 1.70289e-21;
    }
}


// ************************************************************************* //
