/*--------------------------------*- C++ -*----------------------------------*\
  =========                 |
  \\      /  F ield         | OpenFOAM: The Open Source CFD Toolbox
   \\    /   O peration     | Website:  https://openfoam.org
    \\  /    A nd           | Version:  7
     \\/     M anipulation  |
\*---------------------------------------------------------------------------*/
FoamFile
{
    version     2.0;
    format      ascii;
    class       volVectorField;
    location    "0.00044";
    object      U;
}
// * * * * * * * * * * * * * * * * * * * * * * * * * * * * * * * * * * * * * //

dimensions      [0 1 -1 0 0 0 0];

internalField   nonuniform List<vector> 
125
(
(2.32922 0 0)
(2.32913 0 0)
(2.32905 0 0)
(2.32896 0 0)
(2.32887 0 0)
(2.32879 0 0)
(2.3287 0 0)
(2.32861 0 0)
(2.32852 0 0)
(2.32843 0 0)
(2.32834 0 0)
(2.32826 0 0)
(2.32816 0 0)
(2.32807 0 0)
(2.32798 0 0)
(2.32789 0 0)
(2.3278 0 0)
(2.32771 0 0)
(2.32768 0 0)
(2.32779 0 0)
(2.32842 0 0)
(2.33069 0 0)
(2.33781 0 0)
(2.35792 0 0)
(2.40933 0 0)
(2.53182 0 0)
(2.80876 0 0)
(3.39018 0 0)
(4.37745 0 0)
(5.59283 0 0)
(6.81001 0 0)
(7.91279 0 0)
(8.87202 0 0)
(9.6849 0 0)
(10.3669 0 0)
(10.9339 0 0)
(11.389 0 0)
(11.7476 0 0)
(12.0395 0 0)
(12.2878 0 0)
(12.5038 0 0)
(12.6939 0 0)
(12.8628 0 0)
(13.0143 0 0)
(13.1514 0 0)
(13.2763 0 0)
(13.3909 0 0)
(13.4965 0 0)
(13.5943 0 0)
(13.6853 0 0)
(13.7701 0 0)
(13.8495 0 0)
(13.9241 0 0)
(13.9942 0 0)
(14.0604 0 0)
(14.123 0 0)
(14.1823 0 0)
(14.2386 0 0)
(14.2921 0 0)
(14.3429 0 0)
(14.3914 0 0)
(14.4363 0 0)
(14.4783 0 0)
(14.519 0 0)
(14.5582 0 0)
(14.5961 0 0)
(14.6327 0 0)
(14.6681 0 0)
(14.7023 0 0)
(14.7354 0 0)
(14.7676 0 0)
(14.7987 0 0)
(14.8289 0 0)
(14.8583 0 0)
(14.8868 0 0)
(14.9145 0 0)
(14.9415 0 0)
(14.9677 0 0)
(14.9932 0 0)
(15.0181 0 0)
(15.0423 0 0)
(15.066 0 0)
(15.089 0 0)
(15.1115 0 0)
(15.1335 0 0)
(15.155 0 0)
(15.1759 0 0)
(15.1964 0 0)
(15.2165 0 0)
(15.2361 0 0)
(15.2552 0 0)
(15.274 0 0)
(15.2924 0 0)
(15.3104 0 0)
(15.328 0 0)
(15.3453 0 0)
(15.3622 0 0)
(15.3788 0 0)
(15.3951 0 0)
(15.4111 0 0)
(15.4268 0 0)
(15.4422 0 0)
(15.4573 0 0)
(15.4721 0 0)
(15.4867 0 0)
(15.501 0 0)
(15.5151 0 0)
(15.5289 0 0)
(15.5425 0 0)
(15.5559 0 0)
(15.5691 0 0)
(15.582 0 0)
(15.5948 0 0)
(15.6073 0 0)
(15.6196 0 0)
(15.6318 0 0)
(15.6437 0 0)
(15.6555 0 0)
(15.6671 0 0)
(15.6786 0 0)
(15.6899 0 0)
(15.701 0 0)
(15.712 0 0)
(15.7228 0 0)
(15.7335 0 0)
)
;

boundaryField
{
    boundary
    {
        type            empty;
    }
    inlet
    {
        type            fixedValue;
        value           nonuniform 0();
    }
    outlet
    {
        type            zeroGradient;
    }
    procBoundary1to0
    {
        type            processor;
        value           uniform (15.7439 0 0);
    }
    procBoundary1to3
    {
        type            processor;
        value           uniform (2.32931 0 0);
    }
}


// ************************************************************************* //
