/*--------------------------------*- C++ -*----------------------------------*\
  =========                 |
  \\      /  F ield         | OpenFOAM: The Open Source CFD Toolbox
   \\    /   O peration     | Website:  https://openfoam.org
    \\  /    A nd           | Version:  7
     \\/     M anipulation  |
\*---------------------------------------------------------------------------*/
FoamFile
{
    version     2.0;
    format      ascii;
    class       volScalarField;
    location    "0.00043";
    object      O;
}
// * * * * * * * * * * * * * * * * * * * * * * * * * * * * * * * * * * * * * //

dimensions      [0 0 0 0 0 0 0];

internalField   nonuniform List<scalar> 
125
(
1.58109e-47
3.77602e-47
5.98763e-47
8.20533e-47
1.04279e-46
1.26565e-46
1.48936e-46
1.71425e-46
1.94072e-46
2.1693e-46
2.40064e-46
2.63552e-46
2.87483e-46
3.11959e-46
3.37094e-46
3.63006e-46
3.89812e-46
4.17627e-46
4.46549e-46
4.76653e-46
5.07981e-46
5.40533e-46
5.74261e-46
6.09059e-46
6.44764e-46
6.81155e-46
7.17955e-46
7.54843e-46
7.91464e-46
8.27443e-46
8.62402e-46
8.95977e-46
9.27836e-46
9.5769e-46
9.85313e-46
1.01054e-45
1.03328e-45
1.0535e-45
1.07124e-45
1.08661e-45
1.09973e-45
1.1108e-45
1.12e-45
1.12756e-45
1.13368e-45
1.13858e-45
1.14245e-45
1.14546e-45
1.14778e-45
1.14955e-45
1.15087e-45
1.15186e-45
1.15258e-45
1.1531e-45
1.15348e-45
1.15374e-45
1.15393e-45
1.15406e-45
1.15415e-45
1.15421e-45
1.15425e-45
1.15428e-45
1.1543e-45
1.15432e-45
1.15433e-45
1.15433e-45
1.15434e-45
1.15435e-45
1.15435e-45
1.15436e-45
1.15436e-45
1.15437e-45
1.15438e-45
1.15438e-45
1.15439e-45
1.1544e-45
1.15441e-45
1.15442e-45
1.15443e-45
1.15444e-45
1.15445e-45
1.15446e-45
1.15448e-45
1.15449e-45
1.15451e-45
1.15452e-45
1.15454e-45
1.15456e-45
1.15457e-45
1.15459e-45
1.15461e-45
1.15464e-45
1.15466e-45
1.15468e-45
1.15471e-45
1.15473e-45
1.15476e-45
1.15479e-45
1.15482e-45
1.15485e-45
1.15488e-45
1.15492e-45
1.15495e-45
1.15499e-45
1.15502e-45
1.15506e-45
1.1551e-45
1.15515e-45
1.15519e-45
1.15524e-45
1.15528e-45
1.15533e-45
1.15538e-45
1.15543e-45
1.15548e-45
1.15554e-45
1.1556e-45
1.15565e-45
1.15571e-45
1.15577e-45
1.15584e-45
1.1559e-45
1.15592e-45
1.15572e-45
1.15462e-45
)
;

boundaryField
{
    boundary
    {
        type            empty;
    }
    inlet
    {
        type            fixedValue;
        value           uniform 0;
    }
    outlet
    {
        type            zeroGradient;
    }
    procBoundary2to3
    {
        type            processor;
        value           uniform 1.15298e-45;
    }
}


// ************************************************************************* //
