/*--------------------------------*- C++ -*----------------------------------*\
  =========                 |
  \\      /  F ield         | OpenFOAM: The Open Source CFD Toolbox
   \\    /   O peration     | Website:  https://openfoam.org
    \\  /    A nd           | Version:  7
     \\/     M anipulation  |
\*---------------------------------------------------------------------------*/
FoamFile
{
    version     2.0;
    format      ascii;
    class       volScalarField;
    location    "0.00043";
    object      Qdot;
}
// * * * * * * * * * * * * * * * * * * * * * * * * * * * * * * * * * * * * * //

dimensions      [1 -1 -3 0 0 0 0];

internalField   nonuniform List<scalar> 
125
(
-2.45547e-27
-1.86802e-27
-1.74332e-27
-1.71832e-27
-1.71483e-27
-1.71606e-27
-1.71847e-27
-1.72139e-27
-1.72477e-27
-1.7287e-27
-1.73333e-27
-1.73885e-27
-1.74545e-27
-1.75338e-27
-1.76288e-27
-1.77424e-27
-1.78774e-27
-1.80367e-27
-1.82227e-27
-1.84381e-27
-1.86846e-27
-1.89635e-27
-1.92753e-27
-1.96197e-27
-1.9995e-27
-2.03989e-27
-2.08277e-27
-2.12766e-27
-2.174e-27
-2.22115e-27
-2.26844e-27
-2.31515e-27
-2.36061e-27
-2.40418e-27
-2.4453e-27
-2.48351e-27
-2.51848e-27
-2.54999e-27
-2.57796e-27
-2.60242e-27
-2.6235e-27
-2.64139e-27
-2.65637e-27
-2.66873e-27
-2.67879e-27
-2.68687e-27
-2.69328e-27
-2.69829e-27
-2.70217e-27
-2.70512e-27
-2.70735e-27
-2.70901e-27
-2.71023e-27
-2.71113e-27
-2.71177e-27
-2.71223e-27
-2.71255e-27
-2.71278e-27
-2.71294e-27
-2.71305e-27
-2.71313e-27
-2.71319e-27
-2.71323e-27
-2.71326e-27
-2.71329e-27
-2.71331e-27
-2.71333e-27
-2.71335e-27
-2.71336e-27
-2.71338e-27
-2.7134e-27
-2.71342e-27
-2.71344e-27
-2.71346e-27
-2.71348e-27
-2.7135e-27
-2.71353e-27
-2.71355e-27
-2.71358e-27
-2.71361e-27
-2.71364e-27
-2.71367e-27
-2.7137e-27
-2.71373e-27
-2.71377e-27
-2.71381e-27
-2.71385e-27
-2.71389e-27
-2.71393e-27
-2.71397e-27
-2.71402e-27
-2.71407e-27
-2.71412e-27
-2.71417e-27
-2.71423e-27
-2.71428e-27
-2.71434e-27
-2.7144e-27
-2.71447e-27
-2.71453e-27
-2.7146e-27
-2.71467e-27
-2.71475e-27
-2.71482e-27
-2.7149e-27
-2.71498e-27
-2.71507e-27
-2.71515e-27
-2.71524e-27
-2.71534e-27
-2.71543e-27
-2.71553e-27
-2.71563e-27
-2.71574e-27
-2.71585e-27
-2.71596e-27
-2.71607e-27
-2.71619e-27
-2.71631e-27
-2.71643e-27
-2.71655e-27
-2.71668e-27
-2.71682e-27
-2.71696e-27
-2.71712e-27
)
;

boundaryField
{
    boundary
    {
        type            empty;
    }
    inlet
    {
        type            calculated;
        value           uniform 0;
    }
    outlet
    {
        type            calculated;
        value           nonuniform 0();
    }
    procBoundary2to3
    {
        type            processor;
        value           uniform 0;
    }
}


// ************************************************************************* //
