/*--------------------------------*- C++ -*----------------------------------*\
  =========                 |
  \\      /  F ield         | OpenFOAM: The Open Source CFD Toolbox
   \\    /   O peration     | Website:  https://openfoam.org
    \\  /    A nd           | Version:  7
     \\/     M anipulation  |
\*---------------------------------------------------------------------------*/
FoamFile
{
    version     2.0;
    format      ascii;
    class       volScalarField;
    location    "0.00043";
    object      T;
}
// * * * * * * * * * * * * * * * * * * * * * * * * * * * * * * * * * * * * * //

dimensions      [0 0 0 1 0 0 0];

internalField   nonuniform List<scalar> 
125
(
300.003
300.008
300.012
300.017
300.022
300.027
300.032
300.038
300.044
300.052
300.061
300.071
300.084
300.099
300.117
300.138
300.163
300.193
300.227
300.266
300.31
300.359
300.413
300.472
300.535
300.601
300.67
300.741
300.813
300.885
300.955
301.023
301.089
301.15
301.207
301.259
301.307
301.349
301.386
301.418
301.445
301.469
301.488
301.504
301.517
301.527
301.536
301.542
301.547
301.551
301.554
301.556
301.558
301.559
301.56
301.56
301.561
301.561
301.561
301.561
301.561
301.561
301.561
301.562
301.562
301.562
301.562
301.562
301.562
301.562
301.562
301.562
301.562
301.562
301.562
301.562
301.562
301.562
301.562
301.562
301.562
301.562
301.562
301.562
301.562
301.562
301.562
301.562
301.562
301.562
301.562
301.563
301.563
301.563
301.563
301.563
301.563
301.563
301.563
301.563
301.563
301.563
301.563
301.563
301.564
301.564
301.564
301.564
301.564
301.564
301.564
301.564
301.564
301.565
301.565
301.565
301.565
301.565
301.565
301.565
301.566
301.566
301.566
301.566
301.566
)
;

boundaryField
{
    boundary
    {
        type            empty;
    }
    inlet
    {
        type            fixedValue;
        value           uniform 300;
    }
    outlet
    {
        type            zeroGradient;
    }
    procBoundary2to3
    {
        type            processor;
        value           uniform 301.567;
    }
}


// ************************************************************************* //
