/*--------------------------------*- C++ -*----------------------------------*\
  =========                 |
  \\      /  F ield         | OpenFOAM: The Open Source CFD Toolbox
   \\    /   O peration     | Website:  https://openfoam.org
    \\  /    A nd           | Version:  7
     \\/     M anipulation  |
\*---------------------------------------------------------------------------*/
FoamFile
{
    version     2.0;
    format      ascii;
    class       volScalarField;
    location    "0.00068";
    object      O;
}
// * * * * * * * * * * * * * * * * * * * * * * * * * * * * * * * * * * * * * //

dimensions      [0 0 0 0 0 0 0];

internalField   nonuniform List<scalar> 
125
(
1.57254e-47
3.74581e-47
5.92475e-47
8.0988e-47
1.0267e-46
1.24309e-46
1.45927e-46
1.6755e-46
1.89201e-46
2.10901e-46
2.32667e-46
2.54513e-46
2.76447e-46
2.98475e-46
3.20601e-46
3.42829e-46
3.65165e-46
3.87618e-46
4.102e-46
4.32931e-46
4.55838e-46
4.78956e-46
5.02327e-46
5.26005e-46
5.50052e-46
5.74538e-46
5.99544e-46
6.25158e-46
6.51473e-46
6.78588e-46
7.06602e-46
7.35615e-46
7.6572e-46
7.97002e-46
8.29529e-46
8.63357e-46
8.98512e-46
9.34999e-46
9.72788e-46
1.01182e-45
1.05199e-45
1.09317e-45
1.13518e-45
1.17783e-45
1.22087e-45
1.26404e-45
1.30707e-45
1.34967e-45
1.39153e-45
1.43236e-45
1.47189e-45
1.50986e-45
1.54604e-45
1.58023e-45
1.61227e-45
1.64205e-45
1.66949e-45
1.69457e-45
1.71728e-45
1.73768e-45
1.75585e-45
1.77188e-45
1.78592e-45
1.7981e-45
1.80857e-45
1.81751e-45
1.82507e-45
1.83141e-45
1.83669e-45
1.84104e-45
1.8446e-45
1.84748e-45
1.84981e-45
1.85167e-45
1.85314e-45
1.8543e-45
1.8552e-45
1.8559e-45
1.85644e-45
1.85685e-45
1.85717e-45
1.85741e-45
1.85758e-45
1.85772e-45
1.85782e-45
1.8579e-45
1.85796e-45
1.858e-45
1.85804e-45
1.85807e-45
1.8581e-45
1.85812e-45
1.85814e-45
1.85816e-45
1.85818e-45
1.8582e-45
1.85822e-45
1.85825e-45
1.85827e-45
1.85829e-45
1.85832e-45
1.85834e-45
1.85837e-45
1.8584e-45
1.85843e-45
1.85846e-45
1.85849e-45
1.85853e-45
1.85856e-45
1.8586e-45
1.85864e-45
1.85869e-45
1.85873e-45
1.85877e-45
1.85882e-45
1.85887e-45
1.85892e-45
1.85897e-45
1.85903e-45
1.85908e-45
1.85911e-45
1.85909e-45
1.85893e-45
1.85835e-45
1.85653e-45
)
;

boundaryField
{
    boundary
    {
        type            empty;
    }
    inlet
    {
        type            fixedValue;
        value           uniform 0;
    }
    outlet
    {
        type            zeroGradient;
    }
    procBoundary2to3
    {
        type            processor;
        value           uniform 1.85389e-45;
    }
}


// ************************************************************************* //
