/*--------------------------------*- C++ -*----------------------------------*\
  =========                 |
  \\      /  F ield         | OpenFOAM: The Open Source CFD Toolbox
   \\    /   O peration     | Website:  https://openfoam.org
    \\  /    A nd           | Version:  7
     \\/     M anipulation  |
\*---------------------------------------------------------------------------*/
FoamFile
{
    version     2.0;
    format      ascii;
    class       volScalarField;
    location    "6e-05";
    object      H2O2;
}
// * * * * * * * * * * * * * * * * * * * * * * * * * * * * * * * * * * * * * //

dimensions      [0 0 0 0 0 0 0];

internalField   nonuniform List<scalar> 
125
(
7.87842e-33
1.17896e-31
1.72497e-30
2.48284e-29
3.51306e-28
4.88229e-27
6.65835e-26
8.90204e-25
1.16558e-23
1.49291e-22
1.86831e-21
2.28152e-20
2.71493e-19
3.14342e-18
3.53557e-17
3.85635e-16
4.07141e-15
4.15233e-14
4.08208e-13
3.8592e-12
3.49967e-11
3.03528e-10
2.50878e-09
1.96642e-08
1.44978e-07
9.89021e-07
5.99983e-06
2.91802e-05
8.94704e-05
0.000136907
0.000135548
8.27055e-05
3.62528e-05
1.4235e-05
6.56933e-06
4.54705e-06
4.44078e-06
4.8917e-06
5.38513e-06
5.75378e-06
5.9621e-06
6.02486e-06
5.97048e-06
5.82639e-06
5.615e-06
5.3534e-06
5.05472e-06
4.72965e-06
4.38748e-06
4.03683e-06
3.68583e-06
3.34198e-06
3.01185e-06
2.70075e-06
2.41247e-06
2.14932e-06
1.91217e-06
1.70074e-06
1.51388e-06
1.34987e-06
1.20668e-06
1.08586e-06
9.81998e-07
8.90828e-07
8.10804e-07
7.40529e-07
6.78751e-07
6.24367e-07
5.76406e-07
5.34026e-07
4.96501e-07
4.63202e-07
4.3359e-07
4.07203e-07
3.83646e-07
3.62579e-07
3.43713e-07
3.26798e-07
3.11619e-07
2.97991e-07
2.85754e-07
2.74766e-07
2.64906e-07
2.56066e-07
2.48147e-07
2.41065e-07
2.3474e-07
2.29103e-07
2.24088e-07
2.19637e-07
2.15695e-07
2.12213e-07
2.09145e-07
2.06448e-07
2.04083e-07
2.02016e-07
2.00214e-07
1.98646e-07
1.97287e-07
1.96111e-07
1.95096e-07
1.94223e-07
1.93474e-07
1.92833e-07
1.92285e-07
1.91819e-07
1.91423e-07
1.91087e-07
1.90803e-07
1.90563e-07
1.90362e-07
1.90192e-07
1.9005e-07
1.89931e-07
1.89832e-07
1.89748e-07
1.89679e-07
1.89621e-07
1.89572e-07
1.89531e-07
1.89495e-07
1.89464e-07
1.89435e-07
1.89406e-07
1.89376e-07
)
;

boundaryField
{
    boundary
    {
        type            empty;
    }
    inlet
    {
        type            fixedValue;
        value           nonuniform 0();
    }
    outlet
    {
        type            zeroGradient;
    }
    procBoundary1to0
    {
        type            processor;
        value           uniform 1.89354e-07;
    }
    procBoundary1to3
    {
        type            processor;
        value           uniform 3.59649e-34;
    }
}


// ************************************************************************* //
