/*--------------------------------*- C++ -*----------------------------------*\
  =========                 |
  \\      /  F ield         | OpenFOAM: The Open Source CFD Toolbox
   \\    /   O peration     | Website:  https://openfoam.org
    \\  /    A nd           | Version:  7
     \\/     M anipulation  |
\*---------------------------------------------------------------------------*/
FoamFile
{
    version     2.0;
    format      ascii;
    class       volScalarField;
    location    "6e-05";
    object      HO2;
}
// * * * * * * * * * * * * * * * * * * * * * * * * * * * * * * * * * * * * * //

dimensions      [0 0 0 0 0 0 0];

internalField   nonuniform List<scalar> 
125
(
6.1371e-25
3.43749e-24
1.90871e-23
1.06155e-22
5.91996e-22
3.31153e-21
1.85909e-20
1.04837e-19
5.94647e-19
3.3992e-18
1.96347e-17
1.14985e-16
6.85236e-16
4.16982e-15
2.5968e-14
1.65484e-13
1.07559e-12
7.08312e-12
4.68122e-11
3.0702e-10
1.9754e-09
1.23273e-08
7.38082e-08
4.18784e-07
2.22228e-06
1.08127e-05
4.64107e-05
0.000162965
0.000397083
0.000524457
0.000474396
0.000364815
0.000259978
0.000182052
0.00012746
8.93323e-05
6.02923e-05
4.2709e-05
3.12749e-05
2.38274e-05
1.88813e-05
1.54837e-05
1.30487e-05
1.12235e-05
9.79615e-06
8.63877e-06
7.67314e-06
6.8504e-06
6.13922e-06
5.51881e-06
4.97483e-06
4.49698e-06
4.07747e-06
3.71016e-06
3.38991e-06
3.11227e-06
2.87317e-06
2.66883e-06
2.49566e-06
2.35019e-06
2.22911e-06
2.1322e-06
2.05335e-06
1.98826e-06
1.93481e-06
1.89112e-06
1.85549e-06
1.82644e-06
1.80271e-06
1.78327e-06
1.76726e-06
1.75403e-06
1.74305e-06
1.73392e-06
1.72635e-06
1.72012e-06
1.71505e-06
1.71102e-06
1.7079e-06
1.70561e-06
1.70405e-06
1.70315e-06
1.7028e-06
1.70295e-06
1.70349e-06
1.70437e-06
1.70551e-06
1.70683e-06
1.70829e-06
1.70983e-06
1.7114e-06
1.71297e-06
1.7145e-06
1.71598e-06
1.71738e-06
1.7187e-06
1.71992e-06
1.72104e-06
1.72207e-06
1.72299e-06
1.72383e-06
1.72457e-06
1.72523e-06
1.72581e-06
1.72632e-06
1.72677e-06
1.72716e-06
1.72751e-06
1.7278e-06
1.72806e-06
1.72829e-06
1.72848e-06
1.72865e-06
1.7288e-06
1.72893e-06
1.72905e-06
1.72915e-06
1.72924e-06
1.72932e-06
1.72939e-06
1.72945e-06
1.72952e-06
1.72958e-06
1.72963e-06
1.72961e-06
)
;

boundaryField
{
    boundary
    {
        type            empty;
    }
    inlet
    {
        type            fixedValue;
        value           nonuniform 0();
    }
    outlet
    {
        type            zeroGradient;
    }
    procBoundary1to0
    {
        type            processor;
        value           uniform 1.72961e-06;
    }
    procBoundary1to3
    {
        type            processor;
        value           uniform 1.03821e-25;
    }
}


// ************************************************************************* //
