/*--------------------------------*- C++ -*----------------------------------*\
  =========                 |
  \\      /  F ield         | OpenFOAM: The Open Source CFD Toolbox
   \\    /   O peration     | Website:  https://openfoam.org
    \\  /    A nd           | Version:  7
     \\/     M anipulation  |
\*---------------------------------------------------------------------------*/
FoamFile
{
    version     2.0;
    format      ascii;
    class       volScalarField;
    location    "6e-05";
    object      p;
}
// * * * * * * * * * * * * * * * * * * * * * * * * * * * * * * * * * * * * * //

dimensions      [1 -1 -2 0 0 0 0];

internalField   nonuniform List<scalar> 
125
(
102648
102647
102646
102645
102645
102644
102643
102642
102641
102640
102639
102639
102638
102637
102636
102635
102635
102634
102633
102632
102631
102631
102630
102629
102628
102628
102627
102626
102625
102624
102622
102620
102617
102614
102612
102610
102608
102607
102605
102604
102603
102602
102601
102601
102600
102599
102599
102598
102598
102597
102597
102596
102596
102595
102595
102594
102594
102593
102593
102593
102592
102592
102591
102591
102590
102590
102590
102589
102589
102588
102588
102588
102587
102587
102587
102586
102586
102585
102585
102585
102584
102584
102583
102583
102583
102582
102582
102581
102581
102581
102580
102580
102580
102579
102579
102578
102578
102578
102577
102577
102576
102576
102576
102575
102575
102574
102574
102574
102573
102573
102573
102572
102572
102571
102571
102571
102570
102570
102570
102569
102569
102569
102568
102568
102567
)
;

boundaryField
{
    boundary
    {
        type            empty;
    }
    inlet
    {
        type            zeroGradient;
    }
    outlet
    {
        type            waveTransmissive;
        gamma           1.4;
        value           nonuniform 0();
    }
    procBoundary1to0
    {
        type            processor;
        value           uniform 102567;
    }
    procBoundary1to3
    {
        type            processor;
        value           uniform 102649;
    }
}


// ************************************************************************* //
