/*--------------------------------*- C++ -*----------------------------------*\
  =========                 |
  \\      /  F ield         | OpenFOAM: The Open Source CFD Toolbox
   \\    /   O peration     | Website:  https://openfoam.org
    \\  /    A nd           | Version:  7
     \\/     M anipulation  |
\*---------------------------------------------------------------------------*/
FoamFile
{
    version     2.0;
    format      ascii;
    class       surfaceScalarField;
    location    "6e-05";
    object      phi;
}
// * * * * * * * * * * * * * * * * * * * * * * * * * * * * * * * * * * * * * //

dimensions      [1 0 -1 0 0 0 0];

internalField   nonuniform List<scalar> 
124
(
5.01595e-06
5.00341e-06
4.99095e-06
4.97854e-06
4.96621e-06
4.95393e-06
4.94172e-06
4.92957e-06
4.91749e-06
4.90547e-06
4.89351e-06
4.88161e-06
4.86978e-06
4.85802e-06
4.84633e-06
4.8347e-06
4.82315e-06
4.81167e-06
4.80026e-06
4.78893e-06
4.77768e-06
4.76652e-06
4.75557e-06
4.74544e-06
4.73869e-06
4.745e-06
4.79593e-06
4.96615e-06
5.30956e-06
5.69168e-06
5.96332e-06
6.12504e-06
6.22422e-06
6.29072e-06
6.33793e-06
6.37038e-06
6.39351e-06
6.40901e-06
6.41908e-06
6.42451e-06
6.42549e-06
6.42168e-06
6.4125e-06
6.39723e-06
6.3753e-06
6.34629e-06
6.31007e-06
6.2668e-06
6.21693e-06
6.16116e-06
6.10042e-06
6.03578e-06
5.96837e-06
5.89936e-06
5.82989e-06
5.76102e-06
5.69368e-06
5.6287e-06
5.56676e-06
5.50839e-06
5.454e-06
5.40669e-06
5.36317e-06
5.32354e-06
5.28782e-06
5.25598e-06
5.22791e-06
5.20348e-06
5.18249e-06
5.16473e-06
5.14995e-06
5.13789e-06
5.12828e-06
5.12085e-06
5.11534e-06
5.11147e-06
5.109e-06
5.10769e-06
5.10734e-06
5.10773e-06
5.10871e-06
5.1101e-06
5.11179e-06
5.11365e-06
5.11558e-06
5.11752e-06
5.11939e-06
5.12114e-06
5.12275e-06
5.12418e-06
5.12542e-06
5.12645e-06
5.12728e-06
5.1279e-06
5.12832e-06
5.12855e-06
5.12859e-06
5.12847e-06
5.12818e-06
5.12775e-06
5.12718e-06
5.12649e-06
5.12569e-06
5.12479e-06
5.1238e-06
5.12274e-06
5.1216e-06
5.1204e-06
5.11915e-06
5.11785e-06
5.11651e-06
5.11514e-06
5.11373e-06
5.1123e-06
5.11084e-06
5.10936e-06
5.10786e-06
5.10635e-06
5.10482e-06
5.10328e-06
5.10173e-06
5.10017e-06
5.0986e-06
5.09702e-06
)
;

boundaryField
{
    boundary
    {
        type            empty;
        value           nonuniform 0();
    }
    inlet
    {
        type            calculated;
        value           nonuniform 0();
    }
    outlet
    {
        type            calculated;
        value           nonuniform 0();
    }
    procBoundary1to0
    {
        type            processor;
        value           uniform 5.09544e-06;
    }
    procBoundary1to3
    {
        type            processor;
        value           uniform -5.02858e-06;
    }
}


// ************************************************************************* //
