/*--------------------------------*- C++ -*----------------------------------*\
  =========                 |
  \\      /  F ield         | OpenFOAM: The Open Source CFD Toolbox
   \\    /   O peration     | Website:  https://openfoam.org
    \\  /    A nd           | Version:  7
     \\/     M anipulation  |
\*---------------------------------------------------------------------------*/
FoamFile
{
    version     2.0;
    format      ascii;
    class       volScalarField;
    location    "6e-05";
    object      Qdot;
}
// * * * * * * * * * * * * * * * * * * * * * * * * * * * * * * * * * * * * * //

dimensions      [1 -1 -3 0 0 0 0];

internalField   nonuniform List<scalar> 
125
(
1.26516e-15
8.09309e-15
5.30953e-14
3.53133e-13
2.37749e-12
1.61758e-11
1.10971e-10
7.65563e-10
5.29539e-09
3.6611e-08
2.52221e-07
1.72632e-06
1.17064e-05
7.84697e-05
0.000518842
0.0033789
0.0216533
0.136506
0.846853
5.17498
33.2969
233.032
1842.63
14327.7
115142
985835
8.8955e+06
8.11189e+07
6.51797e+08
3.37702e+09
8.90454e+09
1.25642e+10
1.32011e+10
1.31369e+10
1.30357e+10
1.22319e+10
1.0605e+10
8.739e+09
7.09926e+09
5.7658e+09
4.72917e+09
3.92688e+09
3.29785e+09
2.7949e+09
2.38462e+09
2.04388e+09
1.75681e+09
1.51238e+09
1.30273e+09
1.1221e+09
9.6609e+08
8.31239e+08
7.14707e+08
6.14092e+08
5.27322e+08
4.52583e+08
3.8828e+08
3.33007e+08
2.85534e+08
2.44796e+08
2.09905e+08
1.80737e+08
1.55896e+08
1.34238e+08
1.1545e+08
9.91101e+07
8.49097e+07
7.25721e+07
6.18617e+07
5.25704e+07
4.45216e+07
3.75591e+07
3.15481e+07
2.63694e+07
2.19193e+07
1.8106e+07
1.48481e+07
1.20752e+07
9.72337e+06
7.73868e+06
6.06979e+06
4.676e+06
3.52051e+06
2.56336e+06
1.77831e+06
1.14256e+06
626115
214724
-110623
-364369
-556804
-701352
-806826
-880536
-928652
-956686
-968840
-968704
-960814
-944272
-924281
-901064
-876367
-851306
-825773
-801152
-777903
-755548
-735223
-716135
-699183
-683936
-670044
-658267
-647796
-637796
-630027
-623219
-617206
-612204
-606671
-604910
-604761
-610875
-630719
)
;

boundaryField
{
    boundary
    {
        type            empty;
    }
    inlet
    {
        type            calculated;
        value           nonuniform 0();
    }
    outlet
    {
        type            calculated;
        value           nonuniform 0();
    }
    procBoundary1to0
    {
        type            processor;
        value           uniform 0;
    }
    procBoundary1to3
    {
        type            processor;
        value           uniform 0;
    }
}


// ************************************************************************* //
