/*--------------------------------*- C++ -*----------------------------------*\
  =========                 |
  \\      /  F ield         | OpenFOAM: The Open Source CFD Toolbox
   \\    /   O peration     | Website:  https://openfoam.org
    \\  /    A nd           | Version:  7
     \\/     M anipulation  |
\*---------------------------------------------------------------------------*/
FoamFile
{
    version     2.0;
    format      ascii;
    class       volScalarField;
    location    "6e-05";
    object      T;
}
// * * * * * * * * * * * * * * * * * * * * * * * * * * * * * * * * * * * * * //

dimensions      [0 0 0 1 0 0 0];

internalField   nonuniform List<scalar> 
125
(
300.922
300.919
300.915
300.911
300.906
300.902
300.897
300.893
300.888
300.883
300.878
300.873
300.868
300.863
300.858
300.852
300.847
300.841
300.835
300.83
300.824
300.821
300.827
300.875
301.092
301.988
305.47
318.113
357.28
446.599
586.196
745.838
901.142
1045.34
1174.39
1288.98
1384.71
1460.89
1520.64
1570.16
1612.2
1648.99
1682.21
1713.14
1742.73
1771.68
1800.5
1829.51
1858.91
1888.75
1919
1949.52
1980.14
2010.65
2040.79
2070.32
2099.01
2126.62
2152.97
2177.89
2201.23
2222.3
2241.41
2259.09
2275.3
2290.05
2303.38
2315.34
2325.99
2335.42
2343.72
2350.96
2357.24
2362.66
2367.31
2371.28
2374.65
2377.49
2379.89
2381.9
2383.57
2384.97
2386.14
2387.11
2387.91
2388.59
2389.15
2389.62
2390.01
2390.35
2390.63
2390.87
2391.08
2391.25
2391.41
2391.54
2391.66
2391.76
2391.85
2391.93
2392
2392.06
2392.11
2392.16
2392.21
2392.25
2392.28
2392.31
2392.34
2392.37
2392.39
2392.41
2392.43
2392.45
2392.46
2392.48
2392.49
2392.51
2392.52
2392.53
2392.54
2392.55
2392.56
2392.58
2392.59
)
;

boundaryField
{
    boundary
    {
        type            empty;
    }
    inlet
    {
        type            fixedValue;
        value           nonuniform 0();
    }
    outlet
    {
        type            zeroGradient;
    }
    procBoundary1to0
    {
        type            processor;
        value           uniform 2392.6;
    }
    procBoundary1to3
    {
        type            processor;
        value           uniform 300.927;
    }
}


// ************************************************************************* //
