/*--------------------------------*- C++ -*----------------------------------*\
  =========                 |
  \\      /  F ield         | OpenFOAM: The Open Source CFD Toolbox
   \\    /   O peration     | Website:  https://openfoam.org
    \\  /    A nd           | Version:  7
     \\/     M anipulation  |
\*---------------------------------------------------------------------------*/
FoamFile
{
    version     2.0;
    format      ascii;
    class       volVectorField;
    location    "6e-05";
    object      U;
}
// * * * * * * * * * * * * * * * * * * * * * * * * * * * * * * * * * * * * * //

dimensions      [0 1 -1 0 0 0 0];

internalField   nonuniform List<vector> 
125
(
(1.71537 0 0)
(1.7112 0 0)
(1.70692 0 0)
(1.70261 0 0)
(1.69835 0 0)
(1.69417 0 0)
(1.68997 0 0)
(1.68577 0 0)
(1.68163 0 0)
(1.67752 0 0)
(1.67341 0 0)
(1.66931 0 0)
(1.66524 0 0)
(1.6612 0 0)
(1.65717 0 0)
(1.6532 0 0)
(1.64923 0 0)
(1.64527 0 0)
(1.64132 0 0)
(1.63743 0 0)
(1.63356 0 0)
(1.62972 0 0)
(1.62596 0 0)
(1.62239 0 0)
(1.62018 0 0)
(1.62425 0 0)
(1.65017 0 0)
(1.73884 0 0)
(1.97239 0 0)
(2.48701 0 0)
(3.41802 0 0)
(4.58796 0 0)
(5.76639 0 0)
(6.82634 0 0)
(7.74401 0 0)
(8.53084 0 0)
(9.19036 0 0)
(9.71908 0 0)
(10.1315 0 0)
(10.46 0 0)
(10.7319 0 0)
(10.963 0 0)
(11.1625 0 0)
(11.3366 0 0)
(11.4897 0 0)
(11.6248 0 0)
(11.7438 0 0)
(11.8482 0 0)
(11.9389 0 0)
(12.0167 0 0)
(12.0821 0 0)
(12.1359 0 0)
(12.1787 0 0)
(12.2113 0 0)
(12.2344 0 0)
(12.2491 0 0)
(12.2562 0 0)
(12.2567 0 0)
(12.2521 0 0)
(12.2426 0 0)
(12.2294 0 0)
(12.2143 0 0)
(12.1985 0 0)
(12.182 0 0)
(12.165 0 0)
(12.1481 0 0)
(12.1317 0 0)
(12.1161 0 0)
(12.1015 0 0)
(12.0882 0 0)
(12.0762 0 0)
(12.0657 0 0)
(12.0566 0 0)
(12.0489 0 0)
(12.0426 0 0)
(12.0375 0 0)
(12.0335 0 0)
(12.0304 0 0)
(12.0283 0 0)
(12.0268 0 0)
(12.0259 0 0)
(12.0255 0 0)
(12.0254 0 0)
(12.0255 0 0)
(12.0258 0 0)
(12.026 0 0)
(12.0263 0 0)
(12.0266 0 0)
(12.0266 0 0)
(12.0266 0 0)
(12.0263 0 0)
(12.0258 0 0)
(12.0253 0 0)
(12.0243 0 0)
(12.0232 0 0)
(12.0219 0 0)
(12.0204 0 0)
(12.0187 0 0)
(12.0169 0 0)
(12.0148 0 0)
(12.0126 0 0)
(12.0102 0 0)
(12.0077 0 0)
(12.0051 0 0)
(12.0023 0 0)
(11.9995 0 0)
(11.9966 0 0)
(11.9936 0 0)
(11.9905 0 0)
(11.9873 0 0)
(11.9841 0 0)
(11.9808 0 0)
(11.9775 0 0)
(11.9742 0 0)
(11.9708 0 0)
(11.9674 0 0)
(11.964 0 0)
(11.9605 0 0)
(11.9571 0 0)
(11.9536 0 0)
(11.9501 0 0)
(11.9466 0 0)
(11.9439 0 0)
(11.9406 0 0)
(11.9373 0 0)
)
;

boundaryField
{
    boundary
    {
        type            empty;
    }
    inlet
    {
        type            fixedValue;
        value           nonuniform 0();
    }
    outlet
    {
        type            zeroGradient;
    }
    procBoundary1to0
    {
        type            processor;
        value           uniform (11.9334 0 0);
    }
    procBoundary1to3
    {
        type            processor;
        value           uniform (1.71969 0 0);
    }
}


// ************************************************************************* //
