/*--------------------------------*- C++ -*----------------------------------*\
  =========                 |
  \\      /  F ield         | OpenFOAM: The Open Source CFD Toolbox
   \\    /   O peration     | Website:  https://openfoam.org
    \\  /    A nd           | Version:  7
     \\/     M anipulation  |
\*---------------------------------------------------------------------------*/
FoamFile
{
    version     2.0;
    format      ascii;
    class       volScalarField;
    location    "0.0005";
    object      T;
}
// * * * * * * * * * * * * * * * * * * * * * * * * * * * * * * * * * * * * * //

dimensions      [0 0 0 1 0 0 0];

internalField   nonuniform List<scalar> 
125
(
301.515
301.512
301.509
301.506
301.503
301.5
301.497
301.494
301.491
301.488
301.485
301.482
301.479
301.475
301.472
301.47
301.469
301.472
301.486
301.534
301.675
302.084
303.258
306.614
316.131
342.01
403.278
514.462
662.03
817.437
966.528
1105.77
1230.67
1335
1423.57
1498.61
1558.31
1605.87
1646.42
1681.41
1712.08
1739.29
1763.7
1785.79
1805.92
1824.38
1841.41
1857.19
1871.86
1885.57
1898.4
1910.46
1921.82
1932.55
1942.71
1952.34
1961.49
1970.2
1978.49
1986.41
1993.96
2000.97
2007.57
2013.96
2020.13
2026.1
2031.88
2037.48
2042.91
2048.17
2053.29
2058.26
2063.09
2067.79
2072.36
2076.81
2081.15
2085.38
2089.5
2093.52
2097.45
2101.28
2105.02
2108.68
2112.25
2115.74
2119.16
2122.5
2125.78
2128.98
2132.12
2135.19
2138.2
2141.15
2144.05
2146.89
2149.67
2152.4
2155.09
2157.72
2160.3
2162.84
2165.34
2167.79
2170.2
2172.57
2174.9
2177.19
2179.44
2181.66
2183.84
2185.99
2188.11
2190.19
2192.24
2194.26
2196.25
2198.21
2200.14
2202.05
2203.92
2205.77
2207.6
2209.39
2211.16
)
;

boundaryField
{
    boundary
    {
        type            empty;
    }
    inlet
    {
        type            fixedValue;
        value           nonuniform 0();
    }
    outlet
    {
        type            zeroGradient;
    }
    procBoundary1to0
    {
        type            processor;
        value           uniform 2212.9;
    }
    procBoundary1to3
    {
        type            processor;
        value           uniform 301.518;
    }
}


// ************************************************************************* //
