/*--------------------------------*- C++ -*----------------------------------*\
  =========                 |
  \\      /  F ield         | OpenFOAM: The Open Source CFD Toolbox
   \\    /   O peration     | Website:  https://openfoam.org
    \\  /    A nd           | Version:  7
     \\/     M anipulation  |
\*---------------------------------------------------------------------------*/
FoamFile
{
    version     2.0;
    format      ascii;
    class       volScalarField;
    location    "1e-05";
    object      cellCpuTimes;
}
// * * * * * * * * * * * * * * * * * * * * * * * * * * * * * * * * * * * * * //

dimensions      [0 0 0 0 0 0 0];

internalField   nonuniform List<scalar> 
500
(
8.8e-05
5.7e-05
5.1e-05
4.8e-05
4.9e-05
4.9e-05
4.9e-05
4.9e-05
5e-05
4.9e-05
4.9e-05
4.8e-05
4.9e-05
4.9e-05
4.9e-05
4.9e-05
4.8e-05
4.9e-05
5e-05
4.8e-05
4.9e-05
4.9e-05
4.9e-05
4.8e-05
4.9e-05
4.8e-05
4.9e-05
4.9e-05
4.8e-05
4.8e-05
4.9e-05
4.8e-05
4.8e-05
4.9e-05
4.9e-05
4.9e-05
4.9e-05
4.8e-05
4.8e-05
4.9e-05
6.3e-05
4.8e-05
4.8e-05
4.7e-05
4.8e-05
4.8e-05
4.8e-05
4.9e-05
4.8e-05
4.9e-05
4.9e-05
4.9e-05
4.8e-05
4.9e-05
4.8e-05
4.8e-05
4.9e-05
4.8e-05
4.8e-05
4.8e-05
4.9e-05
4.8e-05
4.9e-05
4.8e-05
4.8e-05
4.9e-05
4.9e-05
4.8e-05
4.9e-05
4.8e-05
4.8e-05
4.9e-05
4.8e-05
4.8e-05
4.8e-05
4.8e-05
4.9e-05
4.9e-05
4.9e-05
4.8e-05
4.8e-05
4.9e-05
4.9e-05
4.9e-05
4.8e-05
4.8e-05
4.9e-05
4.8e-05
4.9e-05
4.8e-05
4.9e-05
4.8e-05
4.9e-05
4.9e-05
4.8e-05
4.8e-05
4.8e-05
4.8e-05
4.9e-05
4.9e-05
4.8e-05
4.9e-05
4.8e-05
4.8e-05
4.8e-05
4.8e-05
4.9e-05
4.9e-05
4.8e-05
4.9e-05
4.8e-05
4.8e-05
4.8e-05
4.9e-05
4.8e-05
4.9e-05
4.8e-05
4.9e-05
4.8e-05
5.5e-05
4.9e-05
4.8e-05
4.9e-05
4.9e-05
4.8e-05
8.7e-05
5.2e-05
4.8e-05
4.7e-05
4.8e-05
4.7e-05
4.7e-05
4.7e-05
4.7e-05
4.7e-05
4.7e-05
4.7e-05
4.7e-05
4.7e-05
4.8e-05
4.7e-05
4.6e-05
4.7e-05
4.7e-05
4.7e-05
4.7e-05
4.6e-05
4.7e-05
4.7e-05
4.6e-05
4.7e-05
4.7e-05
4.6e-05
4.7e-05
4.7e-05
4.7e-05
4.6e-05
4.7e-05
4.6e-05
4.7e-05
4.6e-05
4.7e-05
4.7e-05
4.6e-05
4.6e-05
4.6e-05
4.6e-05
5.4e-05
4.8e-05
4.8e-05
4.7e-05
4.7e-05
4.7e-05
4.7e-05
4.6e-05
4.6e-05
4.7e-05
4.7e-05
4.6e-05
4.7e-05
4.7e-05
4.7e-05
4.7e-05
4.6e-05
4.7e-05
4.7e-05
4.7e-05
4.7e-05
4.7e-05
4.7e-05
4.6e-05
4.7e-05
4.7e-05
4.7e-05
4.6e-05
4.6e-05
4.7e-05
4.7e-05
4.7e-05
4.6e-05
4.7e-05
4.8e-05
4.7e-05
4.7e-05
4.7e-05
4.7e-05
4.6e-05
4.7e-05
4.6e-05
4.7e-05
4.7e-05
4.7e-05
4.6e-05
4.7e-05
4.7e-05
4.6e-05
4.7e-05
4.6e-05
4.6e-05
4.7e-05
4.6e-05
4.6e-05
4.7e-05
4.6e-05
4.6e-05
4.7e-05
4.6e-05
4.7e-05
4.7e-05
4.6e-05
4.7e-05
4.7e-05
4.7e-05
4.7e-05
4.7e-05
4.7e-05
4.7e-05
4.6e-05
4.7e-05
4.6e-05
4.7e-05
4.6e-05
4.7e-05
4.6e-05
4.7e-05
4.6e-05
4.7e-05
4.7e-05
4.7e-05
6.6e-05
4.8e-05
4.6e-05
4.7e-05
4.8e-05
4.7e-05
4.6e-05
4.7e-05
4.6e-05
4.7e-05
4.6e-05
4.7e-05
4.7e-05
4.6e-05
4.6e-05
4.7e-05
4.6e-05
4.7e-05
4.6e-05
4.7e-05
4.6e-05
4.7e-05
4.6e-05
4.7e-05
4.6e-05
4.7e-05
5.7e-05
7.2e-05
7.8e-05
9.7e-05
0.000137
0.000176
0.000194
0.000193
0.000196
0.000183
0.000236
0.000283
0.00027
0.000246
0.000205
0.000209
0.000234
0.000185
0.00018
0.000198
0.000198
0.00019
0.000189
0.000191
0.000173
0.000183
0.000179
0.000174
0.000173
0.000171
0.000168
0.000156
0.000155
0.000153
0.000141
0.000126
0.000122
0.000125
0.00013
0.000122
0.00011
0.000107
0.000109
0.000108
0.000109
0.000109
0.000109
0.000108
0.000109
0.000108
0.000109
0.000109
0.000108
0.000109
0.000108
0.000109
0.000109
0.000108
0.000111
0.000109
0.000108
0.000108
0.000109
0.000108
0.00011
0.000108
0.000108
0.000108
0.000108
0.000109
0.000109
0.000108
0.000109
0.000108
0.000108
0.000109
0.000108
0.000109
0.000108
0.000109
0.000109
0.000108
0.000109
0.000108
0.000108
0.000109
0.000108
0.000108
0.000109
0.000109
0.000108
0.000109
0.0001
9.8e-05
0.000108
9.6e-05
0.0001
9.8e-05
0.000103
9.7e-05
9.7e-05
9.8e-05
9.6e-05
9.8e-05
9.6e-05
9.4e-05
9.5e-05
9.6e-05
9.5e-05
9.3e-05
9.5e-05
9.3e-05
8.6e-05
9.2e-05
8.7e-05
8.4e-05
8e-05
7.2e-05
7e-05
7.6e-05
8.3e-05
8.5e-05
8.6e-05
9e-05
8.7e-05
9.4e-05
9.3e-05
9.4e-05
9.5e-05
9.5e-05
9.5e-05
0.000143
9.9e-05
9.6e-05
9.8e-05
9.8e-05
0.000101
0.0001
0.0001
0.0001
0.0001
0.0001
0.000107
0.000107
0.000101
0.000101
0.000104
0.000103
0.000102
0.000101
0.0001
0.000105
0.000102
0.000101
0.000102
0.000102
0.000101
0.000102
0.000102
0.000102
0.000106
0.000112
0.000112
0.000112
0.000112
0.000112
0.000112
0.000112
0.000112
0.000113
0.000112
0.000112
0.000112
0.000112
0.000112
0.000112
0.000112
0.000113
0.000113
0.000112
0.000107
0.000102
0.000102
0.000102
0.000101
0.000102
0.000102
0.00011
0.000103
0.000101
0.000102
0.000101
9.9e-05
9.9e-05
0.000102
0.000101
0.000103
0.000103
0.000103
0.000103
0.0001
0.000101
0.0001
0.000107
0.000107
0.000106
0.0001
0.0001
0.0001
0.0001
0.0001
0.0001
0.0001
0.0001
0.0001
0.0001
9.9e-05
9.5e-05
9.5e-05
9.5e-05
9.8e-05
9.7e-05
9.4e-05
9.5e-05
9.5e-05
)
;

boundaryField
{
    boundary
    {
        type            empty;
    }
    inlet
    {
        type            calculated;
        value           uniform 0;
    }
    outlet
    {
        type            calculated;
        value           uniform 0;
    }
}


// ************************************************************************* //
