/*--------------------------------*- C++ -*----------------------------------*\
  =========                 |
  \\      /  F ield         | OpenFOAM: The Open Source CFD Toolbox
   \\    /   O peration     | Website:  https://openfoam.org
    \\  /    A nd           | Version:  7
     \\/     M anipulation  |
\*---------------------------------------------------------------------------*/
FoamFile
{
    version     2.0;
    format      ascii;
    class       volScalarField;
    location    "1e-05";
    object      H;
}
// * * * * * * * * * * * * * * * * * * * * * * * * * * * * * * * * * * * * * //

dimensions      [0 0 0 0 0 0 0];

internalField   nonuniform List<scalar> 
500
(
1.44753e-41
2.01574e-41
2.15103e-41
2.18325e-41
2.19094e-41
2.19278e-41
2.19322e-41
2.19333e-41
2.19336e-41
2.19337e-41
2.19338e-41
2.19339e-41
2.1934e-41
2.19341e-41
2.19342e-41
2.19343e-41
2.19344e-41
2.19345e-41
2.19347e-41
2.19348e-41
2.19349e-41
2.19351e-41
2.19353e-41
2.19354e-41
2.19356e-41
2.19358e-41
2.1936e-41
2.19362e-41
2.19365e-41
2.19367e-41
2.19369e-41
2.19372e-41
2.19375e-41
2.19378e-41
2.1938e-41
2.19384e-41
2.19387e-41
2.1939e-41
2.19394e-41
2.19397e-41
2.19401e-41
2.19405e-41
2.19409e-41
2.19413e-41
2.19418e-41
2.19423e-41
2.19427e-41
2.19433e-41
2.19438e-41
2.19443e-41
2.19449e-41
2.19455e-41
2.19461e-41
2.19467e-41
2.19474e-41
2.19481e-41
2.19488e-41
2.19495e-41
2.19503e-41
2.19511e-41
2.19519e-41
2.19528e-41
2.19537e-41
2.19546e-41
2.19556e-41
2.19566e-41
2.19576e-41
2.19587e-41
2.19598e-41
2.1961e-41
2.19622e-41
2.19634e-41
2.19647e-41
2.19661e-41
2.19675e-41
2.19689e-41
2.19704e-41
2.1972e-41
2.19736e-41
2.19753e-41
2.1977e-41
2.19788e-41
2.19807e-41
2.19826e-41
2.19846e-41
2.19867e-41
2.19888e-41
2.19911e-41
2.19934e-41
2.19958e-41
2.19982e-41
2.20008e-41
2.20035e-41
2.20062e-41
2.20091e-41
2.20121e-41
2.20151e-41
2.20183e-41
2.20216e-41
2.2025e-41
2.20286e-41
2.20322e-41
2.2036e-41
2.204e-41
2.2044e-41
2.20482e-41
2.20526e-41
2.20571e-41
2.20618e-41
2.20666e-41
2.20716e-41
2.20768e-41
2.20821e-41
2.20877e-41
2.20934e-41
2.20994e-41
2.21055e-41
2.21118e-41
2.21184e-41
2.21252e-41
2.21321e-41
2.21391e-41
2.21458e-41
2.21515e-41
2.2156e-41
2.21616e-41
2.21731e-41
2.21848e-41
2.21959e-41
2.22064e-41
2.22166e-41
2.22269e-41
2.22374e-41
2.22482e-41
2.22593e-41
2.22708e-41
2.22827e-41
2.22949e-41
2.23075e-41
2.23205e-41
2.23339e-41
2.23478e-41
2.2362e-41
2.23768e-41
2.23919e-41
2.24075e-41
2.24236e-41
2.24402e-41
2.24573e-41
2.24749e-41
2.2493e-41
2.25116e-41
2.25308e-41
2.25506e-41
2.25709e-41
2.25918e-41
2.26132e-41
2.26353e-41
2.2658e-41
2.26813e-41
2.27053e-41
2.27299e-41
2.27551e-41
2.2781e-41
2.28076e-41
2.28349e-41
2.28628e-41
2.28915e-41
2.29208e-41
2.29509e-41
2.29817e-41
2.30133e-41
2.30455e-41
2.30785e-41
2.31123e-41
2.31467e-41
2.3182e-41
2.32179e-41
2.32546e-41
2.32921e-41
2.33302e-41
2.33691e-41
2.34087e-41
2.34491e-41
2.34901e-41
2.35318e-41
2.35741e-41
2.36172e-41
2.36608e-41
2.37051e-41
2.37499e-41
2.37953e-41
2.38411e-41
2.38875e-41
2.39343e-41
2.39816e-41
2.40292e-41
2.40771e-41
2.41252e-41
2.41736e-41
2.42221e-41
2.42707e-41
2.43192e-41
2.43678e-41
2.44162e-41
2.44643e-41
2.45122e-41
2.45596e-41
2.46066e-41
2.46529e-41
2.46986e-41
2.47434e-41
2.47873e-41
2.48302e-41
2.48719e-41
2.49122e-41
2.49512e-41
2.49886e-41
2.50242e-41
2.5058e-41
2.50898e-41
2.51195e-41
2.51468e-41
2.51717e-41
2.5194e-41
2.52135e-41
2.523e-41
2.52435e-41
2.52537e-41
2.52607e-41
2.5265e-41
2.52711e-41
2.53097e-41
2.55806e-41
2.73702e-41
3.8886e-41
1.11988e-40
5.70966e-40
3.42078e-39
2.0905e-38
1.26785e-37
7.58888e-37
4.47405e-36
2.59398e-35
1.47683e-34
8.24546e-34
4.51126e-33
2.42067e-32
1.27974e-31
6.7522e-31
3.65904e-30
1.92233e-29
1.02316e-28
5.40596e-28
2.8502e-27
1.49882e-26
7.85486e-26
4.09845e-25
2.12673e-24
1.09623e-23
5.60624e-23
2.84126e-22
1.42543e-21
7.07372e-21
3.47273e-20
1.68993e-19
8.19498e-19
4.0013e-18
2.00001e-17
1.0452e-16
5.81659e-16
3.46576e-15
2.18652e-14
1.43149e-13
9.90773e-13
7.64737e-12
6.71123e-11
5.80063e-10
4.85248e-09
4.05485e-08
3.37771e-07
2.75992e-06
2.03112e-05
0.000106045
0.000293269
0.000531901
0.000748311
0.000849038
0.000831614
0.000751348
0.000650446
0.000550563
0.000460874
0.000384254
0.000320658
0.000268821
0.000227084
0.000193776
0.000167377
0.000146572
0.000130254
0.000117512
0.000107602
9.99251e-05
9.40002e-05
8.94437e-05
8.59522e-05
8.32859e-05
8.12567e-05
7.97174e-05
7.85535e-05
7.76761e-05
7.70361e-05
7.65618e-05
7.62002e-05
7.59255e-05
7.57173e-05
7.556e-05
7.54415e-05
7.53523e-05
7.52853e-05
7.5235e-05
7.51973e-05
7.51689e-05
7.51474e-05
7.51311e-05
7.51186e-05
7.51089e-05
7.51012e-05
7.5095e-05
7.50899e-05
7.50856e-05
7.50818e-05
7.50784e-05
7.50753e-05
7.50724e-05
7.50696e-05
7.50669e-05
7.50642e-05
7.50616e-05
7.5059e-05
7.50564e-05
7.50538e-05
7.50512e-05
7.50486e-05
7.5046e-05
7.50434e-05
7.50408e-05
7.50382e-05
7.50355e-05
7.50329e-05
7.50303e-05
7.50277e-05
7.50251e-05
7.50225e-05
7.50199e-05
7.50173e-05
7.50147e-05
7.50122e-05
7.50097e-05
7.50071e-05
7.50046e-05
7.50022e-05
7.49997e-05
7.49973e-05
7.49949e-05
7.49925e-05
7.49901e-05
7.49876e-05
7.49852e-05
7.49827e-05
7.49801e-05
7.49774e-05
7.49746e-05
7.49718e-05
7.49691e-05
7.49673e-05
7.4966e-05
7.49648e-05
7.49637e-05
7.49625e-05
7.49612e-05
7.496e-05
7.49587e-05
7.49574e-05
7.49561e-05
7.49548e-05
7.49535e-05
7.49523e-05
7.49512e-05
7.495e-05
7.4949e-05
7.4948e-05
7.4947e-05
7.49461e-05
7.49453e-05
7.49445e-05
7.49438e-05
7.49432e-05
7.49426e-05
7.49421e-05
7.49416e-05
7.49412e-05
7.49409e-05
7.49406e-05
7.49404e-05
7.49402e-05
7.49401e-05
7.49401e-05
7.49401e-05
7.49402e-05
7.49404e-05
7.49406e-05
7.49409e-05
7.49412e-05
7.49415e-05
7.4942e-05
7.49424e-05
7.49429e-05
7.49435e-05
7.49441e-05
7.49447e-05
7.49454e-05
7.49462e-05
7.49469e-05
7.49478e-05
7.49486e-05
7.49496e-05
7.49505e-05
7.49515e-05
7.49525e-05
7.49536e-05
7.49546e-05
7.49558e-05
7.49569e-05
7.49581e-05
7.49593e-05
7.49605e-05
7.49618e-05
7.49631e-05
7.49644e-05
7.49657e-05
7.49671e-05
7.49684e-05
7.49698e-05
7.49712e-05
7.49727e-05
7.49741e-05
7.49755e-05
7.4977e-05
7.49785e-05
7.498e-05
7.49815e-05
7.4983e-05
7.49845e-05
7.4986e-05
7.49875e-05
7.4989e-05
7.49905e-05
7.49921e-05
7.49936e-05
7.49951e-05
7.49966e-05
7.49981e-05
7.49997e-05
7.50012e-05
7.50027e-05
7.50042e-05
7.50057e-05
7.50071e-05
7.50086e-05
7.50101e-05
7.50115e-05
7.50129e-05
7.50144e-05
7.50158e-05
7.50172e-05
7.50186e-05
7.502e-05
7.50214e-05
7.50227e-05
7.50241e-05
7.50254e-05
7.50267e-05
7.5028e-05
7.50293e-05
7.50306e-05
7.50318e-05
7.5033e-05
7.50342e-05
7.50354e-05
7.50366e-05
7.50377e-05
7.50389e-05
7.50399e-05
7.5041e-05
7.5042e-05
7.50429e-05
7.50437e-05
7.50442e-05
)
;

boundaryField
{
    boundary
    {
        type            empty;
    }
    inlet
    {
        type            fixedValue;
        value           uniform 0;
    }
    outlet
    {
        type            zeroGradient;
    }
}


// ************************************************************************* //
