/*--------------------------------*- C++ -*----------------------------------*\
  =========                 |
  \\      /  F ield         | OpenFOAM: The Open Source CFD Toolbox
   \\    /   O peration     | Website:  https://openfoam.org
    \\  /    A nd           | Version:  7
     \\/     M anipulation  |
\*---------------------------------------------------------------------------*/
FoamFile
{
    version     2.0;
    format      ascii;
    class       volScalarField;
    location    "1e-05";
    object      H2O;
}
// * * * * * * * * * * * * * * * * * * * * * * * * * * * * * * * * * * * * * //

dimensions      [0 0 0 0 0 0 0];

internalField   nonuniform List<scalar> 
500
(
2.31092e-48
3.88157e-48
4.49095e-48
4.68786e-48
4.74435e-48
4.7593e-48
4.76305e-48
4.76395e-48
4.76417e-48
4.76422e-48
4.76424e-48
4.76425e-48
4.76425e-48
4.76426e-48
4.76426e-48
4.76427e-48
4.76427e-48
4.76428e-48
4.76429e-48
4.76429e-48
4.7643e-48
4.76431e-48
4.76432e-48
4.76433e-48
4.76434e-48
4.76435e-48
4.76436e-48
4.76437e-48
4.76438e-48
4.76439e-48
4.76441e-48
4.76442e-48
4.76444e-48
4.76445e-48
4.76447e-48
4.76448e-48
4.7645e-48
4.76452e-48
4.76454e-48
4.76456e-48
4.76458e-48
4.7646e-48
4.76462e-48
4.76464e-48
4.76467e-48
4.76469e-48
4.76472e-48
4.76474e-48
4.76477e-48
4.7648e-48
4.76483e-48
4.76486e-48
4.7649e-48
4.76493e-48
4.76497e-48
4.765e-48
4.76504e-48
4.76508e-48
4.76512e-48
4.76517e-48
4.76521e-48
4.76526e-48
4.7653e-48
4.76535e-48
4.76541e-48
4.76546e-48
4.76552e-48
4.76557e-48
4.76564e-48
4.7657e-48
4.76576e-48
4.76583e-48
4.7659e-48
4.76597e-48
4.76605e-48
4.76613e-48
4.76621e-48
4.76629e-48
4.76638e-48
4.76647e-48
4.76656e-48
4.76666e-48
4.76676e-48
4.76687e-48
4.76698e-48
4.76709e-48
4.76721e-48
4.76733e-48
4.76745e-48
4.76758e-48
4.76772e-48
4.76786e-48
4.768e-48
4.76816e-48
4.76831e-48
4.76847e-48
4.76864e-48
4.76882e-48
4.769e-48
4.76918e-48
4.76938e-48
4.76958e-48
4.76978e-48
4.77e-48
4.77022e-48
4.77045e-48
4.77069e-48
4.77094e-48
4.7712e-48
4.77147e-48
4.77174e-48
4.77203e-48
4.77232e-48
4.77263e-48
4.77295e-48
4.77327e-48
4.77361e-48
4.77397e-48
4.77433e-48
4.7747e-48
4.77502e-48
4.77496e-48
4.7718e-48
4.74521e-48
4.56422e-48
4.21994e-48
4.51126e-48
4.67564e-48
4.74528e-48
4.76957e-48
4.77723e-48
4.77974e-48
4.78083e-48
4.78156e-48
4.78221e-48
4.78287e-48
4.78354e-48
4.78424e-48
4.78495e-48
4.78569e-48
4.78646e-48
4.78725e-48
4.78807e-48
4.78891e-48
4.78978e-48
4.79068e-48
4.79161e-48
4.79257e-48
4.79356e-48
4.79458e-48
4.79564e-48
4.79673e-48
4.79785e-48
4.79901e-48
4.8002e-48
4.80144e-48
4.80271e-48
4.80402e-48
4.80537e-48
4.80676e-48
4.80819e-48
4.80967e-48
4.81119e-48
4.81276e-48
4.81438e-48
4.81604e-48
4.81775e-48
4.81951e-48
4.82133e-48
4.82319e-48
4.82511e-48
4.82708e-48
4.82911e-48
4.83119e-48
4.83333e-48
4.83553e-48
4.83779e-48
4.84011e-48
4.84249e-48
4.84493e-48
4.84744e-48
4.85001e-48
4.85264e-48
4.85535e-48
4.85811e-48
4.86095e-48
4.86385e-48
4.86682e-48
4.86986e-48
4.87297e-48
4.87615e-48
4.8794e-48
4.88272e-48
4.88611e-48
4.88957e-48
4.8931e-48
4.8967e-48
4.90036e-48
4.9041e-48
4.9079e-48
4.91178e-48
4.91571e-48
4.91971e-48
4.92378e-48
4.92791e-48
4.93209e-48
4.93634e-48
4.94064e-48
4.94499e-48
4.94939e-48
4.95384e-48
4.95833e-48
4.96287e-48
4.96744e-48
4.97204e-48
4.97667e-48
4.98132e-48
4.986e-48
4.99068e-48
4.99537e-48
5.00007e-48
5.00476e-48
5.00944e-48
5.0141e-48
5.01874e-48
5.02334e-48
5.0279e-48
5.03242e-48
5.03687e-48
5.04127e-48
5.04559e-48
5.04987e-48
5.05429e-48
5.06031e-48
5.07813e-48
5.17907e-48
5.85968e-48
1.05632e-47
4.30692e-47
2.66884e-46
1.80102e-45
1.22656e-44
8.32771e-44
5.62555e-43
3.78014e-42
2.52823e-41
1.68611e-40
1.12499e-39
7.52787e-39
5.00758e-38
3.16568e-37
2.31685e-36
1.26826e-35
6.74111e-35
3.59662e-34
1.95612e-33
1.13014e-32
7.70784e-32
7.28409e-31
9.92369e-30
1.69309e-28
3.16718e-27
6.10757e-26
1.18491e-24
2.28622e-23
4.35567e-22
8.15375e-21
1.4935e-19
2.666e-18
4.61978e-17
7.74119e-16
1.24976e-14
1.93763e-13
2.87706e-12
4.07932e-11
5.5095e-10
7.07169e-09
8.60704e-08
9.91379e-07
1.07849e-05
0.000110146
0.00102152
0.00733107
0.0280638
0.0619338
0.101646
0.142055
0.174342
0.196109
0.210215
0.219535
0.225871
0.230266
0.233337
0.235481
0.236967
0.237988
0.238684
0.239155
0.239473
0.239689
0.239835
0.239935
0.240005
0.240054
0.24009
0.240116
0.240135
0.240149
0.24016
0.240168
0.240175
0.240179
0.240183
0.240185
0.240187
0.240189
0.24019
0.240191
0.240192
0.240192
0.240193
0.240193
0.240193
0.240193
0.240193
0.240193
0.240193
0.240193
0.240193
0.240193
0.240193
0.240193
0.240193
0.240193
0.240193
0.240193
0.240193
0.240193
0.240193
0.240193
0.240193
0.240193
0.240193
0.240193
0.240192
0.240192
0.240192
0.240192
0.240192
0.240192
0.240192
0.240192
0.240192
0.240192
0.240192
0.240192
0.240192
0.240192
0.240192
0.240192
0.240191
0.240191
0.240191
0.240191
0.240191
0.240191
0.240191
0.240191
0.240191
0.240191
0.240191
0.240191
0.240191
0.240191
0.240191
0.240191
0.240191
0.240191
0.240191
0.240191
0.240191
0.240191
0.24019
0.24019
0.24019
0.24019
0.24019
0.24019
0.24019
0.24019
0.24019
0.24019
0.24019
0.24019
0.24019
0.24019
0.24019
0.24019
0.24019
0.24019
0.24019
0.24019
0.24019
0.24019
0.24019
0.24019
0.24019
0.24019
0.24019
0.24019
0.24019
0.24019
0.24019
0.24019
0.24019
0.24019
0.24019
0.24019
0.24019
0.24019
0.24019
0.24019
0.24019
0.24019
0.24019
0.24019
0.24019
0.24019
0.24019
0.24019
0.24019
0.240191
0.240191
0.240191
0.240191
0.240191
0.240191
0.240191
0.240191
0.240191
0.240191
0.240191
0.240191
0.240191
0.240191
0.240191
0.240191
0.240191
0.240191
0.240191
0.240191
0.240191
0.240191
0.240191
0.240191
0.240191
0.240191
0.240191
0.240191
0.240192
0.240192
0.240192
0.240192
0.240192
0.240192
0.240192
0.240192
0.240192
0.240192
0.240192
0.240192
0.240192
0.240192
0.240192
0.240192
0.240192
0.240192
0.240192
0.240192
0.240192
0.240192
0.240192
0.240192
0.240192
0.240192
0.240192
0.240192
0.240193
0.240193
0.240193
0.240193
0.240193
0.240193
0.240193
0.240193
0.240193
0.240193
0.240193
0.240193
)
;

boundaryField
{
    boundary
    {
        type            empty;
    }
    inlet
    {
        type            fixedValue;
        value           uniform 0;
    }
    outlet
    {
        type            zeroGradient;
    }
}


// ************************************************************************* //
