/*--------------------------------*- C++ -*----------------------------------*\
  =========                 |
  \\      /  F ield         | OpenFOAM: The Open Source CFD Toolbox
   \\    /   O peration     | Website:  https://openfoam.org
    \\  /    A nd           | Version:  7
     \\/     M anipulation  |
\*---------------------------------------------------------------------------*/
FoamFile
{
    version     2.0;
    format      ascii;
    class       volScalarField;
    location    "1e-05";
    object      H2O2;
}
// * * * * * * * * * * * * * * * * * * * * * * * * * * * * * * * * * * * * * //

dimensions      [0 0 0 0 0 0 0];

internalField   nonuniform List<scalar> 
500
(
3.88587e-53
6.45827e-53
7.43085e-53
7.73461e-53
7.81831e-53
7.83946e-53
7.84449e-53
7.84564e-53
7.8459e-53
7.84596e-53
7.84598e-53
7.84599e-53
7.846e-53
7.84601e-53
7.84603e-53
7.84604e-53
7.84605e-53
7.84607e-53
7.84609e-53
7.8461e-53
7.84612e-53
7.84614e-53
7.84616e-53
7.84618e-53
7.8462e-53
7.84623e-53
7.84625e-53
7.84628e-53
7.84631e-53
7.84634e-53
7.84637e-53
7.8464e-53
7.84643e-53
7.84647e-53
7.8465e-53
7.84654e-53
7.84658e-53
7.84662e-53
7.84667e-53
7.84671e-53
7.84676e-53
7.84681e-53
7.84686e-53
7.84691e-53
7.84697e-53
7.84703e-53
7.84709e-53
7.84715e-53
7.84722e-53
7.84728e-53
7.84735e-53
7.84743e-53
7.8475e-53
7.84758e-53
7.84767e-53
7.84775e-53
7.84784e-53
7.84793e-53
7.84803e-53
7.84813e-53
7.84823e-53
7.84834e-53
7.84845e-53
7.84857e-53
7.84869e-53
7.84881e-53
7.84894e-53
7.84908e-53
7.84922e-53
7.84936e-53
7.84951e-53
7.84967e-53
7.84983e-53
7.85e-53
7.85017e-53
7.85035e-53
7.85054e-53
7.85074e-53
7.85094e-53
7.85115e-53
7.85137e-53
7.85159e-53
7.85183e-53
7.85207e-53
7.85232e-53
7.85258e-53
7.85285e-53
7.85313e-53
7.85342e-53
7.85372e-53
7.85404e-53
7.85436e-53
7.85469e-53
7.85504e-53
7.8554e-53
7.85578e-53
7.85616e-53
7.85657e-53
7.85698e-53
7.85741e-53
7.85786e-53
7.85832e-53
7.8588e-53
7.8593e-53
7.85981e-53
7.86035e-53
7.8609e-53
7.86147e-53
7.86206e-53
7.86267e-53
7.86331e-53
7.86397e-53
7.86465e-53
7.86535e-53
7.86608e-53
7.86684e-53
7.86762e-53
7.86843e-53
7.86927e-53
7.87013e-53
7.87098e-53
7.87161e-53
7.87017e-53
7.85339e-53
7.74478e-53
7.55597e-53
7.67571e-53
7.7813e-53
7.844e-53
7.86982e-53
7.87896e-53
7.88246e-53
7.88436e-53
7.88589e-53
7.88736e-53
7.88885e-53
7.89038e-53
7.89197e-53
7.89361e-53
7.8953e-53
7.89705e-53
7.89885e-53
7.90071e-53
7.90264e-53
7.90462e-53
7.90667e-53
7.90879e-53
7.91097e-53
7.91322e-53
7.91555e-53
7.91795e-53
7.92042e-53
7.92297e-53
7.9256e-53
7.92831e-53
7.9311e-53
7.93398e-53
7.93694e-53
7.94e-53
7.94315e-53
7.94639e-53
7.94973e-53
7.95316e-53
7.9567e-53
7.96034e-53
7.96408e-53
7.96793e-53
7.97189e-53
7.97596e-53
7.98015e-53
7.98445e-53
7.98886e-53
7.9934e-53
7.99806e-53
8.00285e-53
8.00776e-53
8.01279e-53
8.01796e-53
8.02326e-53
8.02869e-53
8.03426e-53
8.03996e-53
8.0458e-53
8.05178e-53
8.0579e-53
8.06416e-53
8.07056e-53
8.07711e-53
8.08379e-53
8.09062e-53
8.0976e-53
8.10471e-53
8.11197e-53
8.11937e-53
8.12691e-53
8.13459e-53
8.14241e-53
8.15036e-53
8.15845e-53
8.16667e-53
8.17502e-53
8.18349e-53
8.19208e-53
8.20079e-53
8.20961e-53
8.21854e-53
8.22757e-53
8.23669e-53
8.2459e-53
8.25519e-53
8.26455e-53
8.27397e-53
8.28345e-53
8.29297e-53
8.30253e-53
8.31211e-53
8.3217e-53
8.3313e-53
8.34087e-53
8.35042e-53
8.35993e-53
8.36937e-53
8.37875e-53
8.38803e-53
8.39721e-53
8.40626e-53
8.41517e-53
8.42392e-53
8.43249e-53
8.44086e-53
8.44901e-53
8.45694e-53
8.46475e-53
8.47338e-53
8.48931e-53
8.55813e-53
8.99692e-53
1.20025e-52
3.27319e-52
1.75301e-51
1.15155e-50
7.80395e-50
5.29e-49
3.56965e-48
2.39681e-47
1.60351e-46
1.07368e-45
7.26742e-45
5.04627e-44
3.59893e-43
2.4611e-42
1.54292e-41
8.39358e-41
4.45702e-40
2.38466e-39
1.33685e-38
9.03835e-38
9.75099e-37
1.74555e-35
3.90876e-34
9.17855e-33
2.14664e-31
4.93777e-30
1.11294e-28
2.45317e-27
5.28063e-26
1.10955e-24
2.27557e-23
4.55705e-22
8.92177e-21
1.71206e-19
3.23517e-18
6.06279e-17
1.13721e-15
2.15563e-14
4.15998e-13
8.18004e-12
1.62405e-10
3.18725e-09
5.94894e-08
9.75438e-07
1.12976e-05
4.53075e-05
3.80006e-05
1.81876e-05
7.52856e-06
3.78183e-06
2.71006e-06
2.11844e-06
1.56075e-06
1.11044e-06
7.96303e-07
5.91752e-07
4.61528e-07
3.78307e-07
3.24092e-07
2.87786e-07
2.62711e-07
2.44865e-07
2.31825e-07
2.22093e-07
2.14719e-07
2.09071e-07
2.04721e-07
2.01359e-07
1.9876e-07
1.96753e-07
1.95204e-07
1.94013e-07
1.93098e-07
1.92397e-07
1.91861e-07
1.91464e-07
1.91163e-07
1.90929e-07
1.90746e-07
1.90603e-07
1.9049e-07
1.904e-07
1.90327e-07
1.90267e-07
1.90218e-07
1.90175e-07
1.90138e-07
1.90106e-07
1.90076e-07
1.90048e-07
1.90022e-07
1.89996e-07
1.89972e-07
1.89948e-07
1.89925e-07
1.89901e-07
1.89878e-07
1.89855e-07
1.89832e-07
1.89809e-07
1.89786e-07
1.89763e-07
1.89741e-07
1.89718e-07
1.89696e-07
1.89673e-07
1.89651e-07
1.89628e-07
1.89606e-07
1.89584e-07
1.89563e-07
1.89541e-07
1.8952e-07
1.89499e-07
1.89478e-07
1.89458e-07
1.89438e-07
1.89418e-07
1.89399e-07
1.8938e-07
1.89361e-07
1.89343e-07
1.89325e-07
1.89308e-07
1.89291e-07
1.89274e-07
1.89258e-07
1.89243e-07
1.89227e-07
1.89213e-07
1.89199e-07
1.89185e-07
1.89172e-07
1.89159e-07
1.89147e-07
1.89135e-07
1.89123e-07
1.8911e-07
1.89096e-07
1.89088e-07
1.89084e-07
1.89077e-07
1.89069e-07
1.89062e-07
1.89055e-07
1.89049e-07
1.89043e-07
1.89038e-07
1.89033e-07
1.89029e-07
1.89025e-07
1.89022e-07
1.89019e-07
1.89017e-07
1.89015e-07
1.89014e-07
1.89013e-07
1.89013e-07
1.89014e-07
1.89014e-07
1.89016e-07
1.89017e-07
1.8902e-07
1.89022e-07
1.89025e-07
1.89029e-07
1.89032e-07
1.89036e-07
1.89041e-07
1.89045e-07
1.8905e-07
1.89056e-07
1.89062e-07
1.89068e-07
1.89074e-07
1.8908e-07
1.89087e-07
1.89094e-07
1.89101e-07
1.89109e-07
1.89116e-07
1.89124e-07
1.89132e-07
1.89141e-07
1.89149e-07
1.89158e-07
1.89166e-07
1.89175e-07
1.89184e-07
1.89193e-07
1.89202e-07
1.89211e-07
1.8922e-07
1.8923e-07
1.89239e-07
1.89248e-07
1.89257e-07
1.89267e-07
1.89276e-07
1.89285e-07
1.89295e-07
1.89304e-07
1.89313e-07
1.89322e-07
1.89332e-07
1.89341e-07
1.8935e-07
1.89358e-07
1.89367e-07
1.89376e-07
1.89385e-07
1.89393e-07
1.89401e-07
1.8941e-07
1.89418e-07
1.89426e-07
1.89434e-07
1.89442e-07
1.89449e-07
1.89457e-07
1.89464e-07
1.89471e-07
1.89478e-07
1.89485e-07
1.89492e-07
1.89498e-07
1.89505e-07
1.89511e-07
1.89517e-07
1.89523e-07
1.89529e-07
1.89534e-07
1.8954e-07
1.89545e-07
1.8955e-07
1.89555e-07
1.8956e-07
1.89565e-07
1.89569e-07
1.89573e-07
1.89578e-07
1.89582e-07
1.89585e-07
1.89589e-07
1.89593e-07
1.89596e-07
1.89599e-07
1.89602e-07
1.89605e-07
1.89608e-07
1.8961e-07
1.89613e-07
1.89615e-07
1.89618e-07
1.8962e-07
1.89622e-07
1.89624e-07
1.89625e-07
1.89627e-07
1.89628e-07
1.89629e-07
1.8963e-07
1.89629e-07
)
;

boundaryField
{
    boundary
    {
        type            empty;
    }
    inlet
    {
        type            fixedValue;
        value           uniform 0;
    }
    outlet
    {
        type            zeroGradient;
    }
}


// ************************************************************************* //
