/*--------------------------------*- C++ -*----------------------------------*\
  =========                 |
  \\      /  F ield         | OpenFOAM: The Open Source CFD Toolbox
   \\    /   O peration     | Website:  https://openfoam.org
    \\  /    A nd           | Version:  7
     \\/     M anipulation  |
\*---------------------------------------------------------------------------*/
FoamFile
{
    version     2.0;
    format      ascii;
    class       volScalarField;
    location    "1e-05";
    object      HO2;
}
// * * * * * * * * * * * * * * * * * * * * * * * * * * * * * * * * * * * * * //

dimensions      [0 0 0 0 0 0 0];

internalField   nonuniform List<scalar> 
500
(
2.83416e-38
4.31414e-38
4.81121e-38
4.95622e-38
4.9946e-38
5.00408e-38
5.00632e-38
5.00683e-38
5.00695e-38
5.00698e-38
5.00699e-38
5.007e-38
5.00701e-38
5.00701e-38
5.00702e-38
5.00703e-38
5.00703e-38
5.00704e-38
5.00705e-38
5.00706e-38
5.00707e-38
5.00708e-38
5.00709e-38
5.0071e-38
5.00712e-38
5.00713e-38
5.00714e-38
5.00716e-38
5.00717e-38
5.00719e-38
5.00721e-38
5.00722e-38
5.00724e-38
5.00726e-38
5.00728e-38
5.0073e-38
5.00733e-38
5.00735e-38
5.00737e-38
5.0074e-38
5.00742e-38
5.00745e-38
5.00748e-38
5.00751e-38
5.00754e-38
5.00757e-38
5.0076e-38
5.00764e-38
5.00767e-38
5.00771e-38
5.00775e-38
5.00779e-38
5.00783e-38
5.00788e-38
5.00792e-38
5.00797e-38
5.00802e-38
5.00807e-38
5.00812e-38
5.00818e-38
5.00823e-38
5.00829e-38
5.00835e-38
5.00842e-38
5.00849e-38
5.00855e-38
5.00863e-38
5.0087e-38
5.00878e-38
5.00886e-38
5.00894e-38
5.00903e-38
5.00912e-38
5.00921e-38
5.0093e-38
5.0094e-38
5.00951e-38
5.00961e-38
5.00973e-38
5.00984e-38
5.00996e-38
5.01009e-38
5.01021e-38
5.01035e-38
5.01049e-38
5.01063e-38
5.01078e-38
5.01093e-38
5.0111e-38
5.01126e-38
5.01143e-38
5.01161e-38
5.0118e-38
5.01199e-38
5.01219e-38
5.01239e-38
5.01261e-38
5.01283e-38
5.01306e-38
5.0133e-38
5.01354e-38
5.0138e-38
5.01406e-38
5.01433e-38
5.01462e-38
5.01491e-38
5.01522e-38
5.01553e-38
5.01586e-38
5.0162e-38
5.01655e-38
5.01691e-38
5.01728e-38
5.01767e-38
5.01807e-38
5.01849e-38
5.01892e-38
5.01937e-38
5.01983e-38
5.0203e-38
5.02077e-38
5.02111e-38
5.02044e-38
5.01257e-38
4.95192e-38
4.83519e-38
4.93617e-38
4.98579e-38
5.01132e-38
5.02174e-38
5.02559e-38
5.0272e-38
5.02817e-38
5.029e-38
5.0298e-38
5.03063e-38
5.03147e-38
5.03235e-38
5.03325e-38
5.03418e-38
5.03514e-38
5.03614e-38
5.03717e-38
5.03823e-38
5.03932e-38
5.04045e-38
5.04161e-38
5.04282e-38
5.04406e-38
5.04534e-38
5.04666e-38
5.04802e-38
5.04942e-38
5.05087e-38
5.05236e-38
5.0539e-38
5.05548e-38
5.05711e-38
5.0588e-38
5.06053e-38
5.06231e-38
5.06414e-38
5.06603e-38
5.06798e-38
5.06997e-38
5.07203e-38
5.07415e-38
5.07632e-38
5.07856e-38
5.08085e-38
5.08321e-38
5.08564e-38
5.08812e-38
5.09068e-38
5.0933e-38
5.09599e-38
5.09875e-38
5.10158e-38
5.10448e-38
5.10745e-38
5.1105e-38
5.11361e-38
5.11681e-38
5.12007e-38
5.12341e-38
5.12683e-38
5.13032e-38
5.13389e-38
5.13753e-38
5.14125e-38
5.14504e-38
5.14891e-38
5.15286e-38
5.15688e-38
5.16097e-38
5.16514e-38
5.16937e-38
5.17368e-38
5.17806e-38
5.1825e-38
5.18701e-38
5.19158e-38
5.19621e-38
5.2009e-38
5.20565e-38
5.21044e-38
5.21529e-38
5.22018e-38
5.22511e-38
5.23008e-38
5.23507e-38
5.2401e-38
5.24514e-38
5.2502e-38
5.25527e-38
5.26035e-38
5.26542e-38
5.27047e-38
5.27551e-38
5.28053e-38
5.2855e-38
5.29044e-38
5.29532e-38
5.30014e-38
5.30489e-38
5.30956e-38
5.31414e-38
5.31861e-38
5.32298e-38
5.32722e-38
5.33133e-38
5.33533e-38
5.33941e-38
5.34498e-38
5.3619e-38
5.45785e-38
6.09586e-38
1.04271e-37
3.97851e-37
2.37798e-36
1.56571e-35
1.04159e-34
6.90114e-34
4.54259e-33
2.96914e-32
1.92788e-31
1.2461e-30
8.06004e-30
5.25919e-29
3.45923e-28
2.19033e-27
1.32625e-26
7.18729e-26
3.81126e-25
2.01695e-24
1.06721e-23
5.64759e-23
2.99026e-22
1.58512e-21
8.41262e-21
4.45813e-20
2.35825e-19
1.24515e-18
6.56315e-18
3.45414e-17
1.81135e-16
9.45651e-16
4.91394e-15
2.54464e-14
1.32024e-13
6.96139e-13
3.82784e-12
2.24831e-11
1.40211e-10
9.00099e-10
5.77534e-09
3.67391e-08
2.34529e-07
1.51593e-06
9.66583e-06
5.68897e-05
0.000256419
0.000545911
0.000480833
0.000316195
0.000170984
8.58117e-05
4.18569e-05
2.07086e-05
1.07436e-05
6.02581e-06
3.7629e-06
2.66152e-06
2.11949e-06
1.85278e-06
1.72469e-06
1.66747e-06
1.64644e-06
1.64331e-06
1.64838e-06
1.6565e-06
1.6651e-06
1.67298e-06
1.67969e-06
1.68517e-06
1.6895e-06
1.69288e-06
1.69547e-06
1.69745e-06
1.69896e-06
1.7001e-06
1.70097e-06
1.70163e-06
1.70213e-06
1.70253e-06
1.70286e-06
1.70314e-06
1.70338e-06
1.70359e-06
1.70378e-06
1.70396e-06
1.70414e-06
1.7043e-06
1.70446e-06
1.70463e-06
1.70479e-06
1.70495e-06
1.70512e-06
1.70529e-06
1.70546e-06
1.70563e-06
1.70581e-06
1.70599e-06
1.70617e-06
1.70635e-06
1.70654e-06
1.70673e-06
1.70693e-06
1.70712e-06
1.70732e-06
1.70752e-06
1.70772e-06
1.70792e-06
1.70813e-06
1.70834e-06
1.70854e-06
1.70875e-06
1.70896e-06
1.70917e-06
1.70939e-06
1.7096e-06
1.70981e-06
1.71002e-06
1.71024e-06
1.71045e-06
1.71066e-06
1.71087e-06
1.71108e-06
1.71129e-06
1.7115e-06
1.7117e-06
1.71191e-06
1.71211e-06
1.7123e-06
1.7125e-06
1.7127e-06
1.71289e-06
1.71309e-06
1.71329e-06
1.71347e-06
1.71366e-06
1.71385e-06
1.71404e-06
1.71427e-06
1.7146e-06
1.71527e-06
1.71572e-06
1.71526e-06
1.71516e-06
1.71521e-06
1.71532e-06
1.71545e-06
1.71557e-06
1.7157e-06
1.71583e-06
1.71596e-06
1.71609e-06
1.7162e-06
1.71631e-06
1.71641e-06
1.71651e-06
1.71661e-06
1.7167e-06
1.71679e-06
1.71687e-06
1.71695e-06
1.71701e-06
1.71708e-06
1.71714e-06
1.71719e-06
1.71724e-06
1.71728e-06
1.71732e-06
1.71736e-06
1.71739e-06
1.71741e-06
1.71742e-06
1.71743e-06
1.71744e-06
1.71744e-06
1.71744e-06
1.71742e-06
1.7174e-06
1.71738e-06
1.71736e-06
1.71733e-06
1.71729e-06
1.71726e-06
1.71721e-06
1.71717e-06
1.71712e-06
1.71707e-06
1.71701e-06
1.71694e-06
1.71688e-06
1.7168e-06
1.71673e-06
1.71665e-06
1.71657e-06
1.71648e-06
1.71639e-06
1.7163e-06
1.71621e-06
1.71611e-06
1.71601e-06
1.7159e-06
1.7158e-06
1.7157e-06
1.71558e-06
1.71547e-06
1.71535e-06
1.71523e-06
1.71511e-06
1.71499e-06
1.71487e-06
1.71474e-06
1.71461e-06
1.71448e-06
1.71435e-06
1.71422e-06
1.71408e-06
1.71395e-06
1.71381e-06
1.71367e-06
1.71353e-06
1.71339e-06
1.71325e-06
1.71311e-06
1.71297e-06
1.71283e-06
1.71269e-06
1.71254e-06
1.7124e-06
1.71226e-06
1.71212e-06
1.71198e-06
1.71184e-06
1.7117e-06
1.71156e-06
1.71142e-06
1.71129e-06
1.71115e-06
1.71101e-06
1.71088e-06
1.71074e-06
1.71061e-06
1.71047e-06
1.71034e-06
1.7102e-06
1.71007e-06
1.70994e-06
1.70981e-06
1.70969e-06
1.70956e-06
1.70944e-06
1.70931e-06
1.70919e-06
1.70907e-06
1.70895e-06
1.70884e-06
1.70872e-06
1.70861e-06
1.70849e-06
1.70838e-06
1.70828e-06
1.70819e-06
1.70808e-06
1.70798e-06
1.70789e-06
1.70782e-06
)
;

boundaryField
{
    boundary
    {
        type            empty;
    }
    inlet
    {
        type            fixedValue;
        value           uniform 0;
    }
    outlet
    {
        type            zeroGradient;
    }
}


// ************************************************************************* //
