/*--------------------------------*- C++ -*----------------------------------*\
  =========                 |
  \\      /  F ield         | OpenFOAM: The Open Source CFD Toolbox
   \\    /   O peration     | Website:  https://openfoam.org
    \\  /    A nd           | Version:  7
     \\/     M anipulation  |
\*---------------------------------------------------------------------------*/
FoamFile
{
    version     2.0;
    format      ascii;
    class       volScalarField;
    location    "1e-05";
    object      O;
}
// * * * * * * * * * * * * * * * * * * * * * * * * * * * * * * * * * * * * * //

dimensions      [0 0 0 0 0 0 0];

internalField   nonuniform List<scalar> 
500
(
7.96922e-48
1.28537e-47
1.46524e-47
1.5229e-47
1.53969e-47
1.54425e-47
1.54544e-47
1.54574e-47
1.54581e-47
1.54583e-47
1.54584e-47
1.54584e-47
1.54584e-47
1.54584e-47
1.54585e-47
1.54585e-47
1.54585e-47
1.54585e-47
1.54586e-47
1.54586e-47
1.54586e-47
1.54587e-47
1.54587e-47
1.54588e-47
1.54588e-47
1.54589e-47
1.54589e-47
1.5459e-47
1.5459e-47
1.54591e-47
1.54591e-47
1.54592e-47
1.54593e-47
1.54593e-47
1.54594e-47
1.54595e-47
1.54596e-47
1.54597e-47
1.54597e-47
1.54598e-47
1.54599e-47
1.546e-47
1.54601e-47
1.54602e-47
1.54603e-47
1.54605e-47
1.54606e-47
1.54607e-47
1.54608e-47
1.5461e-47
1.54611e-47
1.54613e-47
1.54614e-47
1.54616e-47
1.54617e-47
1.54619e-47
1.54621e-47
1.54623e-47
1.54625e-47
1.54627e-47
1.54629e-47
1.54631e-47
1.54633e-47
1.54636e-47
1.54638e-47
1.54641e-47
1.54643e-47
1.54646e-47
1.54649e-47
1.54652e-47
1.54655e-47
1.54658e-47
1.54661e-47
1.54665e-47
1.54668e-47
1.54672e-47
1.54675e-47
1.54679e-47
1.54684e-47
1.54688e-47
1.54692e-47
1.54697e-47
1.54701e-47
1.54706e-47
1.54711e-47
1.54717e-47
1.54722e-47
1.54728e-47
1.54734e-47
1.5474e-47
1.54746e-47
1.54753e-47
1.54759e-47
1.54766e-47
1.54774e-47
1.54781e-47
1.54789e-47
1.54797e-47
1.54806e-47
1.54814e-47
1.54823e-47
1.54833e-47
1.54843e-47
1.54853e-47
1.54863e-47
1.54874e-47
1.54885e-47
1.54897e-47
1.54909e-47
1.54921e-47
1.54934e-47
1.54947e-47
1.54961e-47
1.54975e-47
1.5499e-47
1.55006e-47
1.55021e-47
1.55038e-47
1.55055e-47
1.55072e-47
1.55087e-47
1.55087e-47
1.54988e-47
1.54369e-47
1.51956e-47
1.49185e-47
1.50843e-47
1.53167e-47
1.54487e-47
1.55037e-47
1.55239e-47
1.55319e-47
1.55361e-47
1.55393e-47
1.55423e-47
1.55454e-47
1.55485e-47
1.55518e-47
1.55551e-47
1.55586e-47
1.55621e-47
1.55658e-47
1.55696e-47
1.55736e-47
1.55777e-47
1.55819e-47
1.55862e-47
1.55907e-47
1.55953e-47
1.56e-47
1.5605e-47
1.561e-47
1.56153e-47
1.56207e-47
1.56262e-47
1.5632e-47
1.56379e-47
1.5644e-47
1.56503e-47
1.56568e-47
1.56634e-47
1.56703e-47
1.56774e-47
1.56847e-47
1.56922e-47
1.56999e-47
1.57078e-47
1.5716e-47
1.57244e-47
1.57331e-47
1.5742e-47
1.57511e-47
1.57605e-47
1.57701e-47
1.578e-47
1.57902e-47
1.58006e-47
1.58113e-47
1.58223e-47
1.58335e-47
1.58451e-47
1.58569e-47
1.5869e-47
1.58814e-47
1.58941e-47
1.59071e-47
1.59204e-47
1.5934e-47
1.59479e-47
1.59621e-47
1.59766e-47
1.59914e-47
1.60065e-47
1.60219e-47
1.60376e-47
1.60536e-47
1.60698e-47
1.60864e-47
1.61032e-47
1.61203e-47
1.61377e-47
1.61553e-47
1.61732e-47
1.61913e-47
1.62097e-47
1.62282e-47
1.6247e-47
1.6266e-47
1.62851e-47
1.63044e-47
1.63238e-47
1.63434e-47
1.6363e-47
1.63827e-47
1.64025e-47
1.64223e-47
1.64421e-47
1.64619e-47
1.64817e-47
1.65013e-47
1.65208e-47
1.65402e-47
1.65594e-47
1.65783e-47
1.6597e-47
1.66154e-47
1.66335e-47
1.66511e-47
1.66683e-47
1.66851e-47
1.67014e-47
1.67174e-47
1.67348e-47
1.67655e-47
1.68922e-47
1.76849e-47
2.30544e-47
5.97021e-47
3.09024e-46
1.99677e-45
1.33588e-44
8.94011e-44
5.95215e-43
3.93905e-42
2.59185e-41
1.6978e-40
1.11022e-39
7.27592e-39
4.7872e-38
3.13148e-37
1.9776e-36
1.14741e-35
6.17949e-35
3.27739e-34
1.73788e-33
9.25274e-33
4.98717e-32
2.78239e-31
1.69583e-30
1.24406e-29
1.19459e-28
1.458e-27
2.03101e-26
2.9702e-25
4.37792e-24
6.39193e-23
9.17433e-22
1.28892e-20
1.76668e-19
2.35531e-18
3.045e-17
3.80609e-16
4.58601e-15
5.31014e-14
5.88634e-13
6.21539e-12
6.20702e-11
5.80011e-10
4.98566e-09
3.83291e-08
2.52909e-07
1.45058e-06
1.02569e-05
8.03316e-05
0.000378731
0.00109178
0.00176606
0.00200433
0.00189581
0.00164282
0.00137348
0.00114108
0.000957825
0.000819208
0.000716067
0.000639478
0.000582248
0.00053904
0.000506053
0.000480622
0.00046087
0.000445462
0.000433417
0.000424005
0.000416663
0.000410953
0.000406528
0.000403112
0.000400486
0.000398476
0.000396943
0.00039578
0.000394925
0.000394287
0.000393798
0.000393425
0.00039314
0.000392924
0.00039276
0.000392635
0.00039254
0.000392468
0.000392413
0.00039237
0.000392336
0.00039231
0.000392288
0.00039227
0.000392255
0.000392241
0.000392229
0.000392218
0.000392207
0.000392197
0.000392187
0.000392177
0.000392167
0.000392157
0.000392147
0.000392138
0.000392128
0.000392117
0.000392107
0.000392097
0.000392086
0.000392076
0.000392065
0.000392055
0.000392044
0.000392033
0.000392023
0.000392012
0.000392001
0.00039199
0.000391979
0.000391968
0.000391958
0.000391947
0.000391936
0.000391925
0.000391915
0.000391904
0.000391893
0.000391883
0.000391873
0.000391862
0.000391852
0.000391842
0.000391832
0.000391822
0.000391812
0.000391802
0.000391792
0.000391781
0.00039177
0.000391755
0.00039176
0.000391752
0.000391743
0.000391734
0.000391726
0.000391717
0.00039171
0.000391702
0.000391695
0.000391688
0.000391681
0.000391675
0.000391668
0.000391662
0.000391657
0.000391651
0.000391646
0.000391641
0.000391636
0.000391631
0.000391627
0.000391623
0.00039162
0.000391616
0.000391613
0.00039161
0.000391607
0.000391605
0.000391602
0.0003916
0.000391599
0.000391597
0.000391596
0.000391595
0.000391594
0.000391594
0.000391593
0.000391593
0.000391593
0.000391594
0.000391594
0.000391595
0.000391596
0.000391597
0.000391599
0.0003916
0.000391602
0.000391604
0.000391606
0.000391609
0.000391611
0.000391614
0.000391617
0.00039162
0.000391623
0.000391627
0.00039163
0.000391634
0.000391637
0.000391641
0.000391645
0.00039165
0.000391654
0.000391658
0.000391663
0.000391667
0.000391672
0.000391677
0.000391682
0.000391687
0.000391692
0.000391697
0.000391702
0.000391707
0.000391712
0.000391718
0.000391723
0.000391729
0.000391734
0.00039174
0.000391745
0.000391751
0.000391756
0.000391762
0.000391768
0.000391773
0.000391779
0.000391785
0.00039179
0.000391796
0.000391801
0.000391807
0.000391813
0.000391818
0.000391824
0.000391829
0.000391835
0.00039184
0.000391845
0.000391851
0.000391856
0.000391862
0.000391867
0.000391872
0.000391877
0.000391882
0.000391887
0.000391892
0.000391897
0.000391902
0.000391907
0.000391912
0.000391917
0.000391921
0.000391926
0.00039193
0.000391935
0.000391939
0.000391943
0.000391947
0.000391951
0.000391955
0.000391959
0.000391961
)
;

boundaryField
{
    boundary
    {
        type            empty;
    }
    inlet
    {
        type            fixedValue;
        value           uniform 0;
    }
    outlet
    {
        type            zeroGradient;
    }
}


// ************************************************************************* //
