/*--------------------------------*- C++ -*----------------------------------*\
  =========                 |
  \\      /  F ield         | OpenFOAM: The Open Source CFD Toolbox
   \\    /   O peration     | Website:  https://openfoam.org
    \\  /    A nd           | Version:  7
     \\/     M anipulation  |
\*---------------------------------------------------------------------------*/
FoamFile
{
    version     2.0;
    format      ascii;
    class       volScalarField;
    location    "1e-05";
    object      O2;
}
// * * * * * * * * * * * * * * * * * * * * * * * * * * * * * * * * * * * * * //

dimensions      [0 0 0 0 0 0 0];

internalField   nonuniform List<scalar> 
500
(
0.226269
0.226269
0.226269
0.226269
0.226269
0.226269
0.226269
0.226269
0.226269
0.226269
0.226269
0.226269
0.226269
0.226269
0.226269
0.226269
0.226269
0.226269
0.226269
0.226269
0.226269
0.226269
0.226269
0.226269
0.226269
0.226269
0.226269
0.226269
0.226269
0.226269
0.226269
0.226269
0.226269
0.226269
0.226269
0.226269
0.226269
0.226269
0.226269
0.226269
0.226269
0.226269
0.226269
0.226269
0.226269
0.226269
0.226269
0.226269
0.226269
0.226269
0.226269
0.226269
0.226269
0.226269
0.226269
0.226269
0.226269
0.226269
0.226269
0.226269
0.226269
0.226269
0.226269
0.226269
0.226269
0.226269
0.226269
0.226269
0.226269
0.226269
0.226269
0.226269
0.226269
0.226269
0.226269
0.226269
0.226269
0.226269
0.226269
0.226269
0.226269
0.226269
0.226269
0.226269
0.226269
0.226269
0.226269
0.226269
0.226269
0.226269
0.226269
0.226269
0.226269
0.226269
0.226269
0.226269
0.226269
0.226269
0.226269
0.226269
0.226269
0.226269
0.226269
0.226269
0.226269
0.226269
0.226269
0.226269
0.226269
0.226269
0.226269
0.226269
0.226269
0.226269
0.226269
0.226269
0.226269
0.226269
0.226269
0.226269
0.226269
0.226269
0.226269
0.226269
0.226269
0.226269
0.226269
0.226269
0.226269
0.226269
0.226269
0.226269
0.226269
0.226269
0.226269
0.226269
0.226269
0.226269
0.226269
0.226269
0.226269
0.226269
0.226269
0.226269
0.226269
0.226269
0.226269
0.226269
0.226269
0.226269
0.226269
0.226269
0.226269
0.226269
0.226269
0.226269
0.226269
0.226269
0.226269
0.226269
0.226269
0.226269
0.226269
0.226269
0.226269
0.226269
0.226269
0.226269
0.226269
0.226269
0.226269
0.226269
0.226269
0.226269
0.226269
0.226269
0.226269
0.226269
0.226269
0.226269
0.226269
0.226269
0.226269
0.226269
0.226269
0.226269
0.226269
0.226269
0.226269
0.226269
0.226269
0.226269
0.226269
0.226269
0.226269
0.226269
0.226269
0.226269
0.226269
0.226269
0.226269
0.226269
0.226269
0.226269
0.226269
0.226269
0.226269
0.226269
0.226269
0.226269
0.226269
0.226269
0.226269
0.226269
0.226269
0.226269
0.226269
0.226269
0.226269
0.226269
0.226269
0.226269
0.226269
0.226269
0.226269
0.226269
0.226269
0.226269
0.226269
0.226269
0.226269
0.226269
0.226269
0.226269
0.226269
0.226269
0.226269
0.226269
0.226269
0.226269
0.226269
0.226269
0.226269
0.226269
0.226269
0.226269
0.226269
0.226269
0.226269
0.226269
0.226269
0.226269
0.226269
0.226269
0.226269
0.226269
0.226269
0.226269
0.226269
0.226269
0.226269
0.226269
0.226269
0.226269
0.226269
0.226269
0.226269
0.226269
0.226269
0.226269
0.226269
0.226269
0.226269
0.226269
0.226269
0.226269
0.226269
0.226269
0.226268
0.226259
0.226167
0.225377
0.220401
0.203226
0.172915
0.135196
0.0947712
0.0618162
0.0400118
0.0267224
0.0187485
0.0139322
0.0110012
0.00922046
0.00815584
0.00754092
0.00720664
0.00704369
0.00698133
0.00697446
0.00699521
0.00702707
0.00706087
0.00709203
0.00711863
0.00714026
0.00715728
0.00717034
0.00718017
0.00718747
0.00719282
0.0071967
0.00719942
0.00720135
0.00720275
0.00720376
0.00720448
0.00720499
0.00720535
0.0072056
0.00720577
0.00720589
0.00720596
0.00720601
0.00720603
0.00720604
0.00720605
0.00720604
0.00720603
0.00720602
0.007206
0.00720598
0.00720596
0.00720594
0.00720592
0.0072059
0.00720588
0.00720586
0.00720585
0.00720583
0.00720581
0.00720579
0.00720577
0.00720575
0.00720574
0.00720572
0.0072057
0.00720569
0.00720567
0.00720566
0.00720564
0.00720563
0.00720561
0.0072056
0.00720559
0.00720557
0.00720556
0.00720555
0.00720554
0.00720553
0.00720552
0.00720551
0.0072055
0.0072055
0.00720549
0.00720548
0.00720548
0.00720547
0.00720547
0.00720547
0.00720547
0.00720547
0.0072055
0.00720555
0.00720567
0.0072059
0.00720599
0.0072058
0.00720566
0.00720557
0.00720552
0.00720549
0.00720547
0.00720546
0.00720546
0.00720546
0.00720547
0.00720547
0.00720548
0.00720548
0.00720549
0.00720549
0.0072055
0.00720551
0.00720552
0.00720553
0.00720554
0.00720555
0.00720556
0.00720557
0.00720558
0.00720559
0.0072056
0.00720561
0.00720563
0.00720564
0.00720565
0.00720567
0.00720568
0.00720569
0.00720571
0.00720572
0.00720574
0.00720575
0.00720577
0.00720578
0.0072058
0.00720582
0.00720583
0.00720585
0.00720587
0.00720588
0.0072059
0.00720592
0.00720594
0.00720595
0.00720597
0.00720599
0.00720601
0.00720603
0.00720605
0.00720606
0.00720608
0.0072061
0.00720612
0.00720614
0.00720616
0.00720617
0.00720619
0.00720621
0.00720623
0.00720625
0.00720627
0.00720628
0.0072063
0.00720632
0.00720634
0.00720636
0.00720638
0.00720639
0.00720641
0.00720643
0.00720645
0.00720646
0.00720648
0.0072065
0.00720652
0.00720653
0.00720655
0.00720657
0.00720658
0.0072066
0.00720662
0.00720663
0.00720665
0.00720666
0.00720668
0.00720669
0.00720671
0.00720672
0.00720674
0.00720675
0.00720677
0.00720678
0.0072068
0.00720681
0.00720682
0.00720684
0.00720685
0.00720686
0.00720688
0.00720689
0.0072069
0.00720691
0.00720692
0.00720694
0.00720695
0.00720696
0.00720697
0.00720698
0.00720699
0.007207
0.00720701
0.00720702
0.00720703
0.00720704
0.00720705
0.00720706
0.00720707
0.00720707
)
;

boundaryField
{
    boundary
    {
        type            empty;
    }
    inlet
    {
        type            fixedValue;
        value           uniform 0.226269;
    }
    outlet
    {
        type            zeroGradient;
    }
}


// ************************************************************************* //
