/*--------------------------------*- C++ -*----------------------------------*\
  =========                 |
  \\      /  F ield         | OpenFOAM: The Open Source CFD Toolbox
   \\    /   O peration     | Website:  https://openfoam.org
    \\  /    A nd           | Version:  7
     \\/     M anipulation  |
\*---------------------------------------------------------------------------*/
FoamFile
{
    version     2.0;
    format      ascii;
    class       volScalarField;
    location    "1e-05";
    object      OH;
}
// * * * * * * * * * * * * * * * * * * * * * * * * * * * * * * * * * * * * * //

dimensions      [0 0 0 0 0 0 0];

internalField   nonuniform List<scalar> 
500
(
6.4412e-48
1.01072e-47
1.13976e-47
1.17989e-47
1.19135e-47
1.19442e-47
1.19521e-47
1.19541e-47
1.19546e-47
1.19548e-47
1.19548e-47
1.19548e-47
1.19548e-47
1.19549e-47
1.19549e-47
1.19549e-47
1.19549e-47
1.1955e-47
1.1955e-47
1.1955e-47
1.1955e-47
1.19551e-47
1.19551e-47
1.19552e-47
1.19552e-47
1.19552e-47
1.19553e-47
1.19553e-47
1.19554e-47
1.19554e-47
1.19555e-47
1.19555e-47
1.19556e-47
1.19556e-47
1.19557e-47
1.19558e-47
1.19558e-47
1.19559e-47
1.1956e-47
1.19561e-47
1.19562e-47
1.19562e-47
1.19563e-47
1.19564e-47
1.19565e-47
1.19566e-47
1.19567e-47
1.19568e-47
1.19569e-47
1.19571e-47
1.19572e-47
1.19573e-47
1.19574e-47
1.19576e-47
1.19577e-47
1.19579e-47
1.1958e-47
1.19582e-47
1.19584e-47
1.19585e-47
1.19587e-47
1.19589e-47
1.19591e-47
1.19593e-47
1.19595e-47
1.19597e-47
1.19599e-47
1.19602e-47
1.19604e-47
1.19607e-47
1.19609e-47
1.19612e-47
1.19615e-47
1.19618e-47
1.19621e-47
1.19624e-47
1.19627e-47
1.19631e-47
1.19634e-47
1.19638e-47
1.19642e-47
1.19645e-47
1.1965e-47
1.19654e-47
1.19658e-47
1.19663e-47
1.19667e-47
1.19672e-47
1.19677e-47
1.19683e-47
1.19688e-47
1.19694e-47
1.197e-47
1.19706e-47
1.19712e-47
1.19718e-47
1.19725e-47
1.19732e-47
1.19739e-47
1.19747e-47
1.19755e-47
1.19763e-47
1.19771e-47
1.1978e-47
1.19789e-47
1.19798e-47
1.19808e-47
1.19818e-47
1.19828e-47
1.19839e-47
1.1985e-47
1.19861e-47
1.19873e-47
1.19886e-47
1.19898e-47
1.19912e-47
1.19925e-47
1.19939e-47
1.19954e-47
1.19969e-47
1.19983e-47
1.19986e-47
1.19926e-47
1.19548e-47
1.17933e-47
1.16055e-47
1.17467e-47
1.18827e-47
1.19643e-47
1.19995e-47
1.20129e-47
1.20186e-47
1.20219e-47
1.20246e-47
1.20272e-47
1.20298e-47
1.20325e-47
1.20353e-47
1.20382e-47
1.20412e-47
1.20442e-47
1.20474e-47
1.20507e-47
1.20541e-47
1.20576e-47
1.20612e-47
1.2065e-47
1.20688e-47
1.20728e-47
1.20769e-47
1.20811e-47
1.20855e-47
1.209e-47
1.20947e-47
1.20995e-47
1.21044e-47
1.21095e-47
1.21148e-47
1.21202e-47
1.21258e-47
1.21315e-47
1.21374e-47
1.21435e-47
1.21498e-47
1.21562e-47
1.21629e-47
1.21697e-47
1.21768e-47
1.2184e-47
1.21914e-47
1.21991e-47
1.22069e-47
1.2215e-47
1.22233e-47
1.22318e-47
1.22405e-47
1.22495e-47
1.22587e-47
1.22681e-47
1.22778e-47
1.22877e-47
1.22979e-47
1.23083e-47
1.23189e-47
1.23298e-47
1.2341e-47
1.23524e-47
1.23641e-47
1.2376e-47
1.23881e-47
1.24006e-47
1.24132e-47
1.24262e-47
1.24393e-47
1.24528e-47
1.24664e-47
1.24803e-47
1.24945e-47
1.25089e-47
1.25235e-47
1.25383e-47
1.25533e-47
1.25686e-47
1.2584e-47
1.25997e-47
1.26155e-47
1.26314e-47
1.26475e-47
1.26638e-47
1.26801e-47
1.26966e-47
1.27132e-47
1.27298e-47
1.27465e-47
1.27632e-47
1.27799e-47
1.27966e-47
1.28132e-47
1.28298e-47
1.28463e-47
1.28626e-47
1.28788e-47
1.28948e-47
1.29106e-47
1.29261e-47
1.29413e-47
1.29562e-47
1.29707e-47
1.29848e-47
1.29985e-47
1.30118e-47
1.30247e-47
1.3039e-47
1.30654e-47
1.31791e-47
1.38974e-47
1.87598e-47
5.18644e-47
2.76426e-46
1.79171e-45
1.19574e-44
7.97359e-44
5.28708e-43
3.48294e-42
2.2797e-41
1.48399e-40
9.63015e-40
6.25432e-39
4.07666e-38
2.64468e-37
1.63353e-36
9.42275e-36
5.07719e-35
2.70568e-34
1.45457e-33
8.052e-33
4.81981e-32
3.43122e-31
3.20062e-30
3.86336e-29
5.42543e-28
8.10139e-27
1.22969e-25
1.86147e-24
2.78586e-23
4.10181e-22
5.9224e-21
8.36119e-20
1.15082e-18
1.53948e-17
1.99514e-16
2.49693e-15
3.00816e-14
3.47759e-13
3.85473e-12
4.08325e-11
4.10977e-10
3.90288e-09
3.47106e-08
2.869e-07
2.20206e-06
1.62066e-05
0.000121077
0.000513943
0.000685415
0.00110577
0.00241428
0.00428543
0.00588599
0.00687152
0.00732691
0.00743816
0.00735939
0.00719136
0.00699253
0.00679384
0.00661006
0.00644715
0.00630652
0.00618737
0.00608785
0.00600575
0.00593876
0.00588465
0.00584135
0.005807
0.00577997
0.00575887
0.0057425
0.00572989
0.00572024
0.00571289
0.00570749
0.00570348
0.00570041
0.00569809
0.00569634
0.00569503
0.00569407
0.00569336
0.00569285
0.0056925
0.00569225
0.00569209
0.00569199
0.00569194
0.00569193
0.00569194
0.00569197
0.00569202
0.00569208
0.00569215
0.00569222
0.0056923
0.00569238
0.00569246
0.00569254
0.00569263
0.00569272
0.0056928
0.00569289
0.00569298
0.00569307
0.00569316
0.00569325
0.00569334
0.00569342
0.00569351
0.0056936
0.00569369
0.00569377
0.00569386
0.00569395
0.00569403
0.00569411
0.0056942
0.00569428
0.00569436
0.00569444
0.00569452
0.00569459
0.00569467
0.00569474
0.00569482
0.00569489
0.00569496
0.00569503
0.00569509
0.00569516
0.00569522
0.00569528
0.00569535
0.00569541
0.00569548
0.00569557
0.00569571
0.00569582
0.00569578
0.00569578
0.00569579
0.00569582
0.00569585
0.00569589
0.00569592
0.00569595
0.00569598
0.00569601
0.00569604
0.00569607
0.00569609
0.00569611
0.00569613
0.00569615
0.00569616
0.00569618
0.00569619
0.00569619
0.0056962
0.0056962
0.00569621
0.00569621
0.0056962
0.0056962
0.00569619
0.00569618
0.00569617
0.00569616
0.00569614
0.00569613
0.00569611
0.00569609
0.00569606
0.00569604
0.00569601
0.00569599
0.00569596
0.00569593
0.00569589
0.00569586
0.00569582
0.00569579
0.00569575
0.00569571
0.00569567
0.00569563
0.00569558
0.00569554
0.00569549
0.00569544
0.0056954
0.00569535
0.0056953
0.00569524
0.00569519
0.00569514
0.00569509
0.00569503
0.00569498
0.00569492
0.00569487
0.00569481
0.00569475
0.00569469
0.00569463
0.00569458
0.00569452
0.00569446
0.0056944
0.00569434
0.00569428
0.00569422
0.00569416
0.0056941
0.00569404
0.00569398
0.00569392
0.00569386
0.00569379
0.00569373
0.00569367
0.00569362
0.00569356
0.0056935
0.00569344
0.00569338
0.00569332
0.00569326
0.0056932
0.00569315
0.00569309
0.00569304
0.00569298
0.00569292
0.00569287
0.00569282
0.00569276
0.00569271
0.00569266
0.0056926
0.00569255
0.0056925
0.00569245
0.0056924
0.00569235
0.00569231
0.00569226
0.00569221
0.00569217
0.00569212
0.00569208
0.00569203
0.00569199
0.00569195
0.00569191
0.00569187
0.00569183
0.00569179
0.00569175
0.00569172
0.00569169
)
;

boundaryField
{
    boundary
    {
        type            empty;
    }
    inlet
    {
        type            fixedValue;
        value           uniform 0;
    }
    outlet
    {
        type            zeroGradient;
    }
}


// ************************************************************************* //
