/*--------------------------------*- C++ -*----------------------------------*\
  =========                 |
  \\      /  F ield         | OpenFOAM: The Open Source CFD Toolbox
   \\    /   O peration     | Website:  https://openfoam.org
    \\  /    A nd           | Version:  7
     \\/     M anipulation  |
\*---------------------------------------------------------------------------*/
FoamFile
{
    version     2.0;
    format      ascii;
    class       volScalarField;
    location    "1e-05";
    object      p;
}
// * * * * * * * * * * * * * * * * * * * * * * * * * * * * * * * * * * * * * //

dimensions      [1 -1 -2 0 0 0 0];

internalField   nonuniform List<scalar> 
500
(
101330
101330
101330
101330
101330
101330
101330
101330
101330
101330
101330
101330
101330
101330
101330
101331
101331
101331
101331
101331
101331
101331
101331
101332
101332
101332
101332
101332
101333
101333
101333
101333
101334
101334
101334
101334
101335
101335
101335
101336
101336
101336
101337
101337
101337
101338
101338
101339
101339
101340
101340
101341
101341
101342
101342
101343
101344
101344
101345
101346
101346
101347
101348
101349
101350
101350
101351
101352
101353
101354
101355
101356
101357
101358
101359
101361
101362
101363
101364
101366
101367
101368
101370
101371
101373
101375
101376
101378
101380
101381
101383
101385
101387
101389
101391
101394
101396
101398
101400
101403
101405
101408
101410
101413
101416
101419
101422
101425
101428
101431
101434
101438
101441
101445
101448
101452
101456
101459
101463
101468
101472
101476
101480
101485
101489
101494
101499
101504
101509
101514
101519
101524
101529
101535
101541
101546
101552
101558
101564
101570
101576
101583
101589
101595
101602
101609
101616
101622
101629
101636
101644
101651
101658
101665
101673
101680
101688
101695
101703
101710
101718
101726
101734
101741
101749
101757
101765
101772
101780
101788
101795
101803
101810
101818
101825
101832
101839
101847
101853
101860
101867
101873
101879
101886
101891
101897
101902
101908
101913
101917
101922
101926
101930
101933
101936
101939
101942
101944
101945
101947
101948
101948
101948
101948
101948
101947
101945
101943
101941
101938
101935
101931
101927
101922
101918
101912
101906
101900
101894
101887
101879
101872
101864
101856
101847
101838
101829
101820
101811
101801
101792
101782
101772
101762
101752
101743
101733
101723
101714
101705
101696
101687
101679
101671
101663
101656
101649
101643
101637
101632
101627
101623
101619
101616
101614
101612
101611
101610
101610
101611
101612
101614
101617
101620
101623
101627
101631
101636
101641
101646
101652
101657
101663
101669
101675
101681
101687
101693
101699
101705
101711
101716
101720
101721
101720
101718
101715
101712
101710
101707
101705
101702
101700
101698
101695
101693
101691
101689
101686
101684
101682
101680
101677
101675
101673
101670
101668
101666
101663
101661
101659
101656
101654
101652
101650
101647
101645
101643
101641
101639
101636
101634
101632
101630
101628
101626
101624
101622
101620
101618
101616
101614
101612
101610
101609
101607
101606
101604
101603
101601
101600
101599
101598
101597
101596
101595
101595
101594
101593
101593
101593
101593
101593
101593
101593
101593
101594
101594
101595
101596
101597
101598
101599
101600
101602
101603
101605
101607
101609
101611
101613
101616
101618
101621
101624
101626
101629
101633
101636
101639
101643
101646
101650
101654
101658
101662
101666
101670
101674
101678
101683
101687
101692
101696
101701
101705
101710
101715
101719
101724
101729
101734
101739
101743
101748
101753
101758
101763
101767
101772
101777
101781
101786
101790
101795
101799
101804
101808
101812
101816
101820
101824
101828
101831
101835
101838
101842
101845
101848
101851
101854
101856
101859
101861
101864
101866
101868
101869
101871
101872
101874
101875
101876
101877
101877
101878
101878
101878
101878
101878
101878
101877
101877
101876
101875
101874
101872
101871
101869
101867
101865
101863
101861
101858
101856
101853
101850
101847
101844
101841
101838
101834
101830
101827
101823
101819
101815
101811
101806
101802
101797
101793
101788
101783
101778
101774
101769
101764
101758
101753
101748
101743
101737
101732
101727
101721
101716
101710
101705
101699
)
;

boundaryField
{
    boundary
    {
        type            empty;
    }
    inlet
    {
        type            zeroGradient;
    }
    outlet
    {
        type            waveTransmissive;
        gamma           1.4;
        value           uniform 101697;
    }
}


// ************************************************************************* //
