/*--------------------------------*- C++ -*----------------------------------*\
  =========                 |
  \\      /  F ield         | OpenFOAM: The Open Source CFD Toolbox
   \\    /   O peration     | Website:  https://openfoam.org
    \\  /    A nd           | Version:  7
     \\/     M anipulation  |
\*---------------------------------------------------------------------------*/
FoamFile
{
    version     2.0;
    format      ascii;
    class       surfaceScalarField;
    location    "1e-05";
    object      phi;
}
// * * * * * * * * * * * * * * * * * * * * * * * * * * * * * * * * * * * * * //

dimensions      [1 0 -1 0 0 0 0];

internalField   nonuniform List<scalar> 
499
(
6.8076e-06
6.80599e-06
6.80438e-06
6.80276e-06
6.80114e-06
6.79951e-06
6.79786e-06
6.7962e-06
6.79453e-06
6.79283e-06
6.79111e-06
6.78937e-06
6.7876e-06
6.78581e-06
6.78398e-06
6.78212e-06
6.78023e-06
6.7783e-06
6.77633e-06
6.77432e-06
6.77226e-06
6.77016e-06
6.76801e-06
6.7658e-06
6.76354e-06
6.76122e-06
6.75884e-06
6.7564e-06
6.75388e-06
6.7513e-06
6.74865e-06
6.74592e-06
6.74312e-06
6.74023e-06
6.73725e-06
6.73419e-06
6.73103e-06
6.72777e-06
6.72442e-06
6.72096e-06
6.71739e-06
6.71371e-06
6.70992e-06
6.706e-06
6.70196e-06
6.69779e-06
6.69348e-06
6.68904e-06
6.68445e-06
6.67972e-06
6.67483e-06
6.66978e-06
6.66457e-06
6.65919e-06
6.65363e-06
6.64789e-06
6.64196e-06
6.63584e-06
6.62952e-06
6.623e-06
6.61626e-06
6.60931e-06
6.60212e-06
6.59471e-06
6.58705e-06
6.57915e-06
6.57099e-06
6.56257e-06
6.55388e-06
6.5449e-06
6.53565e-06
6.52609e-06
6.51623e-06
6.50606e-06
6.49557e-06
6.48475e-06
6.47358e-06
6.46207e-06
6.4502e-06
6.43795e-06
6.42533e-06
6.41232e-06
6.39891e-06
6.38509e-06
6.37084e-06
6.35617e-06
6.34105e-06
6.32548e-06
6.30944e-06
6.29292e-06
6.27592e-06
6.25841e-06
6.2404e-06
6.22185e-06
6.20278e-06
6.18315e-06
6.16296e-06
6.1422e-06
6.12085e-06
6.09891e-06
6.07635e-06
6.05317e-06
6.02936e-06
6.0049e-06
5.97978e-06
5.95398e-06
5.9275e-06
5.90032e-06
5.87243e-06
5.84382e-06
5.81448e-06
5.7844e-06
5.75355e-06
5.72194e-06
5.68955e-06
5.65638e-06
5.6224e-06
5.58762e-06
5.55201e-06
5.51559e-06
5.47832e-06
5.44021e-06
5.40126e-06
5.36144e-06
5.32076e-06
5.27919e-06
5.23677e-06
5.19348e-06
5.1493e-06
5.10425e-06
5.05831e-06
5.0115e-06
4.9638e-06
4.91523e-06
4.86578e-06
4.81547e-06
4.76429e-06
4.71226e-06
4.65938e-06
4.60567e-06
4.55114e-06
4.4958e-06
4.43967e-06
4.38276e-06
4.32511e-06
4.26672e-06
4.20762e-06
4.14784e-06
4.0874e-06
4.02635e-06
3.9647e-06
3.90249e-06
3.83976e-06
3.77655e-06
3.71291e-06
3.64887e-06
3.58449e-06
3.51981e-06
3.45489e-06
3.38978e-06
3.32454e-06
3.25923e-06
3.19392e-06
3.12868e-06
3.06356e-06
2.99865e-06
2.93402e-06
2.86974e-06
2.8059e-06
2.74258e-06
2.67987e-06
2.61785e-06
2.55662e-06
2.49627e-06
2.43689e-06
2.37858e-06
2.32144e-06
2.26558e-06
2.21109e-06
2.15808e-06
2.10665e-06
2.05692e-06
2.00899e-06
1.96297e-06
1.91897e-06
1.87709e-06
1.83745e-06
1.80016e-06
1.76531e-06
1.73302e-06
1.70339e-06
1.67653e-06
1.65252e-06
1.63148e-06
1.61348e-06
1.59863e-06
1.587e-06
1.57868e-06
1.57374e-06
1.57225e-06
1.57427e-06
1.57986e-06
1.58906e-06
1.60193e-06
1.61847e-06
1.63873e-06
1.66271e-06
1.69042e-06
1.72185e-06
1.75697e-06
1.79576e-06
1.83817e-06
1.88415e-06
1.93363e-06
1.98653e-06
2.04275e-06
2.10219e-06
2.16471e-06
2.23018e-06
2.29846e-06
2.36936e-06
2.44271e-06
2.51831e-06
2.59596e-06
2.67543e-06
2.75647e-06
2.83885e-06
2.92229e-06
3.00653e-06
3.09128e-06
3.17623e-06
3.26109e-06
3.34555e-06
3.42928e-06
3.51196e-06
3.59327e-06
3.67287e-06
3.75044e-06
3.82565e-06
3.89817e-06
3.9677e-06
4.03391e-06
4.09651e-06
4.15522e-06
4.20976e-06
4.25988e-06
4.30534e-06
4.34594e-06
4.38148e-06
4.41181e-06
4.43683e-06
4.45645e-06
4.47047e-06
4.47895e-06
4.48189e-06
4.47933e-06
4.47134e-06
4.45804e-06
4.43958e-06
4.41615e-06
4.38799e-06
4.35534e-06
4.31851e-06
4.27782e-06
4.23362e-06
4.18629e-06
4.13623e-06
4.08384e-06
4.02953e-06
3.97373e-06
3.91687e-06
3.85937e-06
3.80161e-06
3.744e-06
3.68688e-06
3.6306e-06
3.57546e-06
3.52208e-06
3.47269e-06
3.43737e-06
3.47644e-06
4.08394e-06
5.75863e-06
5.78571e-06
5.52236e-06
4.90513e-06
4.22306e-06
3.63646e-06
3.1782e-06
2.83482e-06
2.58552e-06
2.41053e-06
2.29249e-06
2.21662e-06
2.17076e-06
2.14527e-06
2.13283e-06
2.12813e-06
2.1275e-06
2.12853e-06
2.12976e-06
2.13037e-06
2.12995e-06
2.12838e-06
2.12569e-06
2.122e-06
2.11744e-06
2.11216e-06
2.1063e-06
2.09999e-06
2.09332e-06
2.0864e-06
2.0797e-06
2.07285e-06
2.06589e-06
2.05884e-06
2.05173e-06
2.04459e-06
2.03743e-06
2.03029e-06
2.02316e-06
2.01606e-06
2.00901e-06
2.00203e-06
1.99512e-06
1.9883e-06
1.98158e-06
1.97497e-06
1.96849e-06
1.96213e-06
1.95592e-06
1.94987e-06
1.94398e-06
1.93828e-06
1.93276e-06
1.92745e-06
1.92236e-06
1.91749e-06
1.91286e-06
1.90849e-06
1.90437e-06
1.90054e-06
1.89698e-06
1.89373e-06
1.89078e-06
1.88816e-06
1.88586e-06
1.88391e-06
1.88231e-06
1.88106e-06
1.88019e-06
1.87969e-06
1.87958e-06
1.87986e-06
1.88055e-06
1.88164e-06
1.88315e-06
1.88508e-06
1.88743e-06
1.89022e-06
1.89344e-06
1.8971e-06
1.90119e-06
1.90573e-06
1.91072e-06
1.91615e-06
1.92202e-06
1.92834e-06
1.93511e-06
1.94231e-06
1.94995e-06
1.95803e-06
1.96653e-06
1.97546e-06
1.98481e-06
1.99456e-06
2.00472e-06
2.01528e-06
2.02624e-06
2.03758e-06
2.0493e-06
2.06137e-06
2.07379e-06
2.08656e-06
2.09964e-06
2.11304e-06
2.12675e-06
2.14073e-06
2.15499e-06
2.16951e-06
2.18426e-06
2.19924e-06
2.21443e-06
2.22981e-06
2.24537e-06
2.26108e-06
2.27693e-06
2.2929e-06
2.30898e-06
2.32517e-06
2.34144e-06
2.35776e-06
2.37411e-06
2.39047e-06
2.40681e-06
2.42312e-06
2.43937e-06
2.45556e-06
2.47165e-06
2.48764e-06
2.50349e-06
2.51919e-06
2.53473e-06
2.55007e-06
2.56521e-06
2.58012e-06
2.59479e-06
2.6092e-06
2.62332e-06
2.63715e-06
2.65066e-06
2.66385e-06
2.67668e-06
2.68915e-06
2.70123e-06
2.71291e-06
2.72416e-06
2.73499e-06
2.74538e-06
2.75533e-06
2.7648e-06
2.77381e-06
2.78233e-06
2.79035e-06
2.79786e-06
2.80486e-06
2.81133e-06
2.81727e-06
2.82266e-06
2.82751e-06
2.8318e-06
2.83553e-06
2.83869e-06
2.84129e-06
2.84331e-06
2.84475e-06
2.84561e-06
2.84589e-06
2.84559e-06
2.8447e-06
2.84324e-06
2.84119e-06
2.83855e-06
2.83534e-06
2.83156e-06
2.8272e-06
2.82227e-06
2.81678e-06
2.81073e-06
2.80412e-06
2.79697e-06
2.78928e-06
2.78105e-06
2.77229e-06
2.76302e-06
2.75324e-06
2.74296e-06
2.73219e-06
2.72093e-06
2.70921e-06
2.69703e-06
2.68439e-06
2.67132e-06
2.65783e-06
2.64392e-06
2.62962e-06
2.61492e-06
2.59985e-06
2.58442e-06
2.56863e-06
2.55252e-06
2.53608e-06
2.51933e-06
2.5023e-06
2.48498e-06
2.4674e-06
2.44956e-06
2.4315e-06
2.41321e-06
2.39471e-06
2.37602e-06
2.35715e-06
2.33812e-06
2.31894e-06
2.29963e-06
2.28019e-06
2.26065e-06
2.24102e-06
2.22133e-06
)
;

boundaryField
{
    boundary
    {
        type            empty;
        value           nonuniform 0();
    }
    inlet
    {
        type            calculated;
        value           uniform -6.80927e-06;
    }
    outlet
    {
        type            calculated;
        value           uniform 2.20159e-06;
    }
}


// ************************************************************************* //
