/*--------------------------------*- C++ -*----------------------------------*\
  =========                 |
  \\      /  F ield         | OpenFOAM: The Open Source CFD Toolbox
   \\    /   O peration     | Website:  https://openfoam.org
    \\  /    A nd           | Version:  7
     \\/     M anipulation  |
\*---------------------------------------------------------------------------*/
FoamFile
{
    version     2.0;
    format      ascii;
    class       volScalarField;
    location    "1e-05";
    object      Qdot;
}
// * * * * * * * * * * * * * * * * * * * * * * * * * * * * * * * * * * * * * //

dimensions      [1 -1 -3 0 0 0 0];

internalField   nonuniform List<scalar> 
500
(
-2.35873e-27
-1.81362e-27
-1.68386e-27
-1.65294e-27
-1.64555e-27
-1.64378e-27
-1.64336e-27
-1.64326e-27
-1.64324e-27
-1.64325e-27
-1.64326e-27
-1.64328e-27
-1.64329e-27
-1.64331e-27
-1.64333e-27
-1.64335e-27
-1.64337e-27
-1.6434e-27
-1.64342e-27
-1.64345e-27
-1.64348e-27
-1.64351e-27
-1.64354e-27
-1.64357e-27
-1.64361e-27
-1.64364e-27
-1.64368e-27
-1.64372e-27
-1.64377e-27
-1.64381e-27
-1.64386e-27
-1.64391e-27
-1.64396e-27
-1.64402e-27
-1.64407e-27
-1.64413e-27
-1.64419e-27
-1.64426e-27
-1.64433e-27
-1.6444e-27
-1.64447e-27
-1.64454e-27
-1.64462e-27
-1.64471e-27
-1.64479e-27
-1.64488e-27
-1.64497e-27
-1.64507e-27
-1.64517e-27
-1.64527e-27
-1.64538e-27
-1.64549e-27
-1.64561e-27
-1.64573e-27
-1.64586e-27
-1.64599e-27
-1.64612e-27
-1.64626e-27
-1.64641e-27
-1.64656e-27
-1.64672e-27
-1.64688e-27
-1.64705e-27
-1.64723e-27
-1.64741e-27
-1.6476e-27
-1.64779e-27
-1.648e-27
-1.64821e-27
-1.64843e-27
-1.64865e-27
-1.64889e-27
-1.64913e-27
-1.64939e-27
-1.64965e-27
-1.64992e-27
-1.6502e-27
-1.65049e-27
-1.6508e-27
-1.65111e-27
-1.65143e-27
-1.65177e-27
-1.65212e-27
-1.65248e-27
-1.65285e-27
-1.65324e-27
-1.65364e-27
-1.65406e-27
-1.65449e-27
-1.65493e-27
-1.65539e-27
-1.65587e-27
-1.65637e-27
-1.65688e-27
-1.65741e-27
-1.65796e-27
-1.65852e-27
-1.65911e-27
-1.65972e-27
-1.66035e-27
-1.661e-27
-1.66167e-27
-1.66237e-27
-1.66309e-27
-1.66383e-27
-1.66461e-27
-1.6654e-27
-1.66623e-27
-1.66708e-27
-1.66796e-27
-1.66887e-27
-1.66981e-27
-1.67079e-27
-1.67179e-27
-1.67283e-27
-1.6739e-27
-1.67501e-27
-1.67616e-27
-1.67734e-27
-1.67857e-27
-1.67984e-27
-1.68121e-27
-1.68277e-27
-1.68475e-27
-1.68657e-27
-1.68817e-27
-1.69004e-27
-1.6908e-27
-1.69189e-27
-1.69331e-27
-1.69493e-27
-1.69666e-27
-1.69848e-27
-1.70036e-27
-1.7023e-27
-1.7043e-27
-1.70636e-27
-1.70848e-27
-1.71066e-27
-1.71291e-27
-1.71522e-27
-1.7176e-27
-1.72005e-27
-1.72256e-27
-1.72515e-27
-1.7278e-27
-1.73053e-27
-1.73334e-27
-1.73622e-27
-1.73918e-27
-1.74221e-27
-1.74533e-27
-1.74852e-27
-1.7518e-27
-1.75515e-27
-1.75859e-27
-1.76212e-27
-1.76573e-27
-1.76943e-27
-1.77321e-27
-1.77708e-27
-1.78104e-27
-1.78508e-27
-1.78922e-27
-1.79344e-27
-1.79775e-27
-1.80215e-27
-1.80663e-27
-1.8112e-27
-1.81586e-27
-1.82061e-27
-1.82543e-27
-1.83034e-27
-1.83534e-27
-1.84041e-27
-1.84556e-27
-1.85078e-27
-1.85607e-27
-1.86144e-27
-1.86686e-27
-1.87236e-27
-1.8779e-27
-1.8835e-27
-1.88915e-27
-1.89484e-27
-1.90057e-27
-1.90633e-27
-1.91212e-27
-1.91791e-27
-1.92372e-27
-1.92953e-27
-1.93533e-27
-1.94111e-27
-1.94687e-27
-1.95258e-27
-1.95825e-27
-1.96385e-27
-1.96938e-27
-1.97482e-27
-1.98017e-27
-1.98539e-27
-1.99048e-27
-1.99543e-27
-2.00021e-27
-2.00482e-27
-2.00922e-27
-2.01341e-27
-2.01737e-27
-2.02107e-27
-2.02449e-27
-2.02762e-27
-2.03043e-27
-2.03291e-27
-2.03503e-27
-2.03677e-27
-2.03811e-27
-2.03902e-27
-2.03949e-27
-2.03949e-27
-2.039e-27
-2.038e-27
-2.03647e-27
-2.03439e-27
-2.03174e-27
-2.0285e-27
-2.02466e-27
-2.02019e-27
-2.01509e-27
-2.00935e-27
-2.00293e-27
-1.99578e-27
-1.98752e-27
-1.97561e-27
-1.94307e-27
-1.77709e-27
-7.3334e-28
6.05736e-27
5.01559e-26
3.34083e-25
2.14306e-24
1.35342e-23
8.43362e-23
5.18069e-22
3.13215e-21
1.85983e-20
1.08174e-19
6.141e-19
3.38528e-18
1.79736e-17
9.05579e-17
4.19454e-16
2.7185e-15
1.44529e-14
7.6734e-14
4.06976e-13
2.1555e-12
1.13934e-11
6.00502e-11
3.15254e-10
1.64644e-09
8.54241e-09
4.39705e-08
2.24158e-07
1.12948e-06
5.61207e-06
2.74341e-05
0.000131779
0.00062256
0.00290835
0.0136236
0.0657029
0.338162
1.90791
12.5541
101.544
957.58
8205.16
71923.4
608360
5.16713e+06
4.55192e+07
4.3618e+08
3.32388e+09
9.00179e+09
9.02729e+09
5.86503e+09
4.33094e+09
2.86991e+09
1.49959e+09
6.66786e+08
2.42766e+08
4.03434e+07
-5.04989e+07
-8.58606e+07
-9.39696e+07
-8.92004e+07
-7.89716e+07
-6.70902e+07
-5.54579e+07
-4.49504e+07
-3.58937e+07
-2.83236e+07
-2.21301e+07
-1.71452e+07
-1.31762e+07
-1.00568e+07
-7.61366e+06
-5.71494e+06
-4.24602e+06
-3.11514e+06
-2.24498e+06
-1.58005e+06
-1.08675e+06
-716731
-429169
-207296
-36490.1
94922.3
195680
272799
331699
376573
410653
436420
455773
470157
480672
488151
493233
496320
497773
497860
496779
494677
491664
487821
483250
478121
472497
466202
459059
451092
442414
433215
423496
413205
402353
390876
378918
366502
353524
339983
325882
311456
296675
281509
265882
249949
233752
217278
200429
183371
165862
148582
130674
112535
94261.5
75649
57246
38530.6
19497.5
598.802
-19296.6
-41100.6
-66748.4
-100111
-118302
-126231
-138058
-153598
-170720
-188627
-206390
-224355
-242194
-259940
-277755
-295509
-312306
-329150
-345750
-361985
-377931
-393208
-408825
-423019
-438415
-452154
-466545
-479641
-492951
-506025
-518558
-530513
-541990
-553050
-563836
-574195
-584049
-593457
-602499
-610283
-618316
-625928
-633128
-639920
-646306
-652244
-657691
-663079
-667715
-671927
-675716
-678993
-681974
-684538
-686683
-688288
-689522
-690462
-691062
-691309
-691200
-690738
-689930
-688784
-687507
-685700
-683579
-681153
-678434
-675442
-672216
-668672
-664846
-660759
-656425
-651855
-647056
-642040
-636792
-631254
-625539
-619680
-613664
-607296
-600985
-594558
-588080
-581378
-574527
-567567
-560497
-553320
-546042
-538672
-531214
-523669
-516055
-508634
-500965
-493371
-485587
-477580
-469759
-461974
-454210
-446471
-438435
-430777
-423146
-415506
-407894
-400327
-392795
-385269
-377692
-370254
-362903
-355620
-348417
-341291
-334203
-327158
-320201
-314000
-307118
-300320
-293729
-288342
)
;

boundaryField
{
    boundary
    {
        type            empty;
    }
    inlet
    {
        type            calculated;
        value           uniform 0;
    }
    outlet
    {
        type            calculated;
        value           uniform 0;
    }
}


// ************************************************************************* //
