/*--------------------------------*- C++ -*----------------------------------*\
  =========                 |
  \\      /  F ield         | OpenFOAM: The Open Source CFD Toolbox
   \\    /   O peration     | Website:  https://openfoam.org
    \\  /    A nd           | Version:  7
     \\/     M anipulation  |
\*---------------------------------------------------------------------------*/
FoamFile
{
    version     2.0;
    format      ascii;
    class       volScalarField;
    location    "1e-05";
    object      rho;
}
// * * * * * * * * * * * * * * * * * * * * * * * * * * * * * * * * * * * * * //

dimensions      [1 -3 0 0 0 0 0];

internalField   nonuniform List<scalar> 
500
(
0.849589
0.849588
0.849588
0.849588
0.849588
0.849588
0.849589
0.849589
0.849589
0.84959
0.84959
0.849591
0.849591
0.849592
0.849593
0.849594
0.849594
0.849595
0.849596
0.849597
0.849598
0.849599
0.8496
0.849601
0.849603
0.849604
0.849605
0.849607
0.849608
0.84961
0.849611
0.849613
0.849615
0.849617
0.849619
0.849621
0.849623
0.849625
0.849627
0.84963
0.849632
0.849635
0.849638
0.84964
0.849643
0.849646
0.849649
0.849653
0.849656
0.849659
0.849663
0.849667
0.849671
0.849675
0.849679
0.849683
0.849687
0.849692
0.849697
0.849702
0.849707
0.849712
0.849717
0.849723
0.849729
0.849735
0.849741
0.849748
0.849754
0.849761
0.849768
0.849775
0.849783
0.849791
0.849799
0.849807
0.849816
0.849824
0.849833
0.849843
0.849853
0.849863
0.849873
0.849883
0.849894
0.849906
0.849917
0.849929
0.849941
0.849954
0.849967
0.849981
0.849994
0.850009
0.850023
0.850038
0.850054
0.85007
0.850086
0.850103
0.85012
0.850138
0.850156
0.850175
0.850194
0.850214
0.850234
0.850255
0.850277
0.850298
0.850321
0.850344
0.850367
0.850392
0.850416
0.850442
0.850468
0.850494
0.850521
0.850549
0.850578
0.850607
0.850636
0.850667
0.850698
0.85073
0.850761
0.850794
0.850828
0.850862
0.850897
0.850932
0.850968
0.851005
0.851042
0.851081
0.851119
0.851158
0.851198
0.851239
0.85128
0.851322
0.851364
0.851407
0.85145
0.851494
0.851538
0.851583
0.851628
0.851674
0.85172
0.851766
0.851813
0.85186
0.851907
0.851955
0.852003
0.852051
0.852099
0.852147
0.852195
0.852243
0.852291
0.852339
0.852387
0.852435
0.852482
0.852529
0.852576
0.852622
0.852667
0.852712
0.852757
0.8528
0.852843
0.852885
0.852926
0.852965
0.853004
0.853042
0.853078
0.853113
0.853146
0.853178
0.853209
0.853238
0.853265
0.85329
0.853313
0.853335
0.853354
0.853371
0.853387
0.853399
0.85341
0.853418
0.853424
0.853427
0.853428
0.853427
0.853422
0.853416
0.853406
0.853394
0.853379
0.853362
0.853342
0.853319
0.853294
0.853266
0.853236
0.853203
0.853168
0.85313
0.85309
0.853048
0.853004
0.852958
0.85291
0.852861
0.85281
0.852757
0.852704
0.852649
0.852594
0.852538
0.852481
0.852424
0.852367
0.852311
0.852255
0.8522
0.852145
0.852092
0.852041
0.851991
0.851943
0.851897
0.851854
0.851813
0.851776
0.851742
0.851711
0.851684
0.85166
0.851641
0.851625
0.851614
0.851607
0.851605
0.851608
0.851614
0.851625
0.851641
0.851661
0.851686
0.851715
0.851748
0.851785
0.851826
0.85187
0.851917
0.851968
0.852021
0.852076
0.852133
0.852192
0.852252
0.852314
0.852375
0.852437
0.852498
0.852558
0.852618
0.852677
0.852734
0.852787
0.852823
0.852746
0.851956
0.847143
0.81446
0.669597
0.454311
0.327868
0.249297
0.200984
0.171409
0.153404
0.142192
0.135069
0.130518
0.12764
0.125863
0.12481
0.124225
0.123936
0.123824
0.123814
0.123855
0.123919
0.123988
0.124052
0.124108
0.124155
0.124191
0.12422
0.124241
0.124256
0.124267
0.124275
0.124279
0.124281
0.124282
0.124282
0.124281
0.12428
0.124278
0.124275
0.124273
0.12427
0.124267
0.124264
0.124261
0.124257
0.124254
0.124251
0.124248
0.124244
0.124241
0.124238
0.124235
0.124232
0.124229
0.124225
0.124222
0.124219
0.124216
0.124214
0.124211
0.124208
0.124205
0.124203
0.1242
0.124198
0.124195
0.124193
0.124191
0.124189
0.124187
0.124185
0.124183
0.124182
0.12418
0.124179
0.124177
0.124176
0.124175
0.124174
0.124173
0.124173
0.124172
0.124172
0.124172
0.124172
0.124172
0.124172
0.124173
0.124173
0.124174
0.124175
0.124176
0.124177
0.124178
0.12418
0.124181
0.124183
0.124185
0.124187
0.12419
0.124192
0.124195
0.124197
0.1242
0.124203
0.124206
0.124209
0.124212
0.124216
0.124219
0.124223
0.124227
0.124231
0.124235
0.124239
0.124243
0.124247
0.124251
0.124256
0.12426
0.124265
0.124269
0.124274
0.124279
0.124283
0.124288
0.124293
0.124297
0.124302
0.124307
0.124312
0.124316
0.124321
0.124326
0.124331
0.124335
0.12434
0.124344
0.124349
0.124353
0.124358
0.124362
0.124366
0.124371
0.124375
0.124379
0.124383
0.124387
0.12439
0.124394
0.124397
0.124401
0.124404
0.124407
0.12441
0.124413
0.124415
0.124418
0.12442
0.124423
0.124425
0.124427
0.124428
0.12443
0.124431
0.124433
0.124434
0.124435
0.124435
0.124436
0.124436
0.124437
0.124437
0.124437
0.124436
0.124436
0.124435
0.124434
0.124434
0.124432
0.124431
0.12443
0.124428
0.124426
0.124424
0.124422
0.12442
0.124418
0.124415
0.124412
0.124409
0.124406
0.124403
0.1244
0.124397
0.124393
0.124389
0.124386
0.124382
0.124378
0.124373
0.124369
0.124365
0.12436
0.124356
0.124351
0.124346
0.124342
0.124337
0.124332
0.124327
0.124321
0.124316
0.124311
0.124306
0.1243
0.124295
0.124289
0.124284
0.124278
)
;

boundaryField
{
    boundary
    {
        type            empty;
    }
    inlet
    {
        type            calculated;
        value           uniform 0.849593;
    }
    outlet
    {
        type            calculated;
        value           uniform 0.124275;
    }
}


// ************************************************************************* //
