/*--------------------------------*- C++ -*----------------------------------*\
  =========                 |
  \\      /  F ield         | OpenFOAM: The Open Source CFD Toolbox
   \\    /   O peration     | Website:  https://openfoam.org
    \\  /    A nd           | Version:  7
     \\/     M anipulation  |
\*---------------------------------------------------------------------------*/
FoamFile
{
    version     2.0;
    format      ascii;
    class       volScalarField;
    location    "1e-05";
    object      T;
}
// * * * * * * * * * * * * * * * * * * * * * * * * * * * * * * * * * * * * * //

dimensions      [0 0 0 1 0 0 0];

internalField   nonuniform List<scalar> 
500
(
300.001
300.002
300.002
300.002
300.002
300.002
300.002
300.002
300.002
300.002
300.002
300.002
300.002
300.002
300.002
300.002
300.002
300.002
300.002
300.002
300.003
300.003
300.003
300.003
300.003
300.003
300.003
300.003
300.003
300.003
300.003
300.003
300.004
300.004
300.004
300.004
300.004
300.004
300.004
300.004
300.005
300.005
300.005
300.005
300.005
300.005
300.006
300.006
300.006
300.006
300.007
300.007
300.007
300.007
300.008
300.008
300.008
300.008
300.009
300.009
300.009
300.01
300.01
300.01
300.011
300.011
300.011
300.012
300.012
300.013
300.013
300.014
300.014
300.015
300.015
300.016
300.016
300.017
300.018
300.018
300.019
300.02
300.02
300.021
300.022
300.022
300.023
300.024
300.025
300.026
300.027
300.028
300.029
300.03
300.031
300.032
300.033
300.034
300.035
300.036
300.038
300.039
300.04
300.042
300.043
300.045
300.046
300.048
300.049
300.051
300.053
300.054
300.056
300.058
300.06
300.062
300.064
300.066
300.068
300.07
300.073
300.075
300.077
300.08
300.082
300.085
300.088
300.091
300.093
300.096
300.099
300.103
300.106
300.109
300.112
300.116
300.119
300.123
300.126
300.13
300.134
300.138
300.142
300.146
300.15
300.155
300.159
300.164
300.168
300.173
300.178
300.183
300.188
300.193
300.198
300.203
300.208
300.214
300.219
300.225
300.231
300.236
300.242
300.248
300.254
300.26
300.267
300.273
300.279
300.285
300.292
300.298
300.305
300.311
300.318
300.325
300.331
300.338
300.345
300.351
300.358
300.365
300.371
300.378
300.385
300.391
300.398
300.404
300.41
300.416
300.423
300.429
300.435
300.44
300.446
300.451
300.457
300.462
300.466
300.471
300.475
300.48
300.483
300.487
300.49
300.493
300.496
300.498
300.5
300.502
300.503
300.504
300.504
300.504
300.503
300.502
300.501
300.499
300.496
300.493
300.49
300.486
300.482
300.477
300.471
300.465
300.458
300.451
300.443
300.435
300.426
300.417
300.407
300.397
300.386
300.375
300.363
300.351
300.338
300.326
300.312
300.299
300.285
300.271
300.256
300.242
300.227
300.212
300.198
300.183
300.168
300.153
300.139
300.124
300.11
300.096
300.083
300.07
300.057
300.045
300.033
300.022
300.011
300.001
299.991
299.983
299.974
299.967
299.96
299.954
299.949
299.944
299.94
299.937
299.934
299.932
299.932
299.939
299.996
300.357
302.404
315.947
389.209
583.8
821.337
1092.31
1365.04
1610.06
1810
1965.69
2083.72
2171.29
2234.98
2280.51
2312.59
2334.95
2350.44
2361.16
2368.59
2373.78
2377.44
2380.06
2381.95
2383.33
2384.36
2385.13
2385.71
2386.15
2386.48
2386.74
2386.94
2387.09
2387.2
2387.29
2387.36
2387.41
2387.46
2387.49
2387.52
2387.55
2387.57
2387.59
2387.61
2387.63
2387.65
2387.66
2387.68
2387.7
2387.72
2387.73
2387.75
2387.77
2387.79
2387.81
2387.83
2387.85
2387.87
2387.89
2387.91
2387.94
2387.96
2387.99
2388.01
2388.04
2388.06
2388.09
2388.12
2388.14
2388.17
2388.2
2388.23
2388.26
2388.29
2388.32
2388.35
2388.39
2388.42
2388.45
2388.48
2388.52
2388.55
2388.59
2388.62
2388.66
2388.69
2388.73
2388.76
2388.8
2388.83
2388.87
2388.91
2388.94
2388.98
2389.02
2389.05
2389.09
2389.13
2389.16
2389.2
2389.23
2389.27
2389.3
2389.34
2389.37
2389.41
2389.44
2389.47
2389.51
2389.54
2389.57
2389.61
2389.64
2389.67
2389.7
2389.73
2389.76
2389.79
2389.82
2389.84
2389.87
2389.9
2389.92
2389.95
2389.97
2389.99
2390.02
2390.04
2390.06
2390.08
2390.1
2390.11
2390.13
2390.15
2390.16
2390.18
2390.19
2390.2
2390.21
2390.22
2390.23
2390.24
2390.25
2390.26
2390.26
2390.27
2390.27
2390.27
2390.28
2390.28
2390.28
2390.28
2390.28
2390.27
2390.27
2390.27
2390.26
2390.25
2390.25
2390.24
2390.23
2390.22
2390.21
2390.2
2390.19
2390.18
2390.17
2390.15
2390.14
2390.12
2390.11
2390.09
2390.07
2390.06
2390.04
2390.02
2390
2389.98
2389.96
2389.94
2389.92
2389.9
2389.88
2389.85
2389.83
2389.81
2389.79
2389.76
2389.74
2389.71
2389.69
2389.67
2389.64
2389.62
2389.59
2389.57
2389.54
2389.51
2389.49
2389.46
2389.44
2389.41
2389.39
2389.36
2389.33
2389.31
2389.28
2389.26
2389.23
2389.21
2389.18
2389.16
2389.13
2389.11
2389.08
2389.06
2389.03
2389.01
2388.98
2388.96
2388.95
)
;

boundaryField
{
    boundary
    {
        type            empty;
    }
    inlet
    {
        type            fixedValue;
        value           uniform 300;
    }
    outlet
    {
        type            zeroGradient;
    }
}


// ************************************************************************* //
