/*--------------------------------*- C++ -*----------------------------------*\
  =========                 |
  \\      /  F ield         | OpenFOAM: The Open Source CFD Toolbox
   \\    /   O peration     | Website:  https://openfoam.org
    \\  /    A nd           | Version:  7
     \\/     M anipulation  |
\*---------------------------------------------------------------------------*/
FoamFile
{
    version     2.0;
    format      ascii;
    class       volVectorField;
    location    "1e-05";
    object      U;
}
// * * * * * * * * * * * * * * * * * * * * * * * * * * * * * * * * * * * * * //

dimensions      [0 1 -1 0 0 0 0];

internalField   nonuniform List<vector> 
500
(
(2.34869 0 0)
(2.34809 0 0)
(2.34754 0 0)
(2.34698 0 0)
(2.34642 0 0)
(2.34586 0 0)
(2.3453 0 0)
(2.34473 0 0)
(2.34415 0 0)
(2.34357 0 0)
(2.34298 0 0)
(2.34238 0 0)
(2.34177 0 0)
(2.34115 0 0)
(2.34053 0 0)
(2.33989 0 0)
(2.33924 0 0)
(2.33858 0 0)
(2.3379 0 0)
(2.33722 0 0)
(2.33651 0 0)
(2.33579 0 0)
(2.33505 0 0)
(2.3343 0 0)
(2.33352 0 0)
(2.33273 0 0)
(2.33192 0 0)
(2.33108 0 0)
(2.33022 0 0)
(2.32934 0 0)
(2.32843 0 0)
(2.3275 0 0)
(2.32654 0 0)
(2.32555 0 0)
(2.32454 0 0)
(2.32349 0 0)
(2.32241 0 0)
(2.3213 0 0)
(2.32015 0 0)
(2.31897 0 0)
(2.31775 0 0)
(2.31649 0 0)
(2.3152 0 0)
(2.31386 0 0)
(2.31248 0 0)
(2.31106 0 0)
(2.30959 0 0)
(2.30807 0 0)
(2.3065 0 0)
(2.30489 0 0)
(2.30322 0 0)
(2.30149 0 0)
(2.29971 0 0)
(2.29787 0 0)
(2.29598 0 0)
(2.29402 0 0)
(2.29199 0 0)
(2.2899 0 0)
(2.28775 0 0)
(2.28552 0 0)
(2.28322 0 0)
(2.28084 0 0)
(2.27839 0 0)
(2.27586 0 0)
(2.27324 0 0)
(2.27054 0 0)
(2.26776 0 0)
(2.26488 0 0)
(2.26191 0 0)
(2.25885 0 0)
(2.25569 0 0)
(2.25242 0 0)
(2.24906 0 0)
(2.24558 0 0)
(2.242 0 0)
(2.2383 0 0)
(2.23449 0 0)
(2.23056 0 0)
(2.2265 0 0)
(2.22232 0 0)
(2.218 0 0)
(2.21356 0 0)
(2.20898 0 0)
(2.20425 0 0)
(2.19939 0 0)
(2.19437 0 0)
(2.18921 0 0)
(2.18388 0 0)
(2.1784 0 0)
(2.17276 0 0)
(2.16695 0 0)
(2.16096 0 0)
(2.15481 0 0)
(2.14847 0 0)
(2.14195 0 0)
(2.13524 0 0)
(2.12834 0 0)
(2.12124 0 0)
(2.11394 0 0)
(2.10644 0 0)
(2.09872 0 0)
(2.0908 0 0)
(2.08265 0 0)
(2.07429 0 0)
(2.06569 0 0)
(2.05687 0 0)
(2.04781 0 0)
(2.03852 0 0)
(2.02898 0 0)
(2.01919 0 0)
(2.00915 0 0)
(1.99886 0 0)
(1.9883 0 0)
(1.97749 0 0)
(1.9664 0 0)
(1.95505 0 0)
(1.94342 0 0)
(1.93151 0 0)
(1.91933 0 0)
(1.90686 0 0)
(1.8941 0 0)
(1.88105 0 0)
(1.86771 0 0)
(1.85404 0 0)
(1.84015 0 0)
(1.82608 0 0)
(1.81143 0 0)
(1.79637 0 0)
(1.78136 0 0)
(1.76598 0 0)
(1.75022 0 0)
(1.73417 0 0)
(1.71782 0 0)
(1.70117 0 0)
(1.68422 0 0)
(1.66696 0 0)
(1.64941 0 0)
(1.63157 0 0)
(1.61343 0 0)
(1.595 0 0)
(1.57629 0 0)
(1.5573 0 0)
(1.53804 0 0)
(1.51851 0 0)
(1.49871 0 0)
(1.47866 0 0)
(1.45837 0 0)
(1.43783 0 0)
(1.41707 0 0)
(1.39609 0 0)
(1.3749 0 0)
(1.35352 0 0)
(1.33195 0 0)
(1.31021 0 0)
(1.28832 0 0)
(1.26629 0 0)
(1.24413 0 0)
(1.22186 0 0)
(1.1995 0 0)
(1.17708 0 0)
(1.1546 0 0)
(1.13208 0 0)
(1.10956 0 0)
(1.08705 0 0)
(1.06458 0 0)
(1.04217 0 0)
(1.01984 0 0)
(0.997626 0 0)
(0.975551 0 0)
(0.953644 0 0)
(0.931933 0 0)
(0.910449 0 0)
(0.889222 0 0)
(0.868283 0 0)
(0.847666 0 0)
(0.827404 0 0)
(0.807529 0 0)
(0.788077 0 0)
(0.769082 0 0)
(0.750581 0 0)
(0.73261 0 0)
(0.715204 0 0)
(0.698401 0 0)
(0.682237 0 0)
(0.666751 0 0)
(0.651978 0 0)
(0.637958 0 0)
(0.624726 0 0)
(0.612319 0 0)
(0.600774 0 0)
(0.590127 0 0)
(0.580413 0 0)
(0.571666 0 0)
(0.563921 0 0)
(0.55721 0 0)
(0.551563 0 0)
(0.547011 0 0)
(0.543583 0 0)
(0.541304 0 0)
(0.540199 0 0)
(0.540292 0 0)
(0.541602 0 0)
(0.544147 0 0)
(0.547942 0 0)
(0.553 0 0)
(0.559331 0 0)
(0.566939 0 0)
(0.575829 0 0)
(0.586 0 0)
(0.597446 0 0)
(0.61016 0 0)
(0.624127 0 0)
(0.63934 0 0)
(0.655716 0 0)
(0.673446 0 0)
(0.692054 0 0)
(0.712091 0 0)
(0.733067 0 0)
(0.755073 0 0)
(0.778097 0 0)
(0.802057 0 0)
(0.826893 0 0)
(0.852542 0 0)
(0.878934 0 0)
(0.905993 0 0)
(0.933639 0 0)
(0.961797 0 0)
(0.990327 0 0)
(1.01929 0 0)
(1.04833 0 0)
(1.0776 0 0)
(1.10694 0 0)
(1.13608 0 0)
(1.16506 0 0)
(1.19376 0 0)
(1.22203 0 0)
(1.24977 0 0)
(1.27687 0 0)
(1.30322 0 0)
(1.32869 0 0)
(1.35319 0 0)
(1.37659 0 0)
(1.39878 0 0)
(1.41975 0 0)
(1.4392 0 0)
(1.45728 0 0)
(1.47377 0 0)
(1.48857 0 0)
(1.50169 0 0)
(1.51301 0 0)
(1.52244 0 0)
(1.53018 0 0)
(1.536 0 0)
(1.53978 0 0)
(1.54171 0 0)
(1.54173 0 0)
(1.53984 0 0)
(1.53614 0 0)
(1.53056 0 0)
(1.52332 0 0)
(1.51435 0 0)
(1.50379 0 0)
(1.49173 0 0)
(1.47821 0 0)
(1.46351 0 0)
(1.44788 0 0)
(1.43064 0 0)
(1.41362 0 0)
(1.39462 0 0)
(1.37565 0 0)
(1.35632 0 0)
(1.33653 0 0)
(1.31649 0 0)
(1.29699 0 0)
(1.27678 0 0)
(1.25783 0 0)
(1.23798 0 0)
(1.21986 0 0)
(1.20129 0 0)
(1.18775 0 0)
(1.19457 0 0)
(1.35392 0 0)
(1.83983 0 0)
(3.0556 0 0)
(4.88634 0 0)
(6.08854 0 0)
(6.62946 0 0)
(6.67954 0 0)
(6.46169 0 0)
(6.14776 0 0)
(5.83816 0 0)
(5.57559 0 0)
(5.3726 0 0)
(5.22932 0 0)
(5.13708 0 0)
(5.08118 0 0)
(5.05235 0 0)
(5.03923 0 0)
(5.03416 0 0)
(5.03509 0 0)
(5.03502 0 0)
(5.0341 0 0)
(5.03287 0 0)
(5.02801 0 0)
(5.02124 0 0)
(5.01185 0 0)
(5.00067 0 0)
(4.9882 0 0)
(4.97441 0 0)
(4.95957 0 0)
(4.94505 0 0)
(4.92915 0 0)
(4.91052 0 0)
(4.89426 0 0)
(4.87927 0 0)
(4.86289 0 0)
(4.84613 0 0)
(4.82936 0 0)
(4.81263 0 0)
(4.79589 0 0)
(4.77918 0 0)
(4.7624 0 0)
(4.74631 0 0)
(4.73072 0 0)
(4.71285 0 0)
(4.69562 0 0)
(4.68125 0 0)
(4.66693 0 0)
(4.65099 0 0)
(4.63551 0 0)
(4.62102 0 0)
(4.60671 0 0)
(4.5928 0 0)
(4.57931 0 0)
(4.5662 0 0)
(4.55337 0 0)
(4.54115 0 0)
(4.53006 0 0)
(4.51937 0 0)
(4.50858 0 0)
(4.49815 0 0)
(4.48896 0 0)
(4.48068 0 0)
(4.47284 0 0)
(4.46561 0 0)
(4.45914 0 0)
(4.45347 0 0)
(4.44858 0 0)
(4.44451 0 0)
(4.44126 0 0)
(4.43887 0 0)
(4.43736 0 0)
(4.43675 0 0)
(4.43705 0 0)
(4.43828 0 0)
(4.44047 0 0)
(4.44362 0 0)
(4.44775 0 0)
(4.45287 0 0)
(4.459 0 0)
(4.46614 0 0)
(4.47431 0 0)
(4.4835 0 0)
(4.49373 0 0)
(4.505 0 0)
(4.51733 0 0)
(4.53072 0 0)
(4.54511 0 0)
(4.56008 0 0)
(4.57655 0 0)
(4.59521 0 0)
(4.6138 0 0)
(4.6322 0 0)
(4.65221 0 0)
(4.675 0 0)
(4.6976 0 0)
(4.72065 0 0)
(4.74481 0 0)
(4.76999 0 0)
(4.7963 0 0)
(4.82357 0 0)
(4.85158 0 0)
(4.88035 0 0)
(4.90992 0 0)
(4.94029 0 0)
(4.97142 0 0)
(5.00325 0 0)
(5.03577 0 0)
(5.06893 0 0)
(5.10271 0 0)
(5.13707 0 0)
(5.17197 0 0)
(5.20737 0 0)
(5.24324 0 0)
(5.27957 0 0)
(5.31637 0 0)
(5.35268 0 0)
(5.38918 0 0)
(5.42884 0 0)
(5.46784 0 0)
(5.50463 0 0)
(5.54095 0 0)
(5.57984 0 0)
(5.61901 0 0)
(5.65714 0 0)
(5.6953 0 0)
(5.73343 0 0)
(5.77143 0 0)
(5.80922 0 0)
(5.84677 0 0)
(5.88403 0 0)
(5.92096 0 0)
(5.95751 0 0)
(5.99364 0 0)
(6.0293 0 0)
(6.06445 0 0)
(6.09904 0 0)
(6.13304 0 0)
(6.1664 0 0)
(6.19908 0 0)
(6.23104 0 0)
(6.26249 0 0)
(6.29197 0 0)
(6.32042 0 0)
(6.35228 0 0)
(6.38067 0 0)
(6.40571 0 0)
(6.4297 0 0)
(6.45564 0 0)
(6.47988 0 0)
(6.50231 0 0)
(6.52388 0 0)
(6.54432 0 0)
(6.56361 0 0)
(6.58172 0 0)
(6.59864 0 0)
(6.61433 0 0)
(6.62879 0 0)
(6.64198 0 0)
(6.6539 0 0)
(6.66453 0 0)
(6.67385 0 0)
(6.68186 0 0)
(6.68854 0 0)
(6.69388 0 0)
(6.69787 0 0)
(6.70051 0 0)
(6.7018 0 0)
(6.70172 0 0)
(6.70028 0 0)
(6.69748 0 0)
(6.69332 0 0)
(6.68779 0 0)
(6.68092 0 0)
(6.67269 0 0)
(6.66312 0 0)
(6.65222 0 0)
(6.63999 0 0)
(6.62645 0 0)
(6.61161 0 0)
(6.59547 0 0)
(6.57807 0 0)
(6.55941 0 0)
(6.53951 0 0)
(6.51839 0 0)
(6.49607 0 0)
(6.47257 0 0)
(6.4479 0 0)
(6.4221 0 0)
(6.39519 0 0)
(6.36719 0 0)
(6.33813 0 0)
(6.30803 0 0)
(6.27692 0 0)
(6.24482 0 0)
(6.21178 0 0)
(6.17781 0 0)
(6.14294 0 0)
(6.10722 0 0)
(6.07065 0 0)
(6.03329 0 0)
(5.99516 0 0)
(5.95628 0 0)
(5.91671 0 0)
(5.87646 0 0)
(5.83557 0 0)
(5.79407 0 0)
(5.752 0 0)
(5.7094 0 0)
(5.66629 0 0)
(5.6227 0 0)
(5.57869 0 0)
(5.53426 0 0)
(5.48946 0 0)
(5.44435 0 0)
(5.39902 0 0)
(5.35369 0 0)
(5.30623 0 0)
(5.25633 0 0)
(5.20149 0 0)
)
;

boundaryField
{
    boundary
    {
        type            empty;
    }
    inlet
    {
        type            fixedValue;
        value           uniform (2.34893 0 0);
    }
    outlet
    {
        type            zeroGradient;
    }
}


// ************************************************************************* //
