/*--------------------------------*- C++ -*----------------------------------*\
  =========                 |
  \\      /  F ield         | OpenFOAM: The Open Source CFD Toolbox
   \\    /   O peration     | Website:  https://openfoam.org
    \\  /    A nd           | Version:  7
     \\/     M anipulation  |
\*---------------------------------------------------------------------------*/
FoamFile
{
    version     2.0;
    format      ascii;
    class       volScalarField;
    location    "0.00083";
    object      T;
}
// * * * * * * * * * * * * * * * * * * * * * * * * * * * * * * * * * * * * * //

dimensions      [0 0 0 1 0 0 0];

internalField   nonuniform List<scalar> 
125
(
301.499
301.498
301.496
301.494
301.492
301.49
301.489
301.487
301.485
301.483
301.481
301.479
301.476
301.474
301.473
301.474
301.479
301.499
301.561
301.74
302.253
303.716
307.883
319.612
350.849
421.495
541.801
692.719
847.249
994.448
1131.24
1252.68
1353.12
1438.05
1510.26
1567.82
1613.81
1653.16
1687.23
1717.17
1743.8
1767.73
1789.41
1809.21
1827.38
1844.16
1859.72
1874.21
1887.75
1900.44
1912.37
1923.61
1934.24
1944.3
1953.84
1962.91
1971.55
1979.78
1987.64
1995.15
2002.33
2009
2015.29
2021.38
2027.27
2032.97
2038.49
2043.85
2049.05
2054.1
2059
2063.77
2068.41
2072.92
2077.32
2081.6
2085.77
2089.84
2093.81
2097.69
2101.47
2105.17
2108.78
2112.31
2115.77
2119.15
2122.45
2125.69
2128.87
2131.97
2135.02
2138.01
2140.94
2143.81
2146.63
2149.39
2152.11
2154.78
2157.4
2159.97
2162.5
2164.98
2167.42
2169.82
2172.18
2174.51
2176.79
2179.04
2181.25
2183.42
2185.57
2187.67
2189.75
2191.79
2193.81
2195.79
2197.74
2199.67
2201.56
2203.43
2205.27
2207.08
2208.87
2210.62
2212.35
)
;

boundaryField
{
    boundary
    {
        type            empty;
    }
    inlet
    {
        type            fixedValue;
        value           nonuniform 0();
    }
    outlet
    {
        type            zeroGradient;
    }
    procBoundary1to0
    {
        type            processor;
        value           uniform 2214.05;
    }
    procBoundary1to3
    {
        type            processor;
        value           uniform 301.501;
    }
}


// ************************************************************************* //
