/*--------------------------------*- C++ -*----------------------------------*\
  =========                 |
  \\      /  F ield         | OpenFOAM: The Open Source CFD Toolbox
   \\    /   O peration     | Website:  https://openfoam.org
    \\  /    A nd           | Version:  7
     \\/     M anipulation  |
\*---------------------------------------------------------------------------*/
FoamFile
{
    version     2.0;
    format      ascii;
    class       volScalarField;
    location    "0.00096";
    object      H2O2;
}
// * * * * * * * * * * * * * * * * * * * * * * * * * * * * * * * * * * * * * //

dimensions      [0 0 0 0 0 0 0];

internalField   nonuniform List<scalar> 
125
(
1.993e-52
6.40371e-52
1.2732e-51
2.09795e-51
3.11466e-51
4.3233e-51
5.72376e-51
7.31586e-51
9.09929e-51
1.10736e-50
1.32382e-50
1.55921e-50
1.81346e-50
2.08644e-50
2.37802e-50
2.68809e-50
3.01653e-50
3.36324e-50
3.72816e-50
4.11126e-50
4.51259e-50
4.93223e-50
5.37034e-50
5.82716e-50
6.30297e-50
6.79814e-50
7.31307e-50
7.84823e-50
8.4041e-50
8.98123e-50
9.58018e-50
1.02015e-49
1.08459e-49
1.15141e-49
1.22067e-49
1.29246e-49
1.36687e-49
1.44402e-49
1.52401e-49
1.607e-49
1.69313e-49
1.78261e-49
1.87562e-49
1.9724e-49
2.0732e-49
2.17828e-49
2.28794e-49
2.40247e-49
2.52216e-49
2.64731e-49
2.7782e-49
2.91507e-49
3.05813e-49
3.20755e-49
3.36341e-49
3.52572e-49
3.69442e-49
3.86932e-49
4.05012e-49
4.23642e-49
4.42769e-49
4.62329e-49
4.82246e-49
5.02432e-49
5.22791e-49
5.4322e-49
5.63609e-49
5.83844e-49
6.03811e-49
6.23396e-49
6.42489e-49
6.60988e-49
6.78796e-49
6.9583e-49
7.12017e-49
7.27297e-49
7.41625e-49
7.54971e-49
7.67319e-49
7.78665e-49
7.89021e-49
7.98408e-49
8.06861e-49
8.14419e-49
8.21133e-49
8.27057e-49
8.32248e-49
8.36768e-49
8.40676e-49
8.44033e-49
8.46899e-49
8.49329e-49
8.51377e-49
8.53091e-49
8.54517e-49
8.55696e-49
8.56665e-49
8.57457e-49
8.581e-49
8.5862e-49
8.59037e-49
8.5937e-49
8.59635e-49
8.59845e-49
8.60011e-49
8.60141e-49
8.60244e-49
8.60325e-49
8.60388e-49
8.60439e-49
8.60479e-49
8.60512e-49
8.60539e-49
8.60561e-49
8.60581e-49
8.60599e-49
8.60615e-49
8.6063e-49
8.60645e-49
8.60659e-49
8.60669e-49
8.60669e-49
8.60624e-49
8.60404e-49
8.59493e-49
)
;

boundaryField
{
    boundary
    {
        type            empty;
    }
    inlet
    {
        type            fixedValue;
        value           uniform 0;
    }
    outlet
    {
        type            zeroGradient;
    }
    procBoundary2to3
    {
        type            processor;
        value           uniform 8.57689e-49;
    }
}


// ************************************************************************* //
