/*--------------------------------*- C++ -*----------------------------------*\
  =========                 |
  \\      /  F ield         | OpenFOAM: The Open Source CFD Toolbox
   \\    /   O peration     | Website:  https://openfoam.org
    \\  /    A nd           | Version:  7
     \\/     M anipulation  |
\*---------------------------------------------------------------------------*/
FoamFile
{
    version     2.0;
    format      ascii;
    class       volScalarField;
    location    "0.00096";
    object      HO2;
}
// * * * * * * * * * * * * * * * * * * * * * * * * * * * * * * * * * * * * * //

dimensions      [0 0 0 0 0 0 0];

internalField   nonuniform List<scalar> 
125
(
5.59249e-38
1.27285e-37
1.98928e-37
2.70654e-37
3.42412e-37
4.14189e-37
4.85973e-37
5.57756e-37
6.29528e-37
7.01276e-37
7.72986e-37
8.44637e-37
9.16209e-37
9.87679e-37
1.05902e-36
1.13022e-36
1.20124e-36
1.27209e-36
1.34275e-36
1.41323e-36
1.48354e-36
1.55371e-36
1.62378e-36
1.69378e-36
1.76378e-36
1.83383e-36
1.904e-36
1.97435e-36
2.04496e-36
2.11589e-36
2.18721e-36
2.25898e-36
2.33125e-36
2.40409e-36
2.47757e-36
2.55173e-36
2.62665e-36
2.7024e-36
2.77908e-36
2.85677e-36
2.9356e-36
3.01569e-36
3.09719e-36
3.18026e-36
3.26509e-36
3.35187e-36
3.44081e-36
3.53211e-36
3.62599e-36
3.72266e-36
3.82231e-36
3.92511e-36
4.03119e-36
4.14067e-36
4.2536e-36
4.36997e-36
4.48972e-36
4.61273e-36
4.73878e-36
4.8676e-36
4.99883e-36
5.13204e-36
5.26673e-36
5.40235e-36
5.53829e-36
5.67388e-36
5.80846e-36
5.94131e-36
6.07176e-36
6.19913e-36
6.32276e-36
6.44206e-36
6.55648e-36
6.66556e-36
6.76889e-36
6.86617e-36
6.95716e-36
7.04173e-36
7.11983e-36
7.19148e-36
7.25679e-36
7.31594e-36
7.36915e-36
7.41672e-36
7.45897e-36
7.49625e-36
7.52893e-36
7.5574e-36
7.58203e-36
7.60322e-36
7.62133e-36
7.63671e-36
7.64969e-36
7.66057e-36
7.66965e-36
7.67717e-36
7.68336e-36
7.68844e-36
7.69257e-36
7.69592e-36
7.69862e-36
7.70078e-36
7.7025e-36
7.70387e-36
7.70496e-36
7.70582e-36
7.70649e-36
7.70703e-36
7.70745e-36
7.70778e-36
7.70805e-36
7.70827e-36
7.70845e-36
7.7086e-36
7.70873e-36
7.70885e-36
7.70896e-36
7.70906e-36
7.70915e-36
7.70924e-36
7.70932e-36
7.70935e-36
7.70917e-36
7.7082e-36
7.70412e-36
)
;

boundaryField
{
    boundary
    {
        type            empty;
    }
    inlet
    {
        type            fixedValue;
        value           uniform 0;
    }
    outlet
    {
        type            zeroGradient;
    }
    procBoundary2to3
    {
        type            processor;
        value           uniform 7.69605e-36;
    }
}


// ************************************************************************* //
