/*--------------------------------*- C++ -*----------------------------------*\
  =========                 |
  \\      /  F ield         | OpenFOAM: The Open Source CFD Toolbox
   \\    /   O peration     | Website:  https://openfoam.org
    \\  /    A nd           | Version:  7
     \\/     M anipulation  |
\*---------------------------------------------------------------------------*/
FoamFile
{
    version     2.0;
    format      ascii;
    class       surfaceScalarField;
    location    "0.00096";
    object      phi;
}
// * * * * * * * * * * * * * * * * * * * * * * * * * * * * * * * * * * * * * //

dimensions      [1 0 -1 0 0 0 0];

internalField   nonuniform List<scalar> 
124
(
6.93092e-06
6.93094e-06
6.93096e-06
6.93097e-06
6.93097e-06
6.93097e-06
6.93098e-06
6.93098e-06
6.93098e-06
6.93098e-06
6.93099e-06
6.931e-06
6.93102e-06
6.93104e-06
6.93107e-06
6.9311e-06
6.93114e-06
6.93119e-06
6.93125e-06
6.93131e-06
6.93139e-06
6.93147e-06
6.93155e-06
6.93164e-06
6.93173e-06
6.93183e-06
6.93192e-06
6.932e-06
6.93208e-06
6.93215e-06
6.93221e-06
6.93226e-06
6.9323e-06
6.93232e-06
6.93232e-06
6.93231e-06
6.93228e-06
6.93223e-06
6.93216e-06
6.93206e-06
6.93195e-06
6.93181e-06
6.93164e-06
6.93144e-06
6.93122e-06
6.93096e-06
6.93067e-06
6.93034e-06
6.92997e-06
6.92955e-06
6.92909e-06
6.92859e-06
6.92803e-06
6.92743e-06
6.92677e-06
6.92606e-06
6.9253e-06
6.92449e-06
6.92363e-06
6.92273e-06
6.92178e-06
6.9208e-06
6.91978e-06
6.91873e-06
6.91766e-06
6.91657e-06
6.91547e-06
6.91438e-06
6.91328e-06
6.9122e-06
6.91114e-06
6.9101e-06
6.90909e-06
6.90811e-06
6.90718e-06
6.90629e-06
6.90544e-06
6.90465e-06
6.90391e-06
6.90322e-06
6.90258e-06
6.902e-06
6.90147e-06
6.90098e-06
6.90055e-06
6.90016e-06
6.89982e-06
6.89951e-06
6.89924e-06
6.89901e-06
6.89881e-06
6.89864e-06
6.89849e-06
6.89836e-06
6.89826e-06
6.89817e-06
6.8981e-06
6.89804e-06
6.89799e-06
6.89796e-06
6.89793e-06
6.8979e-06
6.89789e-06
6.89788e-06
6.89787e-06
6.89786e-06
6.89786e-06
6.89786e-06
6.89786e-06
6.89786e-06
6.89786e-06
6.89787e-06
6.89787e-06
6.89787e-06
6.89788e-06
6.89788e-06
6.89789e-06
6.89789e-06
6.8979e-06
6.8979e-06
6.8979e-06
6.89791e-06
6.89791e-06
6.89791e-06
)
;

boundaryField
{
    boundary
    {
        type            empty;
        value           nonuniform 0();
    }
    inlet
    {
        type            calculated;
        value           uniform -6.93089e-06;
    }
    outlet
    {
        type            calculated;
        value           nonuniform 0();
    }
    procBoundary2to3
    {
        type            processor;
        value           uniform 6.89791e-06;
    }
}


// ************************************************************************* //
