/*--------------------------------*- C++ -*----------------------------------*\
  =========                 |
  \\      /  F ield         | OpenFOAM: The Open Source CFD Toolbox
   \\    /   O peration     | Website:  https://openfoam.org
    \\  /    A nd           | Version:  7
     \\/     M anipulation  |
\*---------------------------------------------------------------------------*/
FoamFile
{
    version     2.0;
    format      ascii;
    class       volScalarField;
    location    "0.00082";
    object      H2;
}
// * * * * * * * * * * * * * * * * * * * * * * * * * * * * * * * * * * * * * //

dimensions      [0 0 0 0 0 0 0];

internalField   nonuniform List<scalar> 
500
(
0.0285116
0.0285116
0.0285116
0.0285116
0.0285116
0.0285116
0.0285116
0.0285116
0.0285116
0.0285116
0.0285116
0.0285116
0.0285116
0.0285116
0.0285116
0.0285116
0.0285116
0.0285116
0.0285116
0.0285116
0.0285116
0.0285116
0.0285116
0.0285116
0.0285116
0.0285116
0.0285116
0.0285116
0.0285116
0.0285116
0.0285116
0.0285116
0.0285116
0.0285116
0.0285116
0.0285116
0.0285116
0.0285116
0.0285116
0.0285116
0.0285116
0.0285116
0.0285116
0.0285116
0.0285116
0.0285116
0.0285116
0.0285116
0.0285116
0.0285116
0.0285116
0.0285116
0.0285116
0.0285116
0.0285116
0.0285116
0.0285116
0.0285116
0.0285116
0.0285116
0.0285116
0.0285116
0.0285116
0.0285116
0.0285116
0.0285116
0.0285116
0.0285116
0.0285116
0.0285116
0.0285116
0.0285116
0.0285116
0.0285116
0.0285116
0.0285116
0.0285116
0.0285116
0.0285116
0.0285116
0.0285116
0.0285116
0.0285116
0.0285116
0.0285116
0.0285116
0.0285116
0.0285116
0.0285116
0.0285116
0.0285116
0.0285116
0.0285116
0.0285116
0.0285116
0.0285116
0.0285116
0.0285116
0.0285116
0.0285116
0.0285116
0.0285116
0.0285116
0.0285116
0.0285116
0.0285116
0.0285116
0.0285116
0.0285116
0.0285116
0.0285116
0.0285116
0.0285116
0.0285116
0.0285116
0.0285116
0.0285116
0.0285116
0.0285116
0.0285116
0.0285116
0.0285116
0.0285116
0.0285116
0.0285116
0.0285116
0.0285116
0.0285116
0.0285116
0.0285116
0.0285116
0.0285116
0.0285116
0.0285116
0.0285116
0.0285116
0.0285116
0.0285116
0.0285116
0.0285116
0.0285116
0.0285116
0.0285116
0.0285116
0.0285116
0.0285116
0.0285116
0.0285116
0.0285116
0.0285116
0.0285116
0.0285116
0.0285116
0.0285116
0.0285116
0.0285116
0.0285116
0.0285116
0.0285116
0.0285116
0.0285116
0.0285116
0.0285116
0.0285116
0.0285116
0.0285116
0.0285116
0.0285116
0.0285116
0.0285116
0.0285116
0.0285116
0.0285116
0.0285116
0.0285116
0.0285116
0.0285116
0.0285116
0.0285116
0.0285116
0.0285116
0.0285116
0.0285116
0.0285116
0.0285116
0.0285116
0.0285116
0.0285116
0.0285116
0.0285116
0.0285116
0.0285116
0.0285116
0.0285116
0.0285116
0.0285116
0.0285116
0.0285116
0.0285116
0.0285116
0.0285116
0.0285116
0.0285116
0.0285116
0.0285116
0.0285116
0.0285116
0.0285116
0.0285116
0.0285116
0.0285116
0.0285116
0.0285116
0.0285116
0.0285116
0.0285116
0.0285116
0.0285116
0.0285116
0.0285116
0.0285116
0.0285116
0.0285116
0.0285116
0.0285116
0.0285116
0.0285116
0.0285116
0.0285116
0.0285116
0.0285116
0.0285116
0.0285116
0.0285116
0.0285116
0.0285116
0.0285116
0.0285116
0.0285116
0.0285116
0.0285116
0.0285116
0.0285116
0.0285116
0.0285116
0.0285116
0.0285116
0.0285116
0.0285116
0.0285116
0.0285116
0.0285116
0.0285116
0.0285116
0.0285116
0.0285116
0.0285116
0.0285116
0.0285116
0.0285116
0.0285116
0.0285115
0.0285115
0.0285114
0.0285112
0.0285108
0.0285099
0.0285081
0.0285043
0.0284964
0.0284799
0.0284455
0.0283742
0.028227
0.0279286
0.0273483
0.0263117
0.0246768
0.0224724
0.0198721
0.0169706
0.0139035
0.0109891
0.00858168
0.00683177
0.00557301
0.00483337
0.00437537
0.00409344
0.00391813
0.00380612
0.00373121
0.00367783
0.00363684
0.00360293
0.00357307
0.0035455
0.00351927
0.00349385
0.00346896
0.00344445
0.00342028
0.00339643
0.00337288
0.00334966
0.00332677
0.00330422
0.00328203
0.0032602
0.00323873
0.00321763
0.00319689
0.00317713
0.00315817
0.00313947
0.00312103
0.00310284
0.0030849
0.00306721
0.00304976
0.00303254
0.00301556
0.00299881
0.00298228
0.00296597
0.00294988
0.002934
0.00291833
0.00290286
0.00288759
0.00287251
0.00285762
0.00284292
0.00282841
0.00281407
0.0027999
0.00278591
0.00277209
0.00275843
0.00274493
0.00273159
0.00271841
0.00270537
0.00269249
0.00267976
0.00266717
0.00265472
0.00264241
0.00263024
0.00261821
0.0026063
0.00259454
0.0025829
0.00257139
0.00256
0.00254875
0.00253761
0.0025266
0.0025157
0.00250493
0.00249427
0.00248373
0.0024733
0.00246299
0.00245279
0.00244269
0.00243271
0.00242283
0.00241307
0.0024034
0.00239385
0.00238439
0.00237504
0.00236579
0.00235664
0.0023476
0.00233862
0.0023297
0.00232086
0.00231211
0.00230345
0.00229486
0.00228636
0.00227793
0.00226959
0.00226132
0.00225312
0.002245
0.00223695
0.00222897
0.00222106
0.00221323
0.00220546
0.00219775
0.00219012
0.00218254
0.00217503
0.00216759
0.00216021
0.00215288
0.00214562
0.00213842
0.00213128
0.0021242
0.00211717
0.0021102
0.00210328
0.00209643
0.00208962
0.00208287
0.00207618
0.00206953
0.00206294
0.0020564
0.00204991
0.00204348
0.00203709
0.00203075
0.00202446
0.00201822
0.00201202
0.00200587
0.00199977
0.00199372
0.00198771
0.00198174
0.00197582
0.00196995
0.00196412
0.00195833
0.00195258
0.00194688
0.00194122
0.0019356
0.00193002
0.00192449
0.00191899
0.00191354
0.00190813
0.00190275
0.00189742
0.00189213
0.00188688
0.00188167
0.0018765
0.00187137
0.00186628
0.00186123
0.00185622
0.00185126
0.00184633
0.00184145
0.00183661
0.00183181
0.00182705
0.00182234
0.00181767
0.00181305
0.00180847
0.00180393
0.00179944
0.001795
0.00179061
0.00178626
0.00178197
0.00177772
0.00177353
0.00176938
0.0017653
0.00176126
0.00175729
0.00175337
0.0017495
0.0017457
0.00174196
0.00173829
0.00173468
0.00173114
0.00172766
0.00172426
0.00172094
0.00171769
0.00171452
0.00171143
0.00170843
0.00170551
0.0017027
0.00169998
0.00169737
0.00169488
0.00169251
0.00169028
0.0016882
0.0016863
0.0016846
0.00168313
0.00168191
0.00168098
0.00168036
0.00168004
)
;

boundaryField
{
    boundary
    {
        type            empty;
    }
    inlet
    {
        type            fixedValue;
        value           uniform 0.0285116;
    }
    outlet
    {
        type            zeroGradient;
    }
}


// ************************************************************************* //
