/*--------------------------------*- C++ -*----------------------------------*\
  =========                 |
  \\      /  F ield         | OpenFOAM: The Open Source CFD Toolbox
   \\    /   O peration     | Website:  https://openfoam.org
    \\  /    A nd           | Version:  7
     \\/     M anipulation  |
\*---------------------------------------------------------------------------*/
FoamFile
{
    version     2.0;
    format      ascii;
    class       volScalarField;
    location    "0.00082";
    object      H2O;
}
// * * * * * * * * * * * * * * * * * * * * * * * * * * * * * * * * * * * * * //

dimensions      [0 0 0 0 0 0 0];

internalField   nonuniform List<scalar> 
500
(
7.88246e-48
2.27767e-47
4.0972e-47
6.13888e-47
8.32928e-47
1.06185e-46
1.29726e-46
1.53686e-46
1.77907e-46
2.02285e-46
2.26754e-46
2.51273e-46
2.75822e-46
3.00397e-46
3.25004e-46
3.49658e-46
3.74379e-46
3.99192e-46
4.2412e-46
4.49188e-46
4.74418e-46
4.99828e-46
5.25438e-46
5.51261e-46
5.77315e-46
6.03614e-46
6.30175e-46
6.57021e-46
6.84178e-46
7.1168e-46
7.39569e-46
7.67898e-46
7.96728e-46
8.26132e-46
8.56195e-46
8.8701e-46
9.18681e-46
9.51319e-46
9.85041e-46
1.01997e-45
1.05621e-45
1.09389e-45
1.13311e-45
1.17396e-45
1.21651e-45
1.26081e-45
1.30687e-45
1.35467e-45
1.40417e-45
1.45526e-45
1.50782e-45
1.56167e-45
1.61659e-45
1.67232e-45
1.72857e-45
1.78504e-45
1.84138e-45
1.89724e-45
1.95226e-45
2.00611e-45
2.05844e-45
2.10893e-45
2.15731e-45
2.20333e-45
2.24677e-45
2.28748e-45
2.32535e-45
2.3603e-45
2.39232e-45
2.42143e-45
2.44769e-45
2.4712e-45
2.49209e-45
2.51051e-45
2.52663e-45
2.54063e-45
2.5527e-45
2.56302e-45
2.57179e-45
2.57918e-45
2.58537e-45
2.5905e-45
2.59474e-45
2.59822e-45
2.60104e-45
2.60332e-45
2.60515e-45
2.60661e-45
2.60777e-45
2.60868e-45
2.60939e-45
2.60995e-45
2.61038e-45
2.61071e-45
2.61097e-45
2.61116e-45
2.61132e-45
2.61144e-45
2.61153e-45
2.6116e-45
2.61167e-45
2.61172e-45
2.61176e-45
2.6118e-45
2.61184e-45
2.61187e-45
2.61191e-45
2.61194e-45
2.61198e-45
2.61201e-45
2.61205e-45
2.61209e-45
2.61213e-45
2.61217e-45
2.61221e-45
2.61226e-45
2.61231e-45
2.61236e-45
2.61241e-45
2.61246e-45
2.61251e-45
2.61253e-45
2.61246e-45
2.61201e-45
2.61019e-45
2.60682e-45
2.6069e-45
2.60698e-45
2.60707e-45
2.60716e-45
2.60726e-45
2.60736e-45
2.60747e-45
2.60758e-45
2.6077e-45
2.60781e-45
2.60793e-45
2.60805e-45
2.60817e-45
2.6083e-45
2.60843e-45
2.60857e-45
2.60872e-45
2.60889e-45
2.60907e-45
2.60927e-45
2.6095e-45
2.60976e-45
2.61005e-45
2.61038e-45
2.61073e-45
2.61112e-45
2.61154e-45
2.61199e-45
2.61246e-45
2.61294e-45
2.61344e-45
2.61394e-45
2.61443e-45
2.61491e-45
2.61538e-45
2.61582e-45
2.61623e-45
2.61662e-45
2.61697e-45
2.61729e-45
2.61757e-45
2.61782e-45
2.61805e-45
2.61825e-45
2.61844e-45
2.61861e-45
2.61877e-45
2.61893e-45
2.61908e-45
2.61924e-45
2.61941e-45
2.61959e-45
2.61979e-45
2.62e-45
2.62022e-45
2.62046e-45
2.62071e-45
2.62097e-45
2.62125e-45
2.62153e-45
2.62182e-45
2.62212e-45
2.62242e-45
2.62271e-45
2.623e-45
2.62329e-45
2.62357e-45
2.62384e-45
2.62412e-45
2.62446e-45
2.62501e-45
2.62641e-45
2.63083e-45
2.64599e-45
2.69904e-45
2.885e-45
3.53465e-45
5.79453e-45
1.36212e-44
4.06155e-44
1.33369e-43
4.51031e-43
1.53609e-42
5.23538e-42
1.78353e-41
6.07575e-41
2.07185e-40
7.0818e-40
2.43018e-39
8.3865e-39
2.91566e-38
1.02293e-37
3.62711e-37
1.30135e-36
4.72786e-36
1.73962e-35
6.48068e-35
2.4424e-34
9.30128e-34
3.5744e-33
1.3841e-32
5.39286e-32
2.11151e-31
8.2983e-31
3.27031e-30
1.29137e-29
5.10628e-29
2.02088e-28
8.00206e-28
3.1694e-27
1.25541e-26
4.97248e-26
1.96925e-25
7.79731e-25
3.08665e-24
1.22156e-23
4.83296e-23
1.91148e-22
7.5573e-22
2.98666e-21
1.17978e-20
4.6579e-20
1.8379e-19
7.24716e-19
2.8556e-18
1.13068e-17
4.45968e-17
1.7539e-16
6.88867e-16
2.70317e-15
1.05996e-14
4.15379e-14
1.62702e-13
6.371e-13
2.49436e-12
9.76618e-12
3.8245e-11
1.4982e-10
5.87162e-10
2.30236e-09
9.03299e-09
3.54593e-08
1.39268e-07
5.47175e-07
2.15e-06
8.44298e-06
3.30779e-05
0.000128669
0.000490367
0.00176898
0.00561413
0.0142654
0.0280415
0.0454489
0.0665058
0.0912559
0.117213
0.140283
0.15778
0.172834
0.181601
0.187489
0.191505
0.194332
0.196412
0.198019
0.199324
0.20043
0.2014
0.202274
0.203075
0.203822
0.204523
0.205186
0.205816
0.206417
0.206992
0.207543
0.208071
0.20858
0.20907
0.209542
0.209997
0.210437
0.210862
0.211272
0.211657
0.212023
0.212381
0.21273
0.21307
0.213402
0.213727
0.214044
0.214354
0.214657
0.214954
0.215245
0.215529
0.215808
0.21608
0.216348
0.21661
0.216867
0.217119
0.217367
0.217609
0.217848
0.218082
0.218311
0.218537
0.218759
0.218977
0.219191
0.219401
0.219608
0.219812
0.220012
0.220209
0.220403
0.220594
0.220782
0.220967
0.22115
0.22133
0.221507
0.221681
0.221853
0.222023
0.222191
0.222356
0.222519
0.22268
0.222838
0.222995
0.22315
0.223303
0.223454
0.223603
0.223751
0.223896
0.224041
0.224183
0.224324
0.224463
0.224601
0.224737
0.224871
0.225004
0.225136
0.225266
0.225395
0.225523
0.22565
0.225775
0.225899
0.226021
0.226142
0.226263
0.226381
0.226499
0.226615
0.226731
0.226845
0.226958
0.227069
0.22718
0.22729
0.227398
0.227506
0.227612
0.227717
0.227822
0.227925
0.228027
0.228128
0.228229
0.228328
0.228427
0.228524
0.228621
0.228717
0.228812
0.228906
0.228999
0.229092
0.229183
0.229274
0.229364
0.229453
0.229542
0.229629
0.229716
0.229802
0.229888
0.229972
0.230056
0.23014
0.230222
0.230304
0.230385
0.230466
0.230545
0.230624
0.230703
0.230781
0.230858
0.230934
0.23101
0.231085
0.23116
0.231234
0.231307
0.23138
0.231453
0.231524
0.231595
0.231666
0.231736
0.231805
0.231874
0.231943
0.232011
0.232078
0.232145
0.232211
0.232277
0.232343
0.232408
0.232473
0.232537
0.232601
0.232664
0.232728
0.23279
0.232853
0.232915
0.232977
0.233038
0.233099
0.23316
0.233221
0.233282
0.233342
0.233402
0.233462
0.233522
0.233582
0.233642
0.233701
0.233761
0.233821
0.23388
0.23394
0.234
0.23406
0.23412
0.234181
0.234242
0.234303
0.234364
0.234426
0.234488
0.234551
0.234614
0.234677
0.234742
0.234806
0.234871
0.234935
0.234998
0.235057
0.235109
0.235144
)
;

boundaryField
{
    boundary
    {
        type            empty;
    }
    inlet
    {
        type            fixedValue;
        value           uniform 0;
    }
    outlet
    {
        type            zeroGradient;
    }
}


// ************************************************************************* //
