/*--------------------------------*- C++ -*----------------------------------*\
  =========                 |
  \\      /  F ield         | OpenFOAM: The Open Source CFD Toolbox
   \\    /   O peration     | Website:  https://openfoam.org
    \\  /    A nd           | Version:  7
     \\/     M anipulation  |
\*---------------------------------------------------------------------------*/
FoamFile
{
    version     2.0;
    format      ascii;
    class       volScalarField;
    location    "0.00082";
    object      O;
}
// * * * * * * * * * * * * * * * * * * * * * * * * * * * * * * * * * * * * * //

dimensions      [0 0 0 0 0 0 0];

internalField   nonuniform List<scalar> 
500
(
1.57735e-47
3.76317e-47
5.96051e-47
8.1573e-47
1.03501e-46
1.25371e-46
1.47173e-46
1.68896e-46
1.90534e-46
2.12084e-46
2.33546e-46
2.54927e-46
2.76237e-46
2.97491e-46
3.18707e-46
3.39908e-46
3.61118e-46
3.82362e-46
4.03663e-46
4.25045e-46
4.46529e-46
4.68134e-46
4.89879e-46
5.11778e-46
5.33848e-46
5.56105e-46
5.78567e-46
6.01255e-46
6.24195e-46
6.47418e-46
6.70962e-46
6.94871e-46
7.192e-46
7.44008e-46
7.69365e-46
7.95347e-46
8.22035e-46
8.49517e-46
8.77881e-46
9.07218e-46
9.37615e-46
9.69155e-46
1.00191e-45
1.03595e-45
1.07131e-45
1.10803e-45
1.14611e-45
1.18553e-45
1.22624e-45
1.26817e-45
1.31122e-45
1.35524e-45
1.40008e-45
1.44554e-45
1.4914e-45
1.53743e-45
1.58337e-45
1.62897e-45
1.67395e-45
1.71805e-45
1.76102e-45
1.8026e-45
1.84259e-45
1.88077e-45
1.91699e-45
1.95111e-45
1.98301e-45
2.01264e-45
2.03996e-45
2.06497e-45
2.08771e-45
2.10823e-45
2.12661e-45
2.14296e-45
2.1574e-45
2.17006e-45
2.18109e-45
2.19062e-45
2.1988e-45
2.20577e-45
2.21167e-45
2.21663e-45
2.22077e-45
2.2242e-45
2.22703e-45
2.22934e-45
2.23122e-45
2.23274e-45
2.23396e-45
2.23493e-45
2.2357e-45
2.23631e-45
2.23679e-45
2.23716e-45
2.23745e-45
2.23768e-45
2.23786e-45
2.23799e-45
2.2381e-45
2.23819e-45
2.23826e-45
2.23831e-45
2.23836e-45
2.2384e-45
2.23844e-45
2.23847e-45
2.2385e-45
2.23854e-45
2.23857e-45
2.2386e-45
2.23863e-45
2.23867e-45
2.2387e-45
2.23874e-45
2.23878e-45
2.23882e-45
2.23886e-45
2.2389e-45
2.23894e-45
2.23898e-45
2.239e-45
2.23898e-45
2.23881e-45
2.23821e-45
2.2364e-45
2.23376e-45
2.23383e-45
2.2339e-45
2.23398e-45
2.23406e-45
2.23415e-45
2.23424e-45
2.23434e-45
2.23444e-45
2.23455e-45
2.23466e-45
2.23478e-45
2.23491e-45
2.23504e-45
2.23518e-45
2.23534e-45
2.23551e-45
2.23569e-45
2.2359e-45
2.23613e-45
2.23638e-45
2.23666e-45
2.23696e-45
2.23729e-45
2.23765e-45
2.23802e-45
2.23841e-45
2.23881e-45
2.23922e-45
2.23964e-45
2.24005e-45
2.24045e-45
2.24084e-45
2.24122e-45
2.24158e-45
2.24191e-45
2.24223e-45
2.24252e-45
2.2428e-45
2.24305e-45
2.24328e-45
2.2435e-45
2.2437e-45
2.24389e-45
2.24407e-45
2.24424e-45
2.24441e-45
2.24458e-45
2.24475e-45
2.24492e-45
2.24509e-45
2.24526e-45
2.24544e-45
2.24563e-45
2.24582e-45
2.24602e-45
2.24622e-45
2.24643e-45
2.24664e-45
2.24686e-45
2.24707e-45
2.24729e-45
2.24752e-45
2.24774e-45
2.24797e-45
2.24822e-45
2.24856e-45
2.24924e-45
2.25114e-45
2.2575e-45
2.27978e-45
2.35878e-45
2.63856e-45
3.62504e-45
7.08492e-45
1.91538e-44
6.10227e-44
2.05483e-43
7.01229e-43
2.39342e-42
8.13912e-42
2.75469e-41
9.2767e-41
3.10837e-40
1.03638e-39
3.43867e-39
1.13551e-38
3.7323e-38
1.22122e-37
3.97837e-37
1.29053e-36
4.16917e-36
1.34157e-35
4.30063e-35
1.37366e-34
4.37246e-34
1.38724e-33
4.38766e-33
1.38373e-32
4.35194e-32
1.36524e-31
4.27277e-31
1.33432e-30
4.15852e-30
1.29366e-29
4.01767e-29
1.24587e-28
3.85815e-28
1.19332e-27
3.6869e-27
1.13802e-26
3.50965e-26
1.08156e-25
3.33074e-25
1.02511e-24
3.15324e-24
9.69441e-24
2.97901e-23
9.14987e-23
2.80898e-22
8.61924e-22
2.64343e-21
8.10282e-21
2.48235e-20
7.60049e-20
2.32575e-19
7.14483e-19
2.1898e-18
6.6948e-18
2.04459e-17
6.2406e-17
1.90414e-16
5.80888e-16
1.77199e-15
5.40578e-15
1.64942e-14
5.03413e-14
1.53697e-13
4.6944e-13
1.43443e-12
4.38504e-12
1.3411e-11
4.10336e-11
1.25603e-10
3.84646e-10
1.17882e-09
3.62115e-09
1.12295e-08
3.61708e-08
1.32511e-07
6.51089e-07
4.36144e-06
2.78114e-05
0.000130376
0.000488617
0.00132841
0.00259679
0.00395046
0.00506443
0.00582131
0.00625537
0.00642341
0.00644307
0.00637294
0.0062515
0.00610315
0.00594276
0.00577917
0.00561743
0.00546034
0.00530933
0.005165
0.00502752
0.00489678
0.00477252
0.00465443
0.00454215
0.00443532
0.0043336
0.00423665
0.00414417
0.00405586
0.00397146
0.00389072
0.00381342
0.00373937
0.00366842
0.00360248
0.00354015
0.0034799
0.0034216
0.00336515
0.00331046
0.00325745
0.00320603
0.00315614
0.0031077
0.00306066
0.00301495
0.00297052
0.00292731
0.00288528
0.00284437
0.00280455
0.00276577
0.00272799
0.00269117
0.00265528
0.00262028
0.00258614
0.00255283
0.00252032
0.00248858
0.00245758
0.0024273
0.00239772
0.0023688
0.00234053
0.00231288
0.00228584
0.00225938
0.00223349
0.00220814
0.00218332
0.00215901
0.00213519
0.00211185
0.00208897
0.00206654
0.00204454
0.00202296
0.00200179
0.00198102
0.00196062
0.0019406
0.00192093
0.00190162
0.00188264
0.001864
0.00184568
0.00182766
0.00180996
0.00179255
0.00177543
0.00175859
0.00174203
0.00172575
0.00170972
0.00169397
0.00167847
0.00166323
0.00164821
0.00163337
0.00161876
0.00160437
0.0015902
0.00157624
0.0015625
0.00154896
0.00153562
0.00152249
0.00150955
0.00149679
0.00148423
0.00147185
0.00145964
0.00144762
0.00143576
0.00142408
0.00141255
0.0014012
0.00139
0.00137895
0.00136806
0.00135732
0.00134672
0.00133627
0.00132595
0.00131578
0.00130574
0.00129583
0.00128605
0.00127641
0.00126688
0.00125748
0.0012482
0.00123903
0.00122999
0.00122105
0.00121223
0.00120352
0.00119492
0.00118643
0.00117804
0.00116975
0.00116156
0.00115348
0.00114549
0.0011376
0.0011298
0.0011221
0.00111449
0.00110698
0.00109955
0.00109221
0.00108496
0.00107779
0.00107071
0.00106371
0.00105679
0.00104996
0.0010432
0.00103653
0.00102993
0.0010234
0.00101696
0.00101058
0.00100428
0.000998053
0.000991895
0.000985806
0.000979785
0.000973832
0.000967945
0.000962123
0.000956365
0.000950669
0.000945035
0.000939462
0.000933948
0.000928493
0.000923095
0.000917753
0.000912466
0.000907234
0.000902055
0.000896927
0.000891851
0.000886825
0.000881848
0.000876918
0.000872036
0.0008672
0.000862408
0.00085766
0.000852955
0.000848292
0.000843669
0.000839086
0.000834541
0.000830033
0.00082556
0.000821122
0.000816717
0.000812344
0.000808001
0.000803687
0.0007994
0.000795139
0.000790902
0.000786688
0.000782495
0.000778322
0.000774169
0.000770035
0.000765922
0.000761831
0.00075777
0.000753751
0.000749795
0.000745942
0.000742264
0.000738892
0.000736066
0.000734229
)
;

boundaryField
{
    boundary
    {
        type            empty;
    }
    inlet
    {
        type            fixedValue;
        value           uniform 0;
    }
    outlet
    {
        type            zeroGradient;
    }
}


// ************************************************************************* //
