/*--------------------------------*- C++ -*----------------------------------*\
  =========                 |
  \\      /  F ield         | OpenFOAM: The Open Source CFD Toolbox
   \\    /   O peration     | Website:  https://openfoam.org
    \\  /    A nd           | Version:  7
     \\/     M anipulation  |
\*---------------------------------------------------------------------------*/
FoamFile
{
    version     2.0;
    format      ascii;
    class       volScalarField;
    location    "0.00082";
    object      OH;
}
// * * * * * * * * * * * * * * * * * * * * * * * * * * * * * * * * * * * * * //

dimensions      [0 0 0 0 0 0 0];

internalField   nonuniform List<scalar> 
500
(
9.38479e-48
1.8291e-47
2.4381e-47
2.8504e-47
3.12878e-47
3.3166e-47
3.44322e-47
3.5284e-47
3.58546e-47
3.62336e-47
3.64817e-47
3.66404e-47
3.67382e-47
3.67948e-47
3.68245e-47
3.68375e-47
3.68415e-47
3.6842e-47
3.68435e-47
3.68491e-47
3.68614e-47
3.6882e-47
3.69122e-47
3.69527e-47
3.70041e-47
3.70666e-47
3.71405e-47
3.72259e-47
3.73232e-47
3.74328e-47
3.75553e-47
3.76918e-47
3.78434e-47
3.80118e-47
3.81986e-47
3.84062e-47
3.86369e-47
3.88932e-47
3.91781e-47
3.94944e-47
3.9845e-47
4.0233e-47
4.06611e-47
4.1132e-47
4.16479e-47
4.2211e-47
4.28226e-47
4.34836e-47
4.41943e-47
4.49543e-47
4.57622e-47
4.66159e-47
4.75124e-47
4.84478e-47
4.94173e-47
5.04155e-47
5.14359e-47
5.24717e-47
5.35155e-47
5.45595e-47
5.5596e-47
5.66171e-47
5.76153e-47
5.85835e-47
5.95152e-47
6.04047e-47
6.12472e-47
6.20387e-47
6.27765e-47
6.34587e-47
6.40846e-47
6.46542e-47
6.51686e-47
6.56295e-47
6.60394e-47
6.6401e-47
6.67177e-47
6.6993e-47
6.72306e-47
6.74341e-47
6.76072e-47
6.77534e-47
6.7876e-47
6.79782e-47
6.80627e-47
6.81321e-47
6.81888e-47
6.82349e-47
6.8272e-47
6.83017e-47
6.83255e-47
6.83443e-47
6.83592e-47
6.83709e-47
6.83801e-47
6.83873e-47
6.83929e-47
6.83973e-47
6.84008e-47
6.84036e-47
6.84059e-47
6.84078e-47
6.84094e-47
6.84108e-47
6.8412e-47
6.84132e-47
6.84143e-47
6.84153e-47
6.84164e-47
6.84175e-47
6.84186e-47
6.84197e-47
6.84208e-47
6.8422e-47
6.84233e-47
6.84246e-47
6.84259e-47
6.84273e-47
6.84288e-47
6.84303e-47
6.84319e-47
6.84334e-47
6.84346e-47
6.8435e-47
6.84326e-47
6.84284e-47
6.8431e-47
6.84339e-47
6.84373e-47
6.8441e-47
6.84452e-47
6.84496e-47
6.84541e-47
6.84587e-47
6.84633e-47
6.84678e-47
6.8472e-47
6.8476e-47
6.84796e-47
6.84829e-47
6.84859e-47
6.84887e-47
6.84912e-47
6.84935e-47
6.84958e-47
6.84981e-47
6.85004e-47
6.85029e-47
6.85057e-47
6.85087e-47
6.8512e-47
6.85156e-47
6.85195e-47
6.85236e-47
6.8528e-47
6.85326e-47
6.85374e-47
6.85424e-47
6.85474e-47
6.85525e-47
6.85577e-47
6.85629e-47
6.85682e-47
6.85734e-47
6.85787e-47
6.8584e-47
6.85892e-47
6.85945e-47
6.85999e-47
6.86052e-47
6.86106e-47
6.8616e-47
6.86214e-47
6.86269e-47
6.86325e-47
6.86381e-47
6.86437e-47
6.86494e-47
6.86552e-47
6.8661e-47
6.86668e-47
6.86727e-47
6.86786e-47
6.86845e-47
6.86904e-47
6.86963e-47
6.87021e-47
6.87079e-47
6.87136e-47
6.87192e-47
6.87248e-47
6.87304e-47
6.87365e-47
6.87445e-47
6.87602e-47
6.88036e-47
6.89461e-47
6.94405e-47
7.1174e-47
7.72462e-47
9.84247e-47
1.71909e-46
4.25517e-46
1.29606e-45
4.26838e-45
1.43633e-44
4.84708e-44
1.63118e-43
5.46546e-43
1.82255e-42
6.04841e-42
1.99774e-41
6.56772e-41
2.14943e-40
7.00358e-40
2.2723e-39
7.34218e-39
2.36301e-38
7.57625e-38
2.42029e-37
7.70509e-37
2.44491e-36
7.73392e-36
2.43932e-35
7.67274e-35
2.40726e-34
7.53474e-34
2.35323e-33
7.3348e-33
2.28202e-32
7.08812e-32
2.19837e-31
6.80924e-31
2.10669e-30
6.51151e-30
2.01103e-29
6.20724e-29
1.91521e-28
5.90868e-28
1.82334e-27
5.6305e-27
1.741e-26
5.39512e-26
1.67762e-25
5.24363e-25
1.65147e-24
5.25824e-24
1.6998e-23
5.60826e-23
1.89973e-22
6.64529e-22
2.42427e-21
9.16951e-21
3.59765e-20
1.46128e-19
6.11438e-19
2.62014e-18
1.14343e-17
5.05731e-17
2.25845e-16
1.01544e-15
4.58731e-15
2.07921e-14
9.44566e-14
4.29787e-13
1.95766e-12
8.92324e-12
4.06901e-11
1.85757e-10
8.5991e-10
4.01186e-09
1.88599e-08
8.98605e-08
4.47946e-07
2.51628e-06
1.66775e-05
0.000108078
0.000416504
0.000733535
0.000891418
0.00114718
0.00176263
0.00281399
0.00414591
0.00551789
0.00691721
0.00796378
0.0087934
0.00944201
0.00994727
0.0103427
0.0106546
0.010903
0.0111024
0.0112636
0.0113944
0.0115007
0.0115871
0.011657
0.011713
0.0117574
0.0117918
0.0118178
0.0118364
0.0118487
0.0118555
0.0118574
0.0118552
0.0118492
0.01184
0.0118279
0.0118133
0.011797
0.0117793
0.0117601
0.0117394
0.0117175
0.0116943
0.0116701
0.0116449
0.0116188
0.011592
0.0115644
0.0115363
0.0115075
0.0114783
0.0114487
0.0114186
0.0113882
0.0113575
0.0113266
0.0112954
0.0112641
0.0112326
0.011201
0.0111693
0.0111375
0.0111056
0.0110738
0.0110419
0.01101
0.0109781
0.0109462
0.0109144
0.0108827
0.010851
0.0108193
0.0107877
0.0107563
0.0107249
0.0106935
0.0106623
0.0106312
0.0106002
0.0105692
0.0105384
0.0105077
0.010477
0.0104465
0.0104161
0.0103858
0.0103556
0.0103255
0.0102956
0.0102657
0.0102359
0.0102063
0.0101768
0.0101474
0.0101181
0.010089
0.01006
0.0100311
0.0100023
0.00997368
0.00994517
0.00991678
0.00988844
0.00986025
0.00983219
0.00980428
0.00977651
0.00974888
0.00972139
0.00969406
0.00966687
0.00963982
0.00961293
0.00958618
0.00955958
0.00953313
0.00950684
0.00948069
0.00945469
0.00942883
0.00940313
0.00937757
0.00935216
0.00932689
0.00930177
0.0092768
0.00925196
0.00922727
0.00920272
0.00917831
0.00915404
0.0091299
0.0091059
0.00908204
0.00905832
0.00903472
0.00901127
0.00898794
0.00896475
0.00894169
0.00891876
0.00889596
0.00887329
0.00885075
0.00882834
0.00880606
0.00878391
0.00876188
0.00873999
0.00871822
0.00869659
0.00867508
0.0086537
0.00863244
0.00861132
0.00859032
0.00856945
0.00854871
0.0085281
0.00850761
0.00848725
0.00846701
0.0084469
0.00842692
0.00840706
0.00838732
0.00836771
0.00834822
0.00832885
0.0083096
0.00829047
0.00827146
0.00825256
0.00823378
0.00821512
0.00819657
0.00817813
0.00815979
0.00814157
0.00812345
0.00810544
0.00808753
0.00806972
0.00805202
0.00803441
0.00801689
0.00799947
0.00798214
0.0079649
0.00794775
0.00793068
0.0079137
0.0078968
0.00787997
0.00786322
0.00784655
0.00782995
0.00781341
0.00779694
0.00778052
0.00776417
0.00774786
0.0077316
0.00771539
0.00769921
0.00768307
0.00766695
0.00765084
0.00763476
0.00761867
0.00760259
0.00758649
0.00757039
0.00755427
0.00753813
0.00752197
0.00750582
0.0074897
0.00747367
0.00745783
0.00744236
0.00742758
0.00741407
0.00740279
0.00739548
)
;

boundaryField
{
    boundary
    {
        type            empty;
    }
    inlet
    {
        type            fixedValue;
        value           uniform 0;
    }
    outlet
    {
        type            zeroGradient;
    }
}


// ************************************************************************* //
