/*--------------------------------*- C++ -*----------------------------------*\
  =========                 |
  \\      /  F ield         | OpenFOAM: The Open Source CFD Toolbox
   \\    /   O peration     | Website:  https://openfoam.org
    \\  /    A nd           | Version:  7
     \\/     M anipulation  |
\*---------------------------------------------------------------------------*/
FoamFile
{
    version     2.0;
    format      ascii;
    class       volScalarField;
    location    "0.00082";
    object      Qdot;
}
// * * * * * * * * * * * * * * * * * * * * * * * * * * * * * * * * * * * * * //

dimensions      [1 -1 -3 0 0 0 0];

internalField   nonuniform List<scalar> 
500
(
-2.45209e-27
-1.86275e-27
-1.73598e-27
-1.70887e-27
-1.70311e-27
-1.70178e-27
-1.70117e-27
-1.70047e-27
-1.69951e-27
-1.69825e-27
-1.6967e-27
-1.6949e-27
-1.69291e-27
-1.69078e-27
-1.68858e-27
-1.68639e-27
-1.68429e-27
-1.68235e-27
-1.68064e-27
-1.67921e-27
-1.67811e-27
-1.67738e-27
-1.67703e-27
-1.67709e-27
-1.67756e-27
-1.67845e-27
-1.67975e-27
-1.68147e-27
-1.68362e-27
-1.68621e-27
-1.68926e-27
-1.69281e-27
-1.69689e-27
-1.70156e-27
-1.70688e-27
-1.71292e-27
-1.71977e-27
-1.72751e-27
-1.73624e-27
-1.74606e-27
-1.75706e-27
-1.76935e-27
-1.783e-27
-1.79811e-27
-1.81476e-27
-1.83299e-27
-1.85285e-27
-1.87437e-27
-1.89753e-27
-1.92232e-27
-1.94867e-27
-1.97652e-27
-2.00574e-27
-2.0362e-27
-2.06774e-27
-2.10015e-27
-2.13323e-27
-2.16675e-27
-2.20045e-27
-2.23408e-27
-2.2674e-27
-2.30015e-27
-2.33208e-27
-2.36298e-27
-2.39264e-27
-2.42089e-27
-2.44757e-27
-2.47259e-27
-2.49585e-27
-2.51731e-27
-2.53696e-27
-2.5548e-27
-2.57087e-27
-2.58525e-27
-2.59801e-27
-2.60925e-27
-2.61907e-27
-2.6276e-27
-2.63494e-27
-2.64123e-27
-2.64656e-27
-2.65107e-27
-2.65484e-27
-2.65797e-27
-2.66057e-27
-2.66269e-27
-2.66443e-27
-2.66584e-27
-2.66697e-27
-2.66788e-27
-2.66861e-27
-2.66918e-27
-2.66964e-27
-2.66999e-27
-2.67027e-27
-2.67049e-27
-2.67066e-27
-2.6708e-27
-2.67091e-27
-2.67099e-27
-2.67106e-27
-2.67112e-27
-2.67117e-27
-2.67121e-27
-2.67125e-27
-2.67129e-27
-2.67132e-27
-2.67136e-27
-2.67139e-27
-2.67142e-27
-2.67146e-27
-2.6715e-27
-2.67153e-27
-2.67157e-27
-2.67161e-27
-2.67165e-27
-2.67169e-27
-2.67174e-27
-2.67179e-27
-2.67183e-27
-2.67189e-27
-2.67194e-27
-2.67199e-27
-2.67204e-27
-2.67207e-27
-2.67209e-27
-2.67217e-27
-2.67226e-27
-2.67237e-27
-2.67249e-27
-2.67262e-27
-2.67277e-27
-2.67291e-27
-2.67306e-27
-2.67321e-27
-2.67335e-27
-2.67349e-27
-2.67361e-27
-2.67372e-27
-2.67383e-27
-2.67392e-27
-2.674e-27
-2.67407e-27
-2.67413e-27
-2.67419e-27
-2.67426e-27
-2.67432e-27
-2.67438e-27
-2.67446e-27
-2.67454e-27
-2.67462e-27
-2.67472e-27
-2.67483e-27
-2.67494e-27
-2.67506e-27
-2.67519e-27
-2.67533e-27
-2.67547e-27
-2.67562e-27
-2.67577e-27
-2.67592e-27
-2.67608e-27
-2.67623e-27
-2.67639e-27
-2.67655e-27
-2.67672e-27
-2.67688e-27
-2.67704e-27
-2.67721e-27
-2.67738e-27
-2.67754e-27
-2.67771e-27
-2.67789e-27
-2.67806e-27
-2.67823e-27
-2.67841e-27
-2.67859e-27
-2.67877e-27
-2.67895e-27
-2.67913e-27
-2.67931e-27
-2.6795e-27
-2.67968e-27
-2.67987e-27
-2.68005e-27
-2.68023e-27
-2.68041e-27
-2.68059e-27
-2.68077e-27
-2.68094e-27
-2.68111e-27
-2.68128e-27
-2.68144e-27
-2.6816e-27
-2.68175e-27
-2.68189e-27
-2.68203e-27
-2.68216e-27
-2.68228e-27
-2.68239e-27
-2.6825e-27
-2.68259e-27
-2.68267e-27
-2.68274e-27
-2.6828e-27
-2.68284e-27
-2.68284e-27
-2.68272e-27
-2.68228e-27
-2.68078e-27
-2.67578e-27
-2.65937e-27
-2.60559e-27
-2.43009e-27
-1.8596e-27
-1.26747e-29
5.94286e-27
2.50727e-26
8.62916e-26
2.81509e-25
9.01924e-25
2.86735e-24
9.0749e-24
2.86252e-23
9.00344e-23
2.82452e-22
8.83993e-22
2.7606e-21
8.60371e-21
2.67654e-20
8.31268e-20
2.57786e-19
7.9836e-19
2.46961e-18
7.63155e-18
2.35625e-17
7.26976e-17
2.24172e-16
6.91017e-16
2.12978e-15
6.56507e-15
2.02471e-14
6.25065e-14
1.93302e-13
5.99428e-13
1.86665e-12
5.84927e-12
1.84966e-11
5.92491e-11
1.93184e-10
6.44827e-10
2.22803e-09
7.95026e-09
2.9431e-08
1.13285e-07
4.52588e-07
1.86844e-06
7.92526e-06
3.43373e-05
0.000151193
0.000673802
0.0030304
0.0137293
0.0626085
0.28743
1.33014
6.22089
29.6407
155.348
882.555
6508.48
49209.9
427657
4.00156e+06
3.80418e+07
3.32017e+08
2.09242e+09
7.02393e+09
1.20542e+10
1.37263e+10
1.38966e+10
1.39143e+10
1.35334e+10
1.23531e+10
1.05125e+10
8.5272e+09
6.92999e+09
5.74337e+09
4.83653e+09
4.14421e+09
3.60739e+09
3.18294e+09
2.84058e+09
2.55927e+09
2.32429e+09
2.12519e+09
1.9544e+09
1.80634e+09
1.67682e+09
1.56263e+09
1.46124e+09
1.37068e+09
1.28935e+09
1.21595e+09
1.14943e+09
1.08889e+09
1.0336e+09
9.82934e+08
9.36368e+08
8.93458e+08
8.53832e+08
8.17227e+08
7.84235e+08
7.53979e+08
7.25497e+08
6.98724e+08
6.73508e+08
6.49707e+08
6.27218e+08
6.05941e+08
5.85784e+08
5.66665e+08
5.48511e+08
5.31257e+08
5.14839e+08
4.99203e+08
4.84296e+08
4.70074e+08
4.56492e+08
4.4351e+08
4.31093e+08
4.19207e+08
4.07821e+08
3.96906e+08
3.86434e+08
3.76383e+08
3.66728e+08
3.57447e+08
3.48522e+08
3.39934e+08
3.31664e+08
3.23697e+08
3.16018e+08
3.08612e+08
3.01466e+08
2.94567e+08
2.87904e+08
2.81466e+08
2.75242e+08
2.69222e+08
2.63397e+08
2.57759e+08
2.52298e+08
2.47008e+08
2.41882e+08
2.36911e+08
2.32089e+08
2.27411e+08
2.22871e+08
2.18462e+08
2.1418e+08
2.10019e+08
2.05975e+08
2.02043e+08
1.9822e+08
1.945e+08
1.9088e+08
1.87357e+08
1.83927e+08
1.80586e+08
1.77332e+08
1.74162e+08
1.71073e+08
1.68063e+08
1.65135e+08
1.62287e+08
1.59508e+08
1.56779e+08
1.54111e+08
1.51507e+08
1.48964e+08
1.46481e+08
1.44055e+08
1.41685e+08
1.39369e+08
1.37105e+08
1.34893e+08
1.32729e+08
1.30613e+08
1.28544e+08
1.26519e+08
1.24538e+08
1.226e+08
1.20702e+08
1.18845e+08
1.17026e+08
1.15245e+08
1.13501e+08
1.11792e+08
1.10118e+08
1.08477e+08
1.06869e+08
1.05293e+08
1.03748e+08
1.02233e+08
1.00747e+08
9.92903e+07
9.78611e+07
9.64589e+07
9.50832e+07
9.37331e+07
9.24082e+07
9.11074e+07
8.98308e+07
8.85774e+07
8.73466e+07
8.6138e+07
8.49509e+07
8.3785e+07
8.26396e+07
8.15143e+07
8.04086e+07
7.93221e+07
7.82543e+07
7.72049e+07
7.61734e+07
7.51593e+07
7.41623e+07
7.3182e+07
7.22185e+07
7.12705e+07
7.03383e+07
6.94214e+07
6.85195e+07
6.76322e+07
6.67594e+07
6.59006e+07
6.50555e+07
6.4224e+07
6.34056e+07
6.26002e+07
6.18074e+07
6.1027e+07
6.02588e+07
5.95025e+07
5.87579e+07
5.80247e+07
5.73029e+07
5.65911e+07
5.58912e+07
5.52016e+07
5.45224e+07
5.38532e+07
5.31941e+07
5.25447e+07
5.19049e+07
5.12745e+07
5.06535e+07
5.00409e+07
4.94379e+07
4.88435e+07
4.82577e+07
4.76803e+07
4.71112e+07
4.65503e+07
4.59973e+07
4.54522e+07
4.49149e+07
4.43852e+07
4.38629e+07
4.3348e+07
4.28404e+07
4.23399e+07
4.18464e+07
4.13598e+07
4.088e+07
4.04069e+07
3.99404e+07
3.94804e+07
3.90268e+07
3.85795e+07
3.81383e+07
3.77033e+07
3.72742e+07
3.68511e+07
3.64337e+07
3.6022e+07
3.56159e+07
3.52153e+07
3.48198e+07
3.44293e+07
3.40436e+07
3.36617e+07
3.32833e+07
3.29071e+07
3.25312e+07
3.21546e+07
3.17775e+07
3.14122e+07
3.11322e+07
)
;

boundaryField
{
    boundary
    {
        type            empty;
    }
    inlet
    {
        type            calculated;
        value           uniform 0;
    }
    outlet
    {
        type            calculated;
        value           uniform 0;
    }
}


// ************************************************************************* //
