/*--------------------------------*- C++ -*----------------------------------*\
  =========                 |
  \\      /  F ield         | OpenFOAM: The Open Source CFD Toolbox
   \\    /   O peration     | Website:  https://openfoam.org
    \\  /    A nd           | Version:  7
     \\/     M anipulation  |
\*---------------------------------------------------------------------------*/
FoamFile
{
    version     2.0;
    format      ascii;
    class       volVectorField;
    location    "0.00082";
    object      U;
}
// * * * * * * * * * * * * * * * * * * * * * * * * * * * * * * * * * * * * * //

dimensions      [0 1 -1 0 0 0 0];

internalField   nonuniform List<vector> 
500
(
(2.34893 0 0)
(2.34891 0 0)
(2.34889 0 0)
(2.34887 0 0)
(2.34885 0 0)
(2.34883 0 0)
(2.34881 0 0)
(2.34879 0 0)
(2.34876 0 0)
(2.34874 0 0)
(2.34872 0 0)
(2.3487 0 0)
(2.34868 0 0)
(2.34866 0 0)
(2.34864 0 0)
(2.34863 0 0)
(2.34861 0 0)
(2.3486 0 0)
(2.34859 0 0)
(2.34857 0 0)
(2.34856 0 0)
(2.34855 0 0)
(2.34854 0 0)
(2.34853 0 0)
(2.34852 0 0)
(2.34851 0 0)
(2.3485 0 0)
(2.34849 0 0)
(2.34848 0 0)
(2.34847 0 0)
(2.34846 0 0)
(2.34846 0 0)
(2.34845 0 0)
(2.34844 0 0)
(2.34843 0 0)
(2.34843 0 0)
(2.34843 0 0)
(2.34842 0 0)
(2.34842 0 0)
(2.34842 0 0)
(2.34843 0 0)
(2.34843 0 0)
(2.34843 0 0)
(2.34844 0 0)
(2.34844 0 0)
(2.34845 0 0)
(2.34845 0 0)
(2.34846 0 0)
(2.34846 0 0)
(2.34846 0 0)
(2.34846 0 0)
(2.34846 0 0)
(2.34846 0 0)
(2.34845 0 0)
(2.34844 0 0)
(2.34843 0 0)
(2.34841 0 0)
(2.34839 0 0)
(2.34837 0 0)
(2.34834 0 0)
(2.34832 0 0)
(2.34828 0 0)
(2.34825 0 0)
(2.34821 0 0)
(2.34818 0 0)
(2.34814 0 0)
(2.3481 0 0)
(2.34806 0 0)
(2.34802 0 0)
(2.34798 0 0)
(2.34794 0 0)
(2.3479 0 0)
(2.34786 0 0)
(2.34782 0 0)
(2.34779 0 0)
(2.34776 0 0)
(2.34772 0 0)
(2.34769 0 0)
(2.34766 0 0)
(2.34763 0 0)
(2.34761 0 0)
(2.34758 0 0)
(2.34756 0 0)
(2.34753 0 0)
(2.34751 0 0)
(2.34749 0 0)
(2.34747 0 0)
(2.34744 0 0)
(2.34742 0 0)
(2.3474 0 0)
(2.34739 0 0)
(2.34737 0 0)
(2.34735 0 0)
(2.34733 0 0)
(2.34731 0 0)
(2.34729 0 0)
(2.34728 0 0)
(2.34726 0 0)
(2.34724 0 0)
(2.34722 0 0)
(2.34721 0 0)
(2.34719 0 0)
(2.34717 0 0)
(2.34715 0 0)
(2.34714 0 0)
(2.34712 0 0)
(2.3471 0 0)
(2.34708 0 0)
(2.34707 0 0)
(2.34705 0 0)
(2.34703 0 0)
(2.34701 0 0)
(2.34699 0 0)
(2.34698 0 0)
(2.34696 0 0)
(2.34694 0 0)
(2.34692 0 0)
(2.34691 0 0)
(2.34689 0 0)
(2.34687 0 0)
(2.34685 0 0)
(2.34684 0 0)
(2.34682 0 0)
(2.3468 0 0)
(2.34678 0 0)
(2.34676 0 0)
(2.34675 0 0)
(2.34673 0 0)
(2.34671 0 0)
(2.34669 0 0)
(2.34668 0 0)
(2.34666 0 0)
(2.34664 0 0)
(2.34662 0 0)
(2.34661 0 0)
(2.34659 0 0)
(2.34657 0 0)
(2.34655 0 0)
(2.34653 0 0)
(2.34652 0 0)
(2.3465 0 0)
(2.34648 0 0)
(2.34646 0 0)
(2.34645 0 0)
(2.34643 0 0)
(2.34641 0 0)
(2.34639 0 0)
(2.34637 0 0)
(2.34636 0 0)
(2.34634 0 0)
(2.34632 0 0)
(2.3463 0 0)
(2.34629 0 0)
(2.34627 0 0)
(2.34625 0 0)
(2.34623 0 0)
(2.34621 0 0)
(2.3462 0 0)
(2.34618 0 0)
(2.34616 0 0)
(2.34614 0 0)
(2.34613 0 0)
(2.34611 0 0)
(2.34609 0 0)
(2.34607 0 0)
(2.34605 0 0)
(2.34604 0 0)
(2.34602 0 0)
(2.346 0 0)
(2.34598 0 0)
(2.34597 0 0)
(2.34595 0 0)
(2.34593 0 0)
(2.34591 0 0)
(2.3459 0 0)
(2.34588 0 0)
(2.34586 0 0)
(2.34584 0 0)
(2.34583 0 0)
(2.34581 0 0)
(2.34579 0 0)
(2.34577 0 0)
(2.34576 0 0)
(2.34574 0 0)
(2.34572 0 0)
(2.3457 0 0)
(2.34569 0 0)
(2.34567 0 0)
(2.34565 0 0)
(2.34564 0 0)
(2.34562 0 0)
(2.3456 0 0)
(2.34559 0 0)
(2.34557 0 0)
(2.34555 0 0)
(2.34554 0 0)
(2.34552 0 0)
(2.3455 0 0)
(2.34548 0 0)
(2.34547 0 0)
(2.34545 0 0)
(2.34544 0 0)
(2.34542 0 0)
(2.3454 0 0)
(2.34539 0 0)
(2.34537 0 0)
(2.34535 0 0)
(2.34534 0 0)
(2.34532 0 0)
(2.3453 0 0)
(2.34529 0 0)
(2.34527 0 0)
(2.34526 0 0)
(2.34524 0 0)
(2.34522 0 0)
(2.34521 0 0)
(2.34519 0 0)
(2.34518 0 0)
(2.34516 0 0)
(2.34515 0 0)
(2.34513 0 0)
(2.34511 0 0)
(2.3451 0 0)
(2.34508 0 0)
(2.34507 0 0)
(2.34505 0 0)
(2.34504 0 0)
(2.34502 0 0)
(2.34501 0 0)
(2.34499 0 0)
(2.34498 0 0)
(2.34496 0 0)
(2.34495 0 0)
(2.34493 0 0)
(2.34491 0 0)
(2.3449 0 0)
(2.34488 0 0)
(2.34487 0 0)
(2.34485 0 0)
(2.34484 0 0)
(2.34482 0 0)
(2.34481 0 0)
(2.34479 0 0)
(2.34478 0 0)
(2.34476 0 0)
(2.34475 0 0)
(2.34473 0 0)
(2.34472 0 0)
(2.3447 0 0)
(2.34469 0 0)
(2.34467 0 0)
(2.34465 0 0)
(2.34464 0 0)
(2.34462 0 0)
(2.34461 0 0)
(2.34459 0 0)
(2.34458 0 0)
(2.34456 0 0)
(2.34455 0 0)
(2.34453 0 0)
(2.34452 0 0)
(2.3445 0 0)
(2.34448 0 0)
(2.34447 0 0)
(2.34445 0 0)
(2.34443 0 0)
(2.34441 0 0)
(2.34443 0 0)
(2.34452 0 0)
(2.34488 0 0)
(2.34614 0 0)
(2.35012 0 0)
(2.36177 0 0)
(2.39291 0 0)
(2.46937 0 0)
(2.64754 0 0)
(3.03186 0 0)
(3.80177 0 0)
(4.91839 0 0)
(6.15798 0 0)
(7.33275 0 0)
(8.3763 0 0)
(9.27452 0 0)
(10.0246 0 0)
(10.6461 0 0)
(11.1623 0 0)
(11.5797 0 0)
(11.9109 0 0)
(12.1825 0 0)
(12.4153 0 0)
(12.6193 0 0)
(12.7997 0 0)
(12.9608 0 0)
(13.1058 0 0)
(13.2374 0 0)
(13.3577 0 0)
(13.4683 0 0)
(13.5704 0 0)
(13.6651 0 0)
(13.7533 0 0)
(13.8358 0 0)
(13.913 0 0)
(13.9856 0 0)
(14.054 0 0)
(14.1186 0 0)
(14.1798 0 0)
(14.2377 0 0)
(14.2928 0 0)
(14.3452 0 0)
(14.3951 0 0)
(14.4427 0 0)
(14.4881 0 0)
(14.5303 0 0)
(14.5698 0 0)
(14.6081 0 0)
(14.6452 0 0)
(14.681 0 0)
(14.7157 0 0)
(14.7492 0 0)
(14.7817 0 0)
(14.8133 0 0)
(14.8438 0 0)
(14.8735 0 0)
(14.9024 0 0)
(14.9305 0 0)
(14.9577 0 0)
(14.9843 0 0)
(15.0102 0 0)
(15.0353 0 0)
(15.0599 0 0)
(15.0838 0 0)
(15.1072 0 0)
(15.13 0 0)
(15.1522 0 0)
(15.1739 0 0)
(15.1952 0 0)
(15.2159 0 0)
(15.2362 0 0)
(15.2561 0 0)
(15.2755 0 0)
(15.2945 0 0)
(15.3131 0 0)
(15.3314 0 0)
(15.3492 0 0)
(15.3667 0 0)
(15.3839 0 0)
(15.4007 0 0)
(15.4172 0 0)
(15.4334 0 0)
(15.4493 0 0)
(15.4649 0 0)
(15.4802 0 0)
(15.4952 0 0)
(15.51 0 0)
(15.5245 0 0)
(15.5388 0 0)
(15.5528 0 0)
(15.5665 0 0)
(15.5801 0 0)
(15.5934 0 0)
(15.6065 0 0)
(15.6194 0 0)
(15.6321 0 0)
(15.6446 0 0)
(15.6569 0 0)
(15.6689 0 0)
(15.6809 0 0)
(15.6926 0 0)
(15.7041 0 0)
(15.7155 0 0)
(15.7267 0 0)
(15.7378 0 0)
(15.7487 0 0)
(15.7594 0 0)
(15.7699 0 0)
(15.7802 0 0)
(15.7905 0 0)
(15.8006 0 0)
(15.8106 0 0)
(15.8205 0 0)
(15.8302 0 0)
(15.8398 0 0)
(15.8493 0 0)
(15.8587 0 0)
(15.8679 0 0)
(15.877 0 0)
(15.886 0 0)
(15.8949 0 0)
(15.9037 0 0)
(15.9124 0 0)
(15.9209 0 0)
(15.9294 0 0)
(15.9378 0 0)
(15.946 0 0)
(15.9542 0 0)
(15.9622 0 0)
(15.9702 0 0)
(15.978 0 0)
(15.9858 0 0)
(15.9935 0 0)
(16.0011 0 0)
(16.0086 0 0)
(16.016 0 0)
(16.0233 0 0)
(16.0306 0 0)
(16.0378 0 0)
(16.0449 0 0)
(16.0519 0 0)
(16.0588 0 0)
(16.0657 0 0)
(16.0725 0 0)
(16.0792 0 0)
(16.0858 0 0)
(16.0924 0 0)
(16.0989 0 0)
(16.1053 0 0)
(16.1117 0 0)
(16.118 0 0)
(16.1242 0 0)
(16.1304 0 0)
(16.1365 0 0)
(16.1426 0 0)
(16.1486 0 0)
(16.1545 0 0)
(16.1604 0 0)
(16.1662 0 0)
(16.1719 0 0)
(16.1776 0 0)
(16.1833 0 0)
(16.1888 0 0)
(16.1944 0 0)
(16.1999 0 0)
(16.2053 0 0)
(16.2107 0 0)
(16.216 0 0)
(16.2213 0 0)
(16.2265 0 0)
(16.2317 0 0)
(16.2368 0 0)
(16.2419 0 0)
(16.2469 0 0)
(16.2519 0 0)
(16.2568 0 0)
(16.2617 0 0)
(16.2666 0 0)
(16.2714 0 0)
(16.2761 0 0)
(16.2808 0 0)
(16.2855 0 0)
(16.2902 0 0)
(16.2948 0 0)
(16.2993 0 0)
(16.3038 0 0)
(16.3083 0 0)
(16.3127 0 0)
(16.3171 0 0)
(16.3215 0 0)
(16.3258 0 0)
(16.3301 0 0)
(16.3344 0 0)
(16.3386 0 0)
(16.3428 0 0)
(16.3469 0 0)
(16.351 0 0)
(16.3551 0 0)
(16.3591 0 0)
(16.3631 0 0)
(16.3671 0 0)
(16.371 0 0)
(16.375 0 0)
(16.3788 0 0)
(16.3827 0 0)
(16.3865 0 0)
(16.3903 0 0)
(16.394 0 0)
(16.3978 0 0)
(16.4015 0 0)
(16.4051 0 0)
(16.4088 0 0)
(16.4124 0 0)
(16.4159 0 0)
(16.4195 0 0)
(16.423 0 0)
(16.4265 0 0)
(16.43 0 0)
(16.4334 0 0)
(16.4368 0 0)
(16.4402 0 0)
(16.4436 0 0)
(16.447 0 0)
(16.4503 0 0)
(16.4536 0 0)
(16.4569 0 0)
(16.4602 0 0)
(16.4634 0 0)
(16.4667 0 0)
(16.4699 0 0)
(16.4729 0 0)
(16.4755 0 0)
(16.4772 0 0)
)
;

boundaryField
{
    boundary
    {
        type            empty;
    }
    inlet
    {
        type            fixedValue;
        value           uniform (2.34893 0 0);
    }
    outlet
    {
        type            zeroGradient;
    }
}


// ************************************************************************* //
