/*--------------------------------*- C++ -*----------------------------------*\
  =========                 |
  \\      /  F ield         | OpenFOAM: The Open Source CFD Toolbox
   \\    /   O peration     | Website:  https://openfoam.org
    \\  /    A nd           | Version:  7
     \\/     M anipulation  |
\*---------------------------------------------------------------------------*/
FoamFile
{
    version     2.0;
    format      ascii;
    class       volScalarField;
    location    "0.00079";
    object      H;
}
// * * * * * * * * * * * * * * * * * * * * * * * * * * * * * * * * * * * * * //

dimensions      [0 0 0 0 0 0 0];

internalField   nonuniform List<scalar> 
126
(
3.45312e-41
3.45326e-41
3.45343e-41
3.45362e-41
3.45382e-41
3.45403e-41
3.45424e-41
3.45444e-41
3.45464e-41
3.45482e-41
3.45499e-41
3.45514e-41
3.45527e-41
3.45539e-41
3.45549e-41
3.45558e-41
3.45565e-41
3.45573e-41
3.4558e-41
3.45587e-41
3.45596e-41
3.45605e-41
3.45615e-41
3.45627e-41
3.4564e-41
3.45654e-41
3.45669e-41
3.45686e-41
3.45704e-41
3.45722e-41
3.45741e-41
3.45761e-41
3.45781e-41
3.45802e-41
3.45823e-41
3.45844e-41
3.45865e-41
3.45886e-41
3.45908e-41
3.45929e-41
3.45951e-41
3.45973e-41
3.45996e-41
3.46018e-41
3.46041e-41
3.46064e-41
3.46087e-41
3.4611e-41
3.46134e-41
3.46157e-41
3.46181e-41
3.46206e-41
3.4623e-41
3.46254e-41
3.46279e-41
3.46304e-41
3.46328e-41
3.46353e-41
3.46377e-41
3.46401e-41
3.46425e-41
3.46449e-41
3.46472e-41
3.46495e-41
3.46517e-41
3.46539e-41
3.4656e-41
3.4658e-41
3.46599e-41
3.46617e-41
3.46635e-41
3.46651e-41
3.46666e-41
3.4668e-41
3.46692e-41
3.46703e-41
3.46713e-41
3.46721e-41
3.46727e-41
3.46732e-41
3.46735e-41
3.46737e-41
3.46737e-41
3.4674e-41
3.46753e-41
3.46808e-41
3.47006e-41
3.47683e-41
3.49941e-41
3.57384e-41
3.8174e-41
4.61005e-41
7.17776e-41
1.546e-40
4.20674e-40
1.27219e-39
3.9874e-39
1.26155e-38
3.99439e-38
1.26238e-37
3.97942e-37
1.25114e-36
3.92368e-36
1.22759e-35
3.83235e-35
1.19401e-34
3.71334e-34
1.15296e-33
3.57464e-33
1.10688e-32
3.42377e-32
1.05809e-31
3.26778e-31
1.00878e-30
3.11373e-30
9.61313e-30
2.97001e-29
9.18848e-29
2.84916e-28
8.8661e-28
2.77376e-27
8.74592e-27
2.78872e-26
9.0317e-26
2.98691e-25
1.01452e-24
)
;

boundaryField
{
    boundary
    {
        type            empty;
    }
    inlet
    {
        type            fixedValue;
        value           nonuniform 0();
    }
    outlet
    {
        type            zeroGradient;
    }
    procBoundary3to1
    {
        type            processor;
        value           uniform 3.57261e-24;
    }
    procBoundary3to2
    {
        type            processor;
        value           uniform 3.45307e-41;
    }
}


// ************************************************************************* //
