/*--------------------------------*- C++ -*----------------------------------*\
  =========                 |
  \\      /  F ield         | OpenFOAM: The Open Source CFD Toolbox
   \\    /   O peration     | Website:  https://openfoam.org
    \\  /    A nd           | Version:  7
     \\/     M anipulation  |
\*---------------------------------------------------------------------------*/
FoamFile
{
    version     2.0;
    format      ascii;
    class       volScalarField;
    location    "0.00079";
    object      HO2;
}
// * * * * * * * * * * * * * * * * * * * * * * * * * * * * * * * * * * * * * //

dimensions      [0 0 0 0 0 0 0];

internalField   nonuniform List<scalar> 
126
(
6.30781e-36
6.30798e-36
6.30816e-36
6.30834e-36
6.30854e-36
6.30874e-36
6.30895e-36
6.30917e-36
6.30939e-36
6.30961e-36
6.30983e-36
6.31005e-36
6.31027e-36
6.31049e-36
6.31072e-36
6.31097e-36
6.31124e-36
6.31153e-36
6.31186e-36
6.31224e-36
6.31266e-36
6.31315e-36
6.31369e-36
6.3143e-36
6.31498e-36
6.31571e-36
6.3165e-36
6.31733e-36
6.31819e-36
6.31907e-36
6.31996e-36
6.32082e-36
6.32166e-36
6.32245e-36
6.32319e-36
6.32386e-36
6.32445e-36
6.32498e-36
6.32543e-36
6.32582e-36
6.32615e-36
6.32644e-36
6.32671e-36
6.32696e-36
6.32722e-36
6.32749e-36
6.3278e-36
6.32815e-36
6.32854e-36
6.329e-36
6.32951e-36
6.33008e-36
6.33071e-36
6.33139e-36
6.33211e-36
6.33287e-36
6.33365e-36
6.33446e-36
6.33528e-36
6.33609e-36
6.3369e-36
6.33769e-36
6.33846e-36
6.3392e-36
6.3399e-36
6.34057e-36
6.3412e-36
6.34179e-36
6.34234e-36
6.34285e-36
6.34331e-36
6.34373e-36
6.34411e-36
6.34445e-36
6.34475e-36
6.34502e-36
6.34524e-36
6.34543e-36
6.34557e-36
6.34568e-36
6.34576e-36
6.34579e-36
6.34579e-36
6.34575e-36
6.34567e-36
6.34557e-36
6.34549e-36
6.34557e-36
6.34629e-36
6.34924e-36
6.35963e-36
6.39458e-36
6.50991e-36
6.88698e-36
8.1125e-36
1.20775e-35
2.48555e-35
6.58922e-35
1.97276e-34
6.16804e-34
1.95354e-33
6.20632e-33
1.97262e-32
6.27166e-32
1.99613e-31
6.3683e-31
2.04e-30
6.57552e-30
2.13813e-29
7.03431e-29
2.349e-28
7.98782e-28
2.77412e-27
9.86118e-27
3.59194e-26
1.34049e-25
5.11845e-25
1.99499e-24
7.91426e-24
3.18568e-23
1.29726e-22
5.33008e-22
2.20465e-21
9.16313e-21
3.82129e-20
1.59713e-19
)
;

boundaryField
{
    boundary
    {
        type            empty;
    }
    inlet
    {
        type            fixedValue;
        value           nonuniform 0();
    }
    outlet
    {
        type            zeroGradient;
    }
    procBoundary3to1
    {
        type            processor;
        value           uniform 6.72382e-19;
    }
    procBoundary3to2
    {
        type            processor;
        value           uniform 6.31581e-36;
    }
}


// ************************************************************************* //
