/*--------------------------------*- C++ -*----------------------------------*\
  =========                 |
  \\      /  F ield         | OpenFOAM: The Open Source CFD Toolbox
   \\    /   O peration     | Website:  https://openfoam.org
    \\  /    A nd           | Version:  7
     \\/     M anipulation  |
\*---------------------------------------------------------------------------*/
FoamFile
{
    version     2.0;
    format      ascii;
    class       volScalarField;
    location    "0.00026";
    object      H2;
}
// * * * * * * * * * * * * * * * * * * * * * * * * * * * * * * * * * * * * * //

dimensions      [0 0 0 0 0 0 0];

internalField   nonuniform List<scalar> 
500
(
0.0285116
0.0285116
0.0285116
0.0285116
0.0285116
0.0285116
0.0285116
0.0285116
0.0285116
0.0285116
0.0285116
0.0285116
0.0285116
0.0285116
0.0285116
0.0285116
0.0285116
0.0285116
0.0285116
0.0285116
0.0285116
0.0285116
0.0285116
0.0285116
0.0285116
0.0285116
0.0285116
0.0285116
0.0285116
0.0285116
0.0285116
0.0285116
0.0285116
0.0285116
0.0285116
0.0285116
0.0285116
0.0285116
0.0285116
0.0285116
0.0285116
0.0285116
0.0285116
0.0285116
0.0285116
0.0285116
0.0285116
0.0285116
0.0285116
0.0285116
0.0285116
0.0285116
0.0285116
0.0285116
0.0285116
0.0285116
0.0285116
0.0285116
0.0285116
0.0285116
0.0285116
0.0285116
0.0285116
0.0285116
0.0285116
0.0285116
0.0285116
0.0285116
0.0285116
0.0285116
0.0285116
0.0285116
0.0285116
0.0285116
0.0285116
0.0285116
0.0285116
0.0285116
0.0285116
0.0285116
0.0285116
0.0285116
0.0285116
0.0285116
0.0285116
0.0285116
0.0285116
0.0285116
0.0285116
0.0285116
0.0285116
0.0285116
0.0285116
0.0285116
0.0285116
0.0285116
0.0285116
0.0285116
0.0285116
0.0285116
0.0285116
0.0285116
0.0285116
0.0285116
0.0285116
0.0285116
0.0285116
0.0285116
0.0285116
0.0285116
0.0285116
0.0285116
0.0285116
0.0285116
0.0285116
0.0285116
0.0285116
0.0285116
0.0285116
0.0285116
0.0285116
0.0285116
0.0285116
0.0285116
0.0285116
0.0285116
0.0285116
0.0285116
0.0285116
0.0285116
0.0285116
0.0285116
0.0285116
0.0285116
0.0285116
0.0285116
0.0285116
0.0285116
0.0285116
0.0285116
0.0285116
0.0285116
0.0285116
0.0285116
0.0285116
0.0285116
0.0285116
0.0285116
0.0285116
0.0285116
0.0285116
0.0285116
0.0285116
0.0285116
0.0285116
0.0285116
0.0285116
0.0285116
0.0285116
0.0285116
0.0285116
0.0285116
0.0285116
0.0285116
0.0285116
0.0285116
0.0285116
0.0285116
0.0285116
0.0285116
0.0285116
0.0285116
0.0285116
0.0285116
0.0285116
0.0285116
0.0285116
0.0285116
0.0285116
0.0285116
0.0285116
0.0285116
0.0285116
0.0285116
0.0285116
0.0285116
0.0285116
0.0285116
0.0285116
0.0285116
0.0285116
0.0285116
0.0285116
0.0285116
0.0285116
0.0285116
0.0285116
0.0285116
0.0285116
0.0285116
0.0285116
0.0285116
0.0285116
0.0285116
0.0285116
0.0285116
0.0285116
0.0285116
0.0285116
0.0285116
0.0285116
0.0285116
0.0285116
0.0285116
0.0285116
0.0285116
0.0285116
0.0285116
0.0285116
0.0285116
0.0285116
0.0285116
0.0285116
0.0285116
0.0285116
0.0285116
0.0285116
0.0285116
0.0285116
0.0285116
0.0285116
0.0285116
0.0285116
0.0285116
0.0285116
0.0285116
0.0285116
0.0285116
0.0285116
0.0285116
0.0285116
0.0285116
0.0285116
0.0285116
0.0285116
0.0285116
0.0285116
0.0285116
0.0285116
0.0285116
0.0285116
0.0285116
0.0285116
0.0285116
0.0285116
0.0285116
0.0285116
0.0285116
0.0285116
0.0285116
0.0285116
0.0285116
0.0285116
0.0285116
0.0285115
0.0285115
0.0285113
0.028511
0.0285104
0.028509
0.0285061
0.0285
0.0284871
0.0284601
0.0284036
0.028286
0.0280451
0.0275676
0.0266869
0.025239
0.023187
0.0206904
0.0178717
0.0148304
0.0118308
0.00924554
0.00730068
0.00587348
0.00502201
0.00449222
0.00416623
0.0039646
0.00383718
0.00375336
0.00369492
0.0036511
0.00361565
0.00358496
0.00355698
0.00353054
0.00350501
0.00348005
0.0034555
0.00343128
0.00340736
0.00338375
0.00336046
0.00333751
0.00331491
0.00329267
0.00327082
0.00324937
0.00322896
0.00320941
0.00319018
0.00317127
0.00315269
0.00313444
0.00311653
0.00309896
0.00308173
0.00306485
0.00304831
0.00303213
0.0030163
0.00300084
0.00298573
0.00297098
0.0029566
0.00294258
0.00292894
0.00291566
0.00290276
0.00289023
0.00287809
0.00286632
0.00285494
0.00284394
0.00283333
0.00282312
0.00281329
0.00280387
0.00279484
0.00278621
0.00277799
0.00277017
0.00276276
0.00275576
0.00274916
0.00274297
0.00273718
0.0027318
0.00272681
0.00272222
0.00271802
0.0027142
0.00271075
0.00270766
0.00270492
0.00270251
0.00270042
0.00269863
0.00269712
0.00269587
0.00269485
0.00269404
0.00269341
0.00269293
0.00269257
0.00269232
0.00269213
0.00269198
0.00269186
0.00269176
0.00269168
0.00269162
0.00269024
0.00268861
0.00268663
0.00268425
0.00268141
0.00267807
0.00267417
0.00266966
0.0026645
0.00265865
0.00265207
0.00264471
0.00263654
0.00262753
0.00261765
0.00260688
0.00259519
0.00258257
0.00256901
0.00255449
0.00253902
0.00252259
0.00250521
0.00248689
0.00246764
0.00244748
0.00242644
0.00240454
0.00238182
0.00235831
0.00233405
0.00230909
0.00228347
0.00225724
0.00223045
0.00220317
0.00217545
0.00214735
0.00211893
0.00209026
0.0020614
0.00203242
0.00200337
0.00197433
0.00194537
0.00191653
0.0018879
0.00185952
0.00183146
0.00180378
0.00177652
0.00174975
0.0017235
0.00169783
0.00167277
0.00164837
0.00162466
0.00160166
0.0015794
0.00155792
0.00153721
0.00151731
0.00149821
0.00147993
0.00146246
0.00144581
0.00142998
0.00141495
0.00140071
0.00138725
0.00137456
0.00136262
0.0013514
0.00134089
0.00133106
0.00132189
0.00131335
0.00130542
0.00129806
0.00129126
0.00128497
0.00127919
0.00127387
0.00126899
0.00126453
0.00126045
0.00125673
0.00125336
0.00125029
0.00124752
0.00124501
0.00124275
0.00124072
0.0012389
0.00123727
0.00123582
0.00123452
0.00123337
0.00123234
0.00123144
0.00123064
0.00122994
0.00122932
0.00122878
0.00122831
0.00122789
0.00122754
0.00122723
0.00122696
0.00122673
0.00122653
0.00122636
0.00122621
0.00122609
0.00122599
0.0012259
0.00122582
0.00122576
0.00122571
0.00122567
0.00122564
0.00122561
0.0012256
0.00122559
)
;

boundaryField
{
    boundary
    {
        type            empty;
    }
    inlet
    {
        type            fixedValue;
        value           uniform 0.0285116;
    }
    outlet
    {
        type            zeroGradient;
    }
}


// ************************************************************************* //
