/*--------------------------------*- C++ -*----------------------------------*\
  =========                 |
  \\      /  F ield         | OpenFOAM: The Open Source CFD Toolbox
   \\    /   O peration     | Website:  https://openfoam.org
    \\  /    A nd           | Version:  7
     \\/     M anipulation  |
\*---------------------------------------------------------------------------*/
FoamFile
{
    version     2.0;
    format      ascii;
    class       volScalarField;
    location    "0.00026";
    object      H2O2;
}
// * * * * * * * * * * * * * * * * * * * * * * * * * * * * * * * * * * * * * //

dimensions      [0 0 0 0 0 0 0];

internalField   nonuniform List<scalar> 
500
(
2.01239e-52
6.49152e-52
1.29686e-51
2.14975e-51
3.21496e-51
4.50148e-51
6.01956e-51
7.77961e-51
9.7903e-51
1.20562e-50
1.45749e-50
1.73344e-50
2.03105e-50
2.34653e-50
2.67477e-50
3.00946e-50
3.34349e-50
3.66942e-50
3.98009e-50
4.26916e-50
4.53161e-50
4.76405e-50
4.96487e-50
5.1341e-50
5.27327e-50
5.38495e-50
5.47248e-50
5.53947e-50
5.58959e-50
5.62626e-50
5.6525e-50
5.67088e-50
5.6835e-50
5.69198e-50
5.69758e-50
5.70119e-50
5.70349e-50
5.70492e-50
5.70579e-50
5.70631e-50
5.70662e-50
5.7068e-50
5.7069e-50
5.70696e-50
5.70699e-50
5.707e-50
5.70701e-50
5.70702e-50
5.70702e-50
5.70703e-50
5.70703e-50
5.70704e-50
5.70704e-50
5.70705e-50
5.70706e-50
5.70708e-50
5.70709e-50
5.70711e-50
5.70713e-50
5.70715e-50
5.70717e-50
5.7072e-50
5.70723e-50
5.70727e-50
5.7073e-50
5.70734e-50
5.70739e-50
5.70743e-50
5.70748e-50
5.70754e-50
5.7076e-50
5.70766e-50
5.70773e-50
5.7078e-50
5.70788e-50
5.70796e-50
5.70805e-50
5.70814e-50
5.70824e-50
5.70834e-50
5.70845e-50
5.70857e-50
5.70869e-50
5.70881e-50
5.70895e-50
5.70909e-50
5.70923e-50
5.70939e-50
5.70955e-50
5.70972e-50
5.70989e-50
5.71007e-50
5.71026e-50
5.71046e-50
5.71066e-50
5.71088e-50
5.7111e-50
5.71132e-50
5.71156e-50
5.71181e-50
5.71206e-50
5.71232e-50
5.71259e-50
5.71287e-50
5.71316e-50
5.71345e-50
5.71376e-50
5.71407e-50
5.71439e-50
5.71472e-50
5.71506e-50
5.71541e-50
5.71576e-50
5.71613e-50
5.7165e-50
5.71689e-50
5.71728e-50
5.71767e-50
5.71808e-50
5.71849e-50
5.71888e-50
5.71924e-50
5.7195e-50
5.71969e-50
5.72077e-50
5.72491e-50
5.71924e-50
5.71367e-50
5.70827e-50
5.70295e-50
5.69778e-50
5.69292e-50
5.68855e-50
5.68483e-50
5.68193e-50
5.67999e-50
5.67917e-50
5.67956e-50
5.68119e-50
5.68397e-50
5.68775e-50
5.69228e-50
5.69728e-50
5.70247e-50
5.70758e-50
5.71241e-50
5.71681e-50
5.72067e-50
5.72398e-50
5.72675e-50
5.72902e-50
5.73085e-50
5.73232e-50
5.73349e-50
5.73444e-50
5.73521e-50
5.73584e-50
5.73637e-50
5.73683e-50
5.73723e-50
5.73758e-50
5.73789e-50
5.73816e-50
5.7384e-50
5.7386e-50
5.73877e-50
5.73891e-50
5.739e-50
5.73906e-50
5.73908e-50
5.73905e-50
5.73898e-50
5.73886e-50
5.73869e-50
5.73846e-50
5.73819e-50
5.73785e-50
5.73745e-50
5.73699e-50
5.73647e-50
5.73588e-50
5.73521e-50
5.73448e-50
5.73366e-50
5.73277e-50
5.73179e-50
5.73073e-50
5.72958e-50
5.72834e-50
5.727e-50
5.72557e-50
5.72404e-50
5.72241e-50
5.72067e-50
5.71883e-50
5.71687e-50
5.71481e-50
5.71262e-50
5.71032e-50
5.7079e-50
5.70535e-50
5.70269e-50
5.69989e-50
5.69697e-50
5.69391e-50
5.69072e-50
5.6874e-50
5.68395e-50
5.68036e-50
5.67663e-50
5.67276e-50
5.66876e-50
5.66461e-50
5.66033e-50
5.65592e-50
5.6515e-50
5.64818e-50
5.65663e-50
5.77869e-50
6.97381e-50
1.81825e-49
1.21763e-48
1.0676e-47
9.60329e-47
8.57202e-46
7.56321e-45
6.59214e-44
5.67463e-43
4.82333e-42
4.04728e-41
3.3519e-40
2.73927e-39
2.2085e-38
1.75621e-37
1.37712e-36
1.06458e-35
8.11123e-35
6.08955e-34
4.50355e-33
3.27996e-32
2.35176e-31
1.65954e-30
1.15214e-29
7.8669e-29
5.28128e-28
3.48488e-27
2.25965e-26
1.43946e-25
9.00614e-25
5.53138e-24
3.33197e-23
1.95151e-22
1.12711e-21
6.38465e-21
3.54437e-20
1.92798e-19
1.02758e-18
5.36674e-18
2.74717e-17
1.3788e-16
6.78888e-16
3.28172e-15
1.55894e-14
7.28601e-14
3.35486e-13
1.52419e-12
6.84359e-12
3.04169e-11
1.34037e-10
5.86488e-10
2.55155e-09
1.10496e-08
4.7666e-08
2.04791e-07
8.7365e-07
3.65479e-06
1.43586e-05
4.66434e-05
9.70067e-05
0.000124454
0.000106258
5.83893e-05
2.45915e-05
1.00166e-05
5.34527e-06
4.42173e-06
4.73226e-06
5.44169e-06
6.01052e-06
6.41956e-06
6.66056e-06
6.76164e-06
6.75811e-06
6.68122e-06
6.55532e-06
6.39823e-06
6.22257e-06
6.03716e-06
5.84799e-06
5.65911e-06
5.47324e-06
5.29214e-06
5.11693e-06
4.94823e-06
4.7864e-06
4.63153e-06
4.48362e-06
4.34251e-06
4.20803e-06
4.07995e-06
3.95804e-06
3.84211e-06
3.73532e-06
3.63492e-06
3.53862e-06
3.44623e-06
3.35754e-06
3.27238e-06
3.19056e-06
3.11192e-06
3.03632e-06
2.96358e-06
2.89359e-06
2.82619e-06
2.76126e-06
2.69868e-06
2.63834e-06
2.58012e-06
2.52392e-06
2.46965e-06
2.41721e-06
2.36651e-06
2.31747e-06
2.27002e-06
2.22407e-06
2.17956e-06
2.13641e-06
2.09457e-06
2.05396e-06
2.01453e-06
1.97622e-06
1.93897e-06
1.90273e-06
1.86745e-06
1.83307e-06
1.79955e-06
1.76683e-06
1.73488e-06
1.70363e-06
1.67306e-06
1.64311e-06
1.61374e-06
1.5849e-06
1.55656e-06
1.52868e-06
1.50121e-06
1.47412e-06
1.44736e-06
1.42091e-06
1.39473e-06
1.36878e-06
1.34304e-06
1.31747e-06
1.29205e-06
1.26675e-06
1.24155e-06
1.21644e-06
1.19139e-06
1.16639e-06
1.14142e-06
1.11649e-06
1.09158e-06
1.06667e-06
1.04176e-06
1.01681e-06
9.91724e-07
9.67299e-07
9.42856e-07
9.18544e-07
8.94391e-07
8.70424e-07
8.46672e-07
8.23167e-07
7.99942e-07
7.77029e-07
7.5446e-07
7.32268e-07
7.10483e-07
6.89135e-07
6.68252e-07
6.47858e-07
6.27978e-07
6.08631e-07
5.89835e-07
5.71604e-07
5.5395e-07
5.36881e-07
5.20403e-07
5.04519e-07
4.89227e-07
4.74526e-07
4.6041e-07
4.46871e-07
4.339e-07
4.21485e-07
4.09614e-07
3.98271e-07
3.87443e-07
3.77113e-07
3.67263e-07
3.57876e-07
3.48936e-07
3.40423e-07
3.32321e-07
3.24612e-07
3.17278e-07
3.10302e-07
3.03668e-07
2.9736e-07
2.91363e-07
2.85661e-07
2.80239e-07
2.75086e-07
2.70187e-07
2.6553e-07
2.61103e-07
2.56896e-07
2.52898e-07
2.491e-07
2.45491e-07
2.42063e-07
2.38809e-07
2.3572e-07
2.32789e-07
2.3001e-07
2.27377e-07
2.24882e-07
2.22522e-07
2.20289e-07
2.18179e-07
2.16188e-07
2.1431e-07
2.12541e-07
2.10876e-07
2.09312e-07
2.07844e-07
2.06468e-07
2.0518e-07
2.03977e-07
2.02854e-07
2.01809e-07
2.00836e-07
1.99933e-07
1.99096e-07
1.98321e-07
1.97606e-07
1.96947e-07
1.9634e-07
1.95783e-07
1.95272e-07
1.94804e-07
1.94378e-07
1.93989e-07
1.93635e-07
1.93313e-07
1.93023e-07
1.9276e-07
1.92522e-07
1.92309e-07
1.92116e-07
1.91944e-07
1.9179e-07
1.91652e-07
1.91529e-07
1.9142e-07
1.91323e-07
1.91237e-07
1.91161e-07
1.91094e-07
1.91035e-07
1.90983e-07
1.90937e-07
1.90897e-07
1.90862e-07
1.90831e-07
1.90804e-07
1.90781e-07
1.9076e-07
1.90742e-07
1.90727e-07
1.90713e-07
1.90701e-07
1.90691e-07
1.90682e-07
1.90674e-07
1.90667e-07
1.90661e-07
1.90656e-07
1.90652e-07
1.9065e-07
)
;

boundaryField
{
    boundary
    {
        type            empty;
    }
    inlet
    {
        type            fixedValue;
        value           uniform 0;
    }
    outlet
    {
        type            zeroGradient;
    }
}


// ************************************************************************* //
