/*--------------------------------*- C++ -*----------------------------------*\
  =========                 |
  \\      /  F ield         | OpenFOAM: The Open Source CFD Toolbox
   \\    /   O peration     | Website:  https://openfoam.org
    \\  /    A nd           | Version:  7
     \\/     M anipulation  |
\*---------------------------------------------------------------------------*/
FoamFile
{
    version     2.0;
    format      ascii;
    class       volScalarField;
    location    "0.00026";
    object      HO2;
}
// * * * * * * * * * * * * * * * * * * * * * * * * * * * * * * * * * * * * * //

dimensions      [0 0 0 0 0 0 0];

internalField   nonuniform List<scalar> 
500
(
5.61113e-38
1.28036e-37
2.00714e-37
2.74139e-37
3.4853e-37
4.24204e-37
5.01533e-37
5.80891e-37
6.62604e-37
7.46881e-37
8.33755e-37
9.23019e-37
1.01418e-36
1.10647e-36
1.19879e-36
1.28984e-36
1.37819e-36
1.46235e-36
1.54094e-36
1.61282e-36
1.67714e-36
1.73341e-36
1.78154e-36
1.82177e-36
1.85463e-36
1.88087e-36
1.90136e-36
1.917e-36
1.92869e-36
1.93723e-36
1.94335e-36
1.94764e-36
1.95059e-36
1.95258e-36
1.95389e-36
1.95475e-36
1.95529e-36
1.95563e-36
1.95584e-36
1.95596e-36
1.95604e-36
1.95608e-36
1.95611e-36
1.95612e-36
1.95613e-36
1.95613e-36
1.95613e-36
1.95613e-36
1.95614e-36
1.95614e-36
1.95614e-36
1.95614e-36
1.95614e-36
1.95614e-36
1.95615e-36
1.95615e-36
1.95615e-36
1.95616e-36
1.95616e-36
1.95617e-36
1.95617e-36
1.95618e-36
1.95618e-36
1.95619e-36
1.9562e-36
1.95621e-36
1.95622e-36
1.95623e-36
1.95624e-36
1.95626e-36
1.95627e-36
1.95629e-36
1.9563e-36
1.95632e-36
1.95634e-36
1.95636e-36
1.95638e-36
1.9564e-36
1.95642e-36
1.95645e-36
1.95647e-36
1.9565e-36
1.95653e-36
1.95656e-36
1.95659e-36
1.95662e-36
1.95666e-36
1.95669e-36
1.95673e-36
1.95677e-36
1.95681e-36
1.95685e-36
1.9569e-36
1.95695e-36
1.95699e-36
1.95704e-36
1.9571e-36
1.95715e-36
1.95721e-36
1.95727e-36
1.95733e-36
1.95739e-36
1.95745e-36
1.95752e-36
1.95759e-36
1.95766e-36
1.95773e-36
1.9578e-36
1.95788e-36
1.95796e-36
1.95804e-36
1.95812e-36
1.95821e-36
1.95829e-36
1.95838e-36
1.95847e-36
1.95857e-36
1.95866e-36
1.95876e-36
1.95885e-36
1.95894e-36
1.95902e-36
1.95905e-36
1.95904e-36
1.95913e-36
1.95965e-36
1.95827e-36
1.95647e-36
1.95444e-36
1.95246e-36
1.95076e-36
1.9495e-36
1.94874e-36
1.94842e-36
1.94847e-36
1.94881e-36
1.94939e-36
1.95015e-36
1.95105e-36
1.95206e-36
1.95315e-36
1.95428e-36
1.95541e-36
1.95651e-36
1.95755e-36
1.95849e-36
1.95934e-36
1.96007e-36
1.96069e-36
1.96122e-36
1.96165e-36
1.962e-36
1.96228e-36
1.96252e-36
1.96271e-36
1.96287e-36
1.963e-36
1.96312e-36
1.96322e-36
1.9633e-36
1.96338e-36
1.96345e-36
1.96352e-36
1.96357e-36
1.96362e-36
1.96365e-36
1.96368e-36
1.9637e-36
1.96371e-36
1.96371e-36
1.9637e-36
1.96368e-36
1.96365e-36
1.96361e-36
1.96355e-36
1.96348e-36
1.96339e-36
1.9633e-36
1.96318e-36
1.96305e-36
1.9629e-36
1.96274e-36
1.96256e-36
1.96236e-36
1.96214e-36
1.9619e-36
1.96164e-36
1.96136e-36
1.96106e-36
1.96073e-36
1.96039e-36
1.96001e-36
1.95962e-36
1.95919e-36
1.95875e-36
1.95827e-36
1.95777e-36
1.95724e-36
1.95668e-36
1.95609e-36
1.95548e-36
1.95483e-36
1.95415e-36
1.95345e-36
1.95271e-36
1.95193e-36
1.95113e-36
1.95029e-36
1.94943e-36
1.94852e-36
1.94759e-36
1.94662e-36
1.94562e-36
1.94458e-36
1.94351e-36
1.94241e-36
1.94127e-36
1.9401e-36
1.9389e-36
1.93766e-36
1.93639e-36
1.93509e-36
1.93376e-36
1.93241e-36
1.93106e-36
1.9299e-36
1.92996e-36
1.93701e-36
1.98313e-36
2.24553e-36
3.69522e-36
1.16159e-35
5.45779e-35
2.86249e-34
1.52965e-33
8.1799e-33
4.36742e-32
2.3301e-31
1.24399e-30
6.65568e-30
3.57318e-29
1.92655e-28
1.04347e-27
5.67458e-27
3.09456e-26
1.68909e-25
9.20679e-25
4.99974e-24
2.69913e-23
1.44584e-22
7.67284e-22
4.00887e-21
2.07841e-20
1.06467e-19
5.38058e-19
2.68085e-18
1.31635e-17
6.36885e-17
3.03656e-16
1.42719e-15
6.61621e-15
3.02766e-14
1.36898e-13
6.12282e-13
2.71195e-12
1.19095e-11
5.19125e-11
2.24826e-10
9.68261e-10
4.14967e-09
1.77069e-08
7.52203e-08
3.17769e-07
1.32912e-06
5.45436e-06
2.15441e-05
7.81757e-05
0.000234245
0.000460929
0.000517592
0.000440517
0.000327828
0.000232047
0.000162663
0.000113804
7.97976e-05
5.70651e-05
3.96031e-05
2.99424e-05
2.3741e-05
1.96691e-05
1.69041e-05
1.49478e-05
1.35027e-05
1.23904e-05
1.15025e-05
1.07717e-05
1.01553e-05
9.62495e-06
9.16153e-06
8.75158e-06
8.38531e-06
8.05543e-06
7.75632e-06
7.48358e-06
7.23365e-06
7.00367e-06
6.79126e-06
6.59443e-06
6.41152e-06
6.24116e-06
6.08223e-06
5.93826e-06
5.8047e-06
5.67815e-06
5.55805e-06
5.44388e-06
5.33518e-06
5.23154e-06
5.13258e-06
5.03797e-06
4.94739e-06
4.86056e-06
4.77722e-06
4.69715e-06
4.6201e-06
4.5459e-06
4.47434e-06
4.40526e-06
4.33849e-06
4.27388e-06
4.2113e-06
4.1506e-06
4.09167e-06
4.03438e-06
3.97863e-06
3.92431e-06
3.87131e-06
3.81955e-06
3.76892e-06
3.71935e-06
3.67073e-06
3.623e-06
3.57608e-06
3.52988e-06
3.48434e-06
3.43939e-06
3.39496e-06
3.35099e-06
3.30742e-06
3.26419e-06
3.22126e-06
3.17857e-06
3.13608e-06
3.09375e-06
3.05155e-06
3.00944e-06
2.96742e-06
2.92544e-06
2.88351e-06
2.84161e-06
2.79975e-06
2.75792e-06
2.71614e-06
2.67443e-06
2.63281e-06
2.5913e-06
2.54995e-06
2.50878e-06
2.46784e-06
2.42718e-06
2.38682e-06
2.3468e-06
2.30711e-06
2.26771e-06
2.22836e-06
2.19118e-06
2.15454e-06
2.11877e-06
2.08394e-06
2.05012e-06
2.01738e-06
1.9858e-06
1.95544e-06
1.92636e-06
1.8986e-06
1.87224e-06
1.8473e-06
1.82382e-06
1.80183e-06
1.78136e-06
1.76241e-06
1.74498e-06
1.72907e-06
1.71467e-06
1.70174e-06
1.69026e-06
1.68018e-06
1.67145e-06
1.66401e-06
1.6578e-06
1.65274e-06
1.64876e-06
1.64578e-06
1.64371e-06
1.64247e-06
1.64197e-06
1.64212e-06
1.64284e-06
1.64406e-06
1.64569e-06
1.64766e-06
1.6499e-06
1.65236e-06
1.65497e-06
1.6577e-06
1.66049e-06
1.66331e-06
1.66613e-06
1.66893e-06
1.67168e-06
1.67439e-06
1.67703e-06
1.6796e-06
1.68209e-06
1.68452e-06
1.68688e-06
1.68917e-06
1.69141e-06
1.69358e-06
1.69571e-06
1.69779e-06
1.69983e-06
1.70183e-06
1.70379e-06
1.70572e-06
1.70763e-06
1.7095e-06
1.71134e-06
1.71315e-06
1.71492e-06
1.71666e-06
1.71836e-06
1.72002e-06
1.72164e-06
1.72321e-06
1.72474e-06
1.72621e-06
1.72763e-06
1.72899e-06
1.73029e-06
1.73153e-06
1.73272e-06
1.73384e-06
1.7349e-06
1.7359e-06
1.73684e-06
1.73773e-06
1.73855e-06
1.73932e-06
1.74003e-06
1.7407e-06
1.74131e-06
1.74188e-06
1.7424e-06
1.74288e-06
1.74332e-06
1.74372e-06
1.74409e-06
1.74443e-06
1.74474e-06
1.74502e-06
1.74527e-06
1.74551e-06
1.74572e-06
1.74591e-06
1.74609e-06
1.74625e-06
1.7464e-06
1.74653e-06
1.74665e-06
1.74677e-06
1.74687e-06
1.74697e-06
1.74706e-06
1.74714e-06
1.74722e-06
1.74729e-06
1.74736e-06
1.74743e-06
1.74749e-06
1.74755e-06
1.7476e-06
1.74766e-06
1.74771e-06
1.74776e-06
1.7478e-06
1.74784e-06
1.74788e-06
1.74791e-06
)
;

boundaryField
{
    boundary
    {
        type            empty;
    }
    inlet
    {
        type            fixedValue;
        value           uniform 0;
    }
    outlet
    {
        type            zeroGradient;
    }
}


// ************************************************************************* //
