/*--------------------------------*- C++ -*----------------------------------*\
  =========                 |
  \\      /  F ield         | OpenFOAM: The Open Source CFD Toolbox
   \\    /   O peration     | Website:  https://openfoam.org
    \\  /    A nd           | Version:  7
     \\/     M anipulation  |
\*---------------------------------------------------------------------------*/
FoamFile
{
    version     2.0;
    format      ascii;
    class       volScalarField;
    location    "0.00026";
    object      N2;
}
// * * * * * * * * * * * * * * * * * * * * * * * * * * * * * * * * * * * * * //

dimensions      [0 0 0 0 0 0 0];

internalField   nonuniform List<scalar> 
500
(
0.745219
0.745219
0.745219
0.745219
0.745219
0.745219
0.745219
0.745219
0.745219
0.745219
0.745219
0.745219
0.745219
0.745219
0.745219
0.745219
0.745219
0.74522
0.74522
0.74522
0.74522
0.74522
0.74522
0.74522
0.74522
0.74522
0.74522
0.74522
0.74522
0.74522
0.74522
0.74522
0.74522
0.74522
0.74522
0.74522
0.74522
0.74522
0.74522
0.74522
0.74522
0.74522
0.74522
0.74522
0.74522
0.74522
0.74522
0.74522
0.74522
0.74522
0.74522
0.74522
0.74522
0.74522
0.74522
0.74522
0.74522
0.74522
0.74522
0.74522
0.74522
0.74522
0.74522
0.74522
0.74522
0.74522
0.74522
0.74522
0.74522
0.74522
0.74522
0.74522
0.74522
0.74522
0.74522
0.74522
0.74522
0.74522
0.74522
0.74522
0.74522
0.74522
0.74522
0.74522
0.74522
0.74522
0.74522
0.74522
0.74522
0.74522
0.74522
0.74522
0.74522
0.74522
0.74522
0.74522
0.74522
0.74522
0.74522
0.74522
0.74522
0.74522
0.74522
0.74522
0.74522
0.74522
0.74522
0.74522
0.74522
0.74522
0.74522
0.74522
0.74522
0.74522
0.74522
0.74522
0.74522
0.74522
0.74522
0.74522
0.74522
0.74522
0.74522
0.74522
0.74522
0.74522
0.74522
0.74522
0.74522
0.74522
0.74522
0.74522
0.74522
0.74522
0.74522
0.74522
0.74522
0.74522
0.74522
0.74522
0.74522
0.74522
0.74522
0.74522
0.74522
0.74522
0.74522
0.74522
0.74522
0.74522
0.74522
0.74522
0.74522
0.74522
0.74522
0.74522
0.74522
0.74522
0.74522
0.74522
0.74522
0.74522
0.74522
0.74522
0.74522
0.74522
0.74522
0.74522
0.74522
0.74522
0.74522
0.74522
0.74522
0.74522
0.74522
0.74522
0.74522
0.74522
0.74522
0.74522
0.74522
0.74522
0.74522
0.74522
0.74522
0.74522
0.74522
0.74522
0.74522
0.74522
0.74522
0.74522
0.74522
0.74522
0.74522
0.74522
0.74522
0.74522
0.74522
0.74522
0.74522
0.74522
0.74522
0.74522
0.74522
0.74522
0.74522
0.74522
0.74522
0.74522
0.74522
0.74522
0.74522
0.74522
0.74522
0.74522
0.74522
0.74522
0.74522
0.74522
0.74522
0.74522
0.74522
0.74522
0.74522
0.74522
0.74522
0.74522
0.74522
0.74522
0.74522
0.74522
0.74522
0.74522
0.74522
0.74522
0.74522
0.74522
0.74522
0.74522
0.74522
0.74522
0.74522
0.74522
0.74522
0.74522
0.74522
0.74522
0.74522
0.74522
0.74522
0.74522
0.74522
0.74522
0.74522
0.74522
0.74522
0.74522
0.74522
0.74522
0.74522
0.74522
0.74522
0.74522
0.74522
0.74522
0.74522
0.74522
0.74522
0.745221
0.745224
0.745228
0.745237
0.745256
0.745293
0.745361
0.745471
0.745596
0.745607
0.745388
0.745004
0.744484
0.743935
0.743623
0.743691
0.743978
0.744156
0.74475
0.744965
0.745117
0.745214
0.745273
0.745309
0.74533
0.745342
0.745348
0.74535
0.74535
0.745349
0.745347
0.745344
0.74534
0.745336
0.745332
0.745328
0.745323
0.745318
0.745313
0.745308
0.745303
0.745297
0.745292
0.745287
0.745281
0.745276
0.745271
0.745265
0.74526
0.745254
0.745249
0.745243
0.745238
0.745232
0.745227
0.745221
0.745216
0.74521
0.745205
0.7452
0.745194
0.745189
0.745184
0.745179
0.745174
0.745169
0.745164
0.745159
0.745154
0.74515
0.745146
0.745142
0.745138
0.745135
0.745133
0.745131
0.745129
0.745128
0.745128
0.745129
0.745131
0.745134
0.745138
0.745143
0.745149
0.745157
0.745166
0.745176
0.745188
0.745201
0.745216
0.745232
0.74525
0.745269
0.745289
0.745311
0.745334
0.745358
0.745383
0.745409
0.745435
0.745461
0.745488
0.745514
0.74554
0.745565
0.745588
0.745614
0.745638
0.745661
0.745682
0.745702
0.745719
0.745735
0.745748
0.745758
0.745765
0.74577
0.745772
0.745771
0.745767
0.745759
0.745749
0.745736
0.74572
0.745701
0.745679
0.745656
0.745629
0.745601
0.745571
0.745539
0.745506
0.745472
0.745437
0.745402
0.745366
0.74533
0.745295
0.745259
0.745225
0.745192
0.745159
0.745129
0.745099
0.745072
0.745046
0.745022
0.745
0.744981
0.744963
0.744948
0.744935
0.744924
0.744915
0.744908
0.744904
0.744901
0.7449
0.744901
0.744903
0.744907
0.744912
0.744918
0.744926
0.744934
0.744944
0.744954
0.744964
0.744975
0.744986
0.744998
0.745009
0.745021
0.745032
0.745044
0.745055
0.745066
0.745077
0.745087
0.745097
0.745106
0.745115
0.745124
0.745132
0.745139
0.745146
0.745153
0.745159
0.745165
0.74517
0.745175
0.74518
0.745184
0.745188
0.745191
0.745194
0.745197
0.7452
0.745202
0.745204
0.745206
0.745208
0.745209
0.74521
0.745211
0.745213
0.745213
0.745214
0.745215
0.745216
0.745216
0.745217
0.745217
0.745217
0.745218
0.745218
0.745218
0.745218
0.745219
0.745219
0.745219
0.745219
0.745219
0.745219
0.745219
0.745219
0.745219
0.745219
0.745219
0.745219
)
;

boundaryField
{
    boundary
    {
        type            empty;
    }
    inlet
    {
        type            fixedValue;
        value           uniform 0.74522;
    }
    outlet
    {
        type            zeroGradient;
    }
}


// ************************************************************************* //
