/*--------------------------------*- C++ -*----------------------------------*\
  =========                 |
  \\      /  F ield         | OpenFOAM: The Open Source CFD Toolbox
   \\    /   O peration     | Website:  https://openfoam.org
    \\  /    A nd           | Version:  7
     \\/     M anipulation  |
\*---------------------------------------------------------------------------*/
FoamFile
{
    version     2.0;
    format      ascii;
    class       volScalarField;
    location    "0.00026";
    object      O2;
}
// * * * * * * * * * * * * * * * * * * * * * * * * * * * * * * * * * * * * * //

dimensions      [0 0 0 0 0 0 0];

internalField   nonuniform List<scalar> 
500
(
0.226269
0.226269
0.226269
0.226269
0.226269
0.226269
0.226269
0.226269
0.226269
0.226269
0.226269
0.226269
0.226269
0.226269
0.226269
0.226269
0.226269
0.226269
0.226269
0.226269
0.226269
0.226269
0.226269
0.226269
0.226269
0.226269
0.226269
0.226269
0.226269
0.226269
0.226269
0.226269
0.226269
0.226269
0.226269
0.226269
0.226269
0.226269
0.226269
0.226269
0.226269
0.226269
0.226269
0.226269
0.226269
0.226269
0.226269
0.226269
0.226269
0.226269
0.226269
0.226269
0.226269
0.226269
0.226269
0.226269
0.226269
0.226269
0.226269
0.226269
0.226269
0.226269
0.226269
0.226269
0.226269
0.226269
0.226269
0.226269
0.226269
0.226269
0.226269
0.226269
0.226269
0.226269
0.226269
0.226269
0.226269
0.226269
0.226269
0.226269
0.226269
0.226269
0.226269
0.226269
0.226269
0.226269
0.226269
0.226269
0.226269
0.226269
0.226269
0.226269
0.226269
0.226269
0.226269
0.226269
0.226269
0.226269
0.226269
0.226269
0.226269
0.226269
0.226269
0.226269
0.226269
0.226269
0.226269
0.226269
0.226269
0.226269
0.226269
0.226269
0.226269
0.226269
0.226269
0.226269
0.226269
0.226269
0.226269
0.226269
0.226269
0.226269
0.226269
0.226269
0.226269
0.226269
0.226269
0.226269
0.226269
0.226269
0.226269
0.226269
0.226269
0.226269
0.226269
0.226269
0.226269
0.226269
0.226269
0.226269
0.226269
0.226269
0.226269
0.226269
0.226269
0.226269
0.226269
0.226269
0.226269
0.226269
0.226269
0.226269
0.226269
0.226269
0.226269
0.226269
0.226269
0.226269
0.226269
0.226269
0.226269
0.226269
0.226269
0.226269
0.226269
0.226269
0.226269
0.226269
0.226269
0.226269
0.226269
0.226269
0.226269
0.226269
0.226269
0.226269
0.226269
0.226269
0.226269
0.226269
0.226269
0.226269
0.226269
0.226269
0.226269
0.226269
0.226269
0.226269
0.226269
0.226269
0.226269
0.226269
0.226269
0.226269
0.226269
0.226269
0.226269
0.226269
0.226269
0.226269
0.226269
0.226269
0.226269
0.226269
0.226269
0.226269
0.226269
0.226269
0.226269
0.226269
0.226269
0.226269
0.226269
0.226269
0.226269
0.226269
0.226269
0.226269
0.226269
0.226269
0.226269
0.226269
0.226269
0.226269
0.226269
0.226269
0.226269
0.226269
0.226269
0.226269
0.226269
0.226269
0.226269
0.226269
0.226269
0.226269
0.226269
0.226269
0.226269
0.226269
0.226269
0.226269
0.226269
0.226269
0.226269
0.226269
0.226269
0.226269
0.226269
0.226269
0.226269
0.226269
0.226269
0.226269
0.226269
0.226269
0.226269
0.226269
0.226269
0.226269
0.226269
0.226269
0.226269
0.226269
0.226269
0.226269
0.226269
0.226269
0.226269
0.22627
0.22627
0.226272
0.226274
0.226277
0.226276
0.226245
0.226067
0.225346
0.223058
0.217339
0.206942
0.193069
0.175515
0.153203
0.127573
0.102901
0.0831386
0.0652279
0.0546358
0.0474671
0.0426113
0.0392604
0.0368736
0.0351044
0.0337351
0.0326299
0.0317042
0.0309046
0.030197
0.0295591
0.0289762
0.0284381
0.0279375
0.027469
0.0270286
0.0266129
0.0262195
0.025846
0.0254908
0.0251522
0.0248289
0.0245201
0.024234
0.0239624
0.0236994
0.0234444
0.0231967
0.0229558
0.0227212
0.0224924
0.0222688
0.0220502
0.021836
0.0216259
0.0214196
0.0212166
0.0210167
0.0208195
0.0206248
0.0204322
0.0202416
0.0200525
0.0198649
0.0196783
0.0194926
0.0193076
0.019123
0.0189386
0.0187542
0.0185695
0.0183844
0.0181986
0.0180121
0.0178245
0.0176357
0.0174456
0.0172541
0.0170609
0.016866
0.0166693
0.0164706
0.01627
0.0160675
0.0158629
0.0156564
0.015448
0.0152376
0.0150256
0.0148119
0.0145968
0.0143803
0.0141628
0.0139445
0.0137256
0.0135064
0.0132872
0.0130683
0.0128501
0.0126328
0.0124167
0.0122022
0.0119895
0.0117786
0.0115696
0.011362
0.0111544
0.0109596
0.0107677
0.0105802
0.0103972
0.0102191
0.010046
0.00987797
0.00971516
0.00955766
0.00940553
0.0092588
0.00911749
0.00898159
0.00885106
0.00872585
0.00860589
0.00849111
0.00838141
0.00827669
0.00817684
0.00808173
0.00799126
0.00790529
0.0078237
0.00774637
0.00767317
0.00760399
0.00753869
0.00747717
0.00741931
0.007365
0.00731415
0.00726665
0.00722241
0.00718134
0.00714336
0.00710837
0.00707631
0.0070471
0.00702065
0.0069969
0.00697576
0.00695717
0.00694104
0.00692729
0.00691584
0.0069066
0.00689949
0.0068944
0.00689124
0.0068899
0.00689027
0.00689225
0.00689571
0.00690054
0.00690662
0.00691382
0.00692202
0.0069311
0.00694093
0.0069514
0.00696239
0.00697379
0.00698548
0.00699737
0.00700936
0.00702135
0.00703327
0.00704504
0.0070566
0.00706788
0.00707883
0.00708941
0.00709959
0.00710932
0.0071186
0.00712741
0.00713573
0.00714356
0.00715091
0.00715777
0.00716416
0.00717009
0.00717557
0.00718063
0.00718527
0.00718953
0.00719341
0.00719695
0.00720017
0.00720307
0.0072057
0.00720807
0.00721019
0.0072121
0.0072138
0.00721532
0.00721668
0.00721788
0.00721894
0.00721988
0.00722072
0.00722145
0.00722209
0.00722266
0.00722316
0.00722359
0.00722398
0.00722431
0.0072246
0.00722486
0.00722508
0.00722528
0.00722545
0.00722561
0.00722574
0.00722586
0.00722596
0.00722606
0.00722614
0.00722621
0.00722627
0.00722632
0.00722636
)
;

boundaryField
{
    boundary
    {
        type            empty;
    }
    inlet
    {
        type            fixedValue;
        value           uniform 0.226269;
    }
    outlet
    {
        type            zeroGradient;
    }
}


// ************************************************************************* //
