/*--------------------------------*- C++ -*----------------------------------*\
  =========                 |
  \\      /  F ield         | OpenFOAM: The Open Source CFD Toolbox
   \\    /   O peration     | Website:  https://openfoam.org
    \\  /    A nd           | Version:  7
     \\/     M anipulation  |
\*---------------------------------------------------------------------------*/
FoamFile
{
    version     2.0;
    format      ascii;
    class       volScalarField;
    location    "0.00026";
    object      OH;
}
// * * * * * * * * * * * * * * * * * * * * * * * * * * * * * * * * * * * * * //

dimensions      [0 0 0 0 0 0 0];

internalField   nonuniform List<scalar> 
500
(
9.41518e-48
1.83999e-47
2.46099e-47
2.89007e-47
3.19106e-47
3.4088e-47
3.57446e-47
3.70977e-47
3.82994e-47
3.94558e-47
4.064e-47
4.18996e-47
4.32625e-47
4.47394e-47
4.63264e-47
4.80069e-47
4.97531e-47
5.15293e-47
5.32944e-47
5.50065e-47
5.66259e-47
5.81193e-47
5.94615e-47
6.06376e-47
6.16424e-47
6.24799e-47
6.31612e-47
6.37025e-47
6.41228e-47
6.44421e-47
6.46794e-47
6.48521e-47
6.49754e-47
6.50616e-47
6.51207e-47
6.51606e-47
6.5187e-47
6.52042e-47
6.52152e-47
6.52222e-47
6.52265e-47
6.52292e-47
6.52308e-47
6.52319e-47
6.52325e-47
6.5233e-47
6.52333e-47
6.52336e-47
6.52339e-47
6.52341e-47
6.52343e-47
6.52346e-47
6.52349e-47
6.52352e-47
6.52355e-47
6.52358e-47
6.52362e-47
6.52365e-47
6.52369e-47
6.52374e-47
6.52379e-47
6.52384e-47
6.52389e-47
6.52394e-47
6.524e-47
6.52407e-47
6.52414e-47
6.52421e-47
6.52428e-47
6.52436e-47
6.52444e-47
6.52453e-47
6.52463e-47
6.52472e-47
6.52483e-47
6.52494e-47
6.52505e-47
6.52517e-47
6.52529e-47
6.52542e-47
6.52556e-47
6.5257e-47
6.52585e-47
6.52601e-47
6.52617e-47
6.52634e-47
6.52652e-47
6.5267e-47
6.52689e-47
6.52709e-47
6.5273e-47
6.52751e-47
6.52774e-47
6.52797e-47
6.5282e-47
6.52845e-47
6.52871e-47
6.52897e-47
6.52924e-47
6.52952e-47
6.52981e-47
6.53011e-47
6.53042e-47
6.53074e-47
6.53106e-47
6.5314e-47
6.53174e-47
6.5321e-47
6.53246e-47
6.53283e-47
6.53321e-47
6.53361e-47
6.53401e-47
6.53442e-47
6.53483e-47
6.53526e-47
6.5357e-47
6.53614e-47
6.5366e-47
6.53706e-47
6.53753e-47
6.53801e-47
6.53848e-47
6.53896e-47
6.53941e-47
6.53984e-47
6.54032e-47
6.54081e-47
6.54129e-47
6.54175e-47
6.54221e-47
6.54265e-47
6.54309e-47
6.54353e-47
6.54397e-47
6.54442e-47
6.54489e-47
6.54539e-47
6.54591e-47
6.54647e-47
6.54706e-47
6.54768e-47
6.54832e-47
6.54898e-47
6.54966e-47
6.55034e-47
6.55101e-47
6.55167e-47
6.55232e-47
6.55294e-47
6.55355e-47
6.55412e-47
6.55468e-47
6.5552e-47
6.55571e-47
6.55619e-47
6.55664e-47
6.55707e-47
6.55748e-47
6.55786e-47
6.55821e-47
6.55854e-47
6.55884e-47
6.5591e-47
6.55934e-47
6.55954e-47
6.55971e-47
6.55983e-47
6.55992e-47
6.55996e-47
6.55996e-47
6.55992e-47
6.55982e-47
6.55967e-47
6.55947e-47
6.55921e-47
6.55889e-47
6.55851e-47
6.55807e-47
6.55755e-47
6.55697e-47
6.55632e-47
6.55559e-47
6.55478e-47
6.55388e-47
6.55291e-47
6.55185e-47
6.5507e-47
6.54945e-47
6.54811e-47
6.54667e-47
6.54514e-47
6.54349e-47
6.54174e-47
6.53989e-47
6.53792e-47
6.53583e-47
6.53363e-47
6.53131e-47
6.52887e-47
6.5263e-47
6.52361e-47
6.52079e-47
6.51784e-47
6.51476e-47
6.51154e-47
6.50819e-47
6.50471e-47
6.50109e-47
6.49733e-47
6.49344e-47
6.48946e-47
6.48566e-47
6.48372e-47
6.49436e-47
6.58476e-47
7.17185e-47
1.0816e-46
3.30742e-46
1.67461e-45
9.69998e-45
5.71032e-44
3.34009e-43
1.93348e-42
1.10679e-41
6.26362e-41
3.50391e-40
1.93726e-39
1.05847e-38
5.71437e-38
3.04798e-37
1.60609e-36
8.35993e-36
4.29818e-35
2.18272e-34
1.09481e-33
5.42398e-33
2.65437e-32
1.28328e-31
6.13019e-31
2.8942e-30
1.35093e-29
6.23706e-29
2.84979e-28
1.28956e-27
5.78409e-27
2.57423e-26
1.13816e-25
5.00626e-25
2.19404e-24
9.59668e-24
4.19887e-23
1.83877e-22
8.07447e-22
3.56005e-21
1.5773e-20
7.02529e-20
3.14553e-19
1.41528e-18
6.39501e-18
2.89978e-17
1.31849e-16
6.00729e-16
2.74108e-15
1.25206e-14
5.72355e-14
2.618e-13
1.19808e-12
5.48482e-12
2.51155e-11
1.15013e-10
5.3234e-10
2.48844e-09
1.17053e-08
5.55339e-08
2.71658e-07
1.45745e-06
9.23815e-06
6.28371e-05
0.000301842
0.000659179
0.000848058
0.0010412
0.00152888
0.00245391
0.00372324
0.0051054
0.00655705
0.00767047
0.00856145
0.00926009
0.00980397
0.0102285
0.0105623
0.0108272
0.0110391
0.01121
0.0113485
0.011461
0.0115525
0.0116266
0.0116862
0.0117337
0.011771
0.0117995
0.0118204
0.0118348
0.0118436
0.0118474
0.0118469
0.0118426
0.0118349
0.0118246
0.0118121
0.0117976
0.0117812
0.0117629
0.011743
0.0117216
0.0116987
0.0116745
0.011649
0.0116224
0.0115947
0.0115659
0.0115361
0.0115054
0.0114738
0.0114412
0.0114078
0.0113735
0.0113384
0.0113024
0.0112655
0.0112279
0.0111893
0.0111499
0.0111097
0.0110685
0.0110264
0.0109834
0.0109395
0.0108945
0.0108486
0.0108017
0.0107537
0.0107047
0.0106546
0.0106034
0.0105512
0.0104978
0.0104434
0.0103879
0.0103314
0.0102738
0.0102152
0.0101557
0.0100953
0.010034
0.00997203
0.00990933
0.00984605
0.00978227
0.00971811
0.00965368
0.0095891
0.0095245
0.00946001
0.00939575
0.00933186
0.00926845
0.00920564
0.00914352
0.00908217
0.00902168
0.0089622
0.00890427
0.00884777
0.00879274
0.0087392
0.00868716
0.00863665
0.00858765
0.00854017
0.00849417
0.00844959
0.00840637
0.00836444
0.00832369
0.00828403
0.00824532
0.00820745
0.00817027
0.00813365
0.00809744
0.00806149
0.00802567
0.00798983
0.00795384
0.00791757
0.0078809
0.00784372
0.00780594
0.00776747
0.00772825
0.00768821
0.00764732
0.00760556
0.0075629
0.00751937
0.00747497
0.00742975
0.00738376
0.00733704
0.00728969
0.00724177
0.00719339
0.00714463
0.0070956
0.00704642
0.0069972
0.00694804
0.00689907
0.00685039
0.00680213
0.00675439
0.00670727
0.00666088
0.00661531
0.00657065
0.00652699
0.00648439
0.00644294
0.00640268
0.00636368
0.00632598
0.00628962
0.00625462
0.00622102
0.00618883
0.00615805
0.0061287
0.00610076
0.00607423
0.00604909
0.00602532
0.0060029
0.0059818
0.00596198
0.0059434
0.00592603
0.00590983
0.00589474
0.00588073
0.00586775
0.00585574
0.00584467
0.00583447
0.0058251
0.00581652
0.00580868
0.00580152
0.005795
0.00578909
0.00578373
0.00577889
0.00577452
0.0057706
0.00576707
0.00576392
0.00576111
0.0057586
0.00575638
0.00575441
0.00575267
0.00575114
0.00574979
0.00574862
0.00574759
0.0057467
0.00574594
0.00574527
0.0057447
0.00574422
0.00574381
0.00574346
0.00574317
0.00574293
0.00574274
0.00574258
0.00574245
0.00574235
0.00574227
0.00574222
0.00574218
0.00574216
0.00574215
0.00574215
0.00574216
0.00574216
)
;

boundaryField
{
    boundary
    {
        type            empty;
    }
    inlet
    {
        type            fixedValue;
        value           uniform 0;
    }
    outlet
    {
        type            zeroGradient;
    }
}


// ************************************************************************* //
