/*--------------------------------*- C++ -*----------------------------------*\
  =========                 |
  \\      /  F ield         | OpenFOAM: The Open Source CFD Toolbox
   \\    /   O peration     | Website:  https://openfoam.org
    \\  /    A nd           | Version:  7
     \\/     M anipulation  |
\*---------------------------------------------------------------------------*/
FoamFile
{
    version     2.0;
    format      ascii;
    class       volScalarField;
    location    "0.00026";
    object      Qdot;
}
// * * * * * * * * * * * * * * * * * * * * * * * * * * * * * * * * * * * * * //

dimensions      [1 -1 -3 0 0 0 0];

internalField   nonuniform List<scalar> 
500
(
-2.45396e-27
-1.86838e-27
-1.74679e-27
-1.72647e-27
-1.72947e-27
-1.73944e-27
-1.75336e-27
-1.77113e-27
-1.79326e-27
-1.82028e-27
-1.85259e-27
-1.89042e-27
-1.93374e-27
-1.98223e-27
-2.03528e-27
-2.09199e-27
-2.15117e-27
-2.21141e-27
-2.27122e-27
-2.32907e-27
-2.3836e-27
-2.43366e-27
-2.47843e-27
-2.51744e-27
-2.55057e-27
-2.57802e-27
-2.60021e-27
-2.61772e-27
-2.63124e-27
-2.64145e-27
-2.64899e-27
-2.65445e-27
-2.65832e-27
-2.66102e-27
-2.66286e-27
-2.66409e-27
-2.66491e-27
-2.66544e-27
-2.66577e-27
-2.66599e-27
-2.66612e-27
-2.6662e-27
-2.66626e-27
-2.66629e-27
-2.66631e-27
-2.66633e-27
-2.66634e-27
-2.66636e-27
-2.66637e-27
-2.66638e-27
-2.66639e-27
-2.6664e-27
-2.66642e-27
-2.66643e-27
-2.66644e-27
-2.66646e-27
-2.66647e-27
-2.66649e-27
-2.66651e-27
-2.66653e-27
-2.66655e-27
-2.66657e-27
-2.66659e-27
-2.66661e-27
-2.66664e-27
-2.66666e-27
-2.66669e-27
-2.66672e-27
-2.66675e-27
-2.66678e-27
-2.66681e-27
-2.66684e-27
-2.66688e-27
-2.66692e-27
-2.66696e-27
-2.667e-27
-2.66704e-27
-2.66708e-27
-2.66713e-27
-2.66718e-27
-2.66723e-27
-2.66728e-27
-2.66734e-27
-2.66739e-27
-2.66745e-27
-2.66752e-27
-2.66758e-27
-2.66765e-27
-2.66771e-27
-2.66779e-27
-2.66786e-27
-2.66794e-27
-2.66802e-27
-2.6681e-27
-2.66818e-27
-2.66827e-27
-2.66836e-27
-2.66845e-27
-2.66855e-27
-2.66865e-27
-2.66875e-27
-2.66886e-27
-2.66896e-27
-2.66907e-27
-2.66919e-27
-2.66931e-27
-2.66943e-27
-2.66955e-27
-2.66968e-27
-2.6698e-27
-2.66994e-27
-2.67007e-27
-2.67021e-27
-2.67035e-27
-2.6705e-27
-2.67065e-27
-2.6708e-27
-2.67095e-27
-2.67111e-27
-2.67127e-27
-2.67143e-27
-2.67159e-27
-2.67176e-27
-2.67192e-27
-2.6721e-27
-2.67225e-27
-2.67241e-27
-2.67258e-27
-2.67274e-27
-2.67291e-27
-2.67307e-27
-2.67323e-27
-2.67338e-27
-2.67354e-27
-2.6737e-27
-2.67386e-27
-2.67403e-27
-2.67421e-27
-2.67439e-27
-2.67458e-27
-2.67479e-27
-2.67499e-27
-2.67521e-27
-2.67543e-27
-2.67565e-27
-2.67587e-27
-2.6761e-27
-2.67631e-27
-2.67653e-27
-2.67673e-27
-2.67693e-27
-2.67712e-27
-2.67731e-27
-2.67749e-27
-2.67766e-27
-2.67782e-27
-2.67798e-27
-2.67812e-27
-2.67826e-27
-2.6784e-27
-2.67852e-27
-2.67863e-27
-2.67874e-27
-2.67883e-27
-2.67892e-27
-2.67899e-27
-2.67905e-27
-2.6791e-27
-2.67914e-27
-2.67916e-27
-2.67917e-27
-2.67916e-27
-2.67913e-27
-2.67909e-27
-2.67903e-27
-2.67895e-27
-2.67886e-27
-2.67874e-27
-2.6786e-27
-2.67844e-27
-2.67825e-27
-2.67804e-27
-2.67781e-27
-2.67755e-27
-2.67727e-27
-2.67695e-27
-2.67661e-27
-2.67624e-27
-2.67584e-27
-2.6754e-27
-2.67494e-27
-2.67444e-27
-2.67391e-27
-2.67334e-27
-2.67274e-27
-2.6721e-27
-2.67142e-27
-2.6707e-27
-2.66994e-27
-2.66915e-27
-2.66831e-27
-2.66743e-27
-2.66651e-27
-2.66555e-27
-2.66455e-27
-2.6635e-27
-2.6624e-27
-2.66126e-27
-2.66008e-27
-2.65885e-27
-2.65758e-27
-2.65626e-27
-2.65489e-27
-2.65348e-27
-2.65202e-27
-2.65051e-27
-2.64897e-27
-2.64737e-27
-2.64573e-27
-2.64404e-27
-2.64231e-27
-2.64048e-27
-2.63832e-27
-2.63448e-27
-2.62138e-27
-2.55673e-27
-2.20781e-27
-3.08754e-28
9.94368e-27
6.46689e-26
3.53274e-25
1.85663e-24
9.59049e-24
4.88773e-23
2.45923e-22
1.22164e-21
5.99125e-21
2.90079e-20
1.38657e-19
6.54371e-19
3.04938e-18
1.40343e-17
6.381e-17
2.86735e-16
1.27409e-15
5.6022e-15
2.43974e-14
1.05351e-13
4.51691e-13
1.92594e-12
8.18161e-12
3.4773e-11
1.47696e-10
6.2908e-10
2.69277e-09
1.16031e-08
5.03872e-08
2.20635e-07
9.74114e-07
4.33406e-06
1.9416e-05
8.74952e-05
0.000396263
0.00180245
0.00823192
0.0377545
0.174022
0.807362
3.77974
17.9256
91.5787
513.784
3462.36
26089
217365
2.00717e+06
1.91776e+07
1.74814e+08
1.26603e+09
5.2418e+09
1.08731e+10
1.34893e+10
1.38743e+10
1.39111e+10
1.37244e+10
1.28116e+10
1.10793e+10
9.04971e+09
7.34759e+09
6.06261e+09
5.07802e+09
4.32854e+09
3.75054e+09
3.2963e+09
2.9321e+09
2.63448e+09
2.38707e+09
2.17831e+09
1.99988e+09
1.84569e+09
1.71117e+09
1.59286e+09
1.48805e+09
1.39461e+09
1.31085e+09
1.23538e+09
1.16708e+09
1.10502e+09
1.04843e+09
9.96642e+08
9.49137e+08
9.05521e+08
8.66429e+08
8.30785e+08
7.97385e+08
7.66125e+08
7.36809e+08
7.09258e+08
6.83323e+08
6.58879e+08
6.35794e+08
6.13971e+08
5.93315e+08
5.73737e+08
5.55159e+08
5.37512e+08
5.20731e+08
5.04756e+08
4.89533e+08
4.75013e+08
4.61152e+08
4.47905e+08
4.35237e+08
4.2311e+08
4.11492e+08
4.00353e+08
3.89664e+08
3.79399e+08
3.69532e+08
3.60042e+08
3.50906e+08
3.42104e+08
3.33617e+08
3.25426e+08
3.17516e+08
3.0987e+08
3.02472e+08
2.95308e+08
2.88364e+08
2.81628e+08
2.75085e+08
2.68726e+08
2.62539e+08
2.56512e+08
2.50635e+08
2.44899e+08
2.39294e+08
2.3381e+08
2.28441e+08
2.23177e+08
2.18011e+08
2.12935e+08
2.07944e+08
2.03031e+08
1.9819e+08
1.93416e+08
1.88705e+08
1.84052e+08
1.79454e+08
1.74908e+08
1.70412e+08
1.65964e+08
1.61566e+08
1.57222e+08
1.52947e+08
1.48826e+08
1.44412e+08
1.4013e+08
1.35922e+08
1.31777e+08
1.27687e+08
1.23649e+08
1.19662e+08
1.15728e+08
1.11846e+08
1.0802e+08
1.0425e+08
1.00539e+08
9.6889e+07
9.33012e+07
8.97776e+07
8.63199e+07
8.29296e+07
7.96082e+07
7.63569e+07
7.3177e+07
7.00694e+07
6.70352e+07
6.40751e+07
6.119e+07
5.83805e+07
5.56472e+07
5.29905e+07
5.04111e+07
4.79091e+07
4.5485e+07
4.31389e+07
4.0871e+07
3.86813e+07
3.65698e+07
3.45362e+07
3.25803e+07
3.07015e+07
2.88997e+07
2.71735e+07
2.55222e+07
2.39447e+07
2.24398e+07
2.10061e+07
1.96419e+07
1.83456e+07
1.71154e+07
1.59493e+07
1.48453e+07
1.38013e+07
1.28151e+07
1.18846e+07
1.10076e+07
1.01817e+07
9.40483e+06
8.67479e+06
7.98937e+06
7.34646e+06
6.744e+06
6.17998e+06
5.65243e+06
5.15947e+06
4.6993e+06
4.26991e+06
3.8701e+06
3.49795e+06
3.1519e+06
2.83065e+06
2.53252e+06
2.25643e+06
2.00041e+06
1.76417e+06
1.54624e+06
1.3451e+06
1.15993e+06
989710
833510
690215
559247
439541
330372
231036
140351
58359.2
-15948.9
-83169.9
-143866
-198565
-247286
-290920
-331720
-366935
-398351
-426412
-451470
-473994
-493437
-510774
-526053
-539706
-551510
-562113
-571408
-579593
-586759
-593069
-598648
-603786
-607930
-611642
-614878
-618272
-621026
-623163
-625238
-627144
-628811
-630653
-632177
-633441
-634832
-636150
-637422
-638639
-639626
)
;

boundaryField
{
    boundary
    {
        type            empty;
    }
    inlet
    {
        type            calculated;
        value           uniform 0;
    }
    outlet
    {
        type            calculated;
        value           uniform 0;
    }
}


// ************************************************************************* //
