/*--------------------------------*- C++ -*----------------------------------*\
  =========                 |
  \\      /  F ield         | OpenFOAM: The Open Source CFD Toolbox
   \\    /   O peration     | Website:  https://openfoam.org
    \\  /    A nd           | Version:  7
     \\/     M anipulation  |
\*---------------------------------------------------------------------------*/
FoamFile
{
    version     2.0;
    format      ascii;
    class       volVectorField;
    location    "0.00026";
    object      U;
}
// * * * * * * * * * * * * * * * * * * * * * * * * * * * * * * * * * * * * * //

dimensions      [0 1 -1 0 0 0 0];

internalField   nonuniform List<vector> 
500
(
(2.34892 0 0)
(2.34888 0 0)
(2.34883 0 0)
(2.34877 0 0)
(2.34873 0 0)
(2.3487 0 0)
(2.34868 0 0)
(2.34867 0 0)
(2.34867 0 0)
(2.34867 0 0)
(2.34867 0 0)
(2.34867 0 0)
(2.34867 0 0)
(2.34865 0 0)
(2.34862 0 0)
(2.34857 0 0)
(2.3485 0 0)
(2.34841 0 0)
(2.3483 0 0)
(2.34818 0 0)
(2.34805 0 0)
(2.3479 0 0)
(2.34776 0 0)
(2.34761 0 0)
(2.34747 0 0)
(2.34733 0 0)
(2.3472 0 0)
(2.34708 0 0)
(2.34696 0 0)
(2.34686 0 0)
(2.34676 0 0)
(2.34666 0 0)
(2.34658 0 0)
(2.34649 0 0)
(2.34641 0 0)
(2.34633 0 0)
(2.34625 0 0)
(2.34618 0 0)
(2.3461 0 0)
(2.34603 0 0)
(2.34595 0 0)
(2.34588 0 0)
(2.3458 0 0)
(2.34573 0 0)
(2.34566 0 0)
(2.34558 0 0)
(2.34551 0 0)
(2.34543 0 0)
(2.34536 0 0)
(2.34528 0 0)
(2.34521 0 0)
(2.34514 0 0)
(2.34506 0 0)
(2.34499 0 0)
(2.34491 0 0)
(2.34484 0 0)
(2.34476 0 0)
(2.34469 0 0)
(2.34461 0 0)
(2.34454 0 0)
(2.34446 0 0)
(2.34438 0 0)
(2.34431 0 0)
(2.34423 0 0)
(2.34416 0 0)
(2.34408 0 0)
(2.344 0 0)
(2.34393 0 0)
(2.34385 0 0)
(2.34378 0 0)
(2.3437 0 0)
(2.34362 0 0)
(2.34354 0 0)
(2.34347 0 0)
(2.34339 0 0)
(2.34331 0 0)
(2.34324 0 0)
(2.34316 0 0)
(2.34308 0 0)
(2.343 0 0)
(2.34292 0 0)
(2.34285 0 0)
(2.34277 0 0)
(2.34269 0 0)
(2.34261 0 0)
(2.34253 0 0)
(2.34245 0 0)
(2.34237 0 0)
(2.3423 0 0)
(2.34222 0 0)
(2.34214 0 0)
(2.34206 0 0)
(2.34198 0 0)
(2.3419 0 0)
(2.34182 0 0)
(2.34174 0 0)
(2.34166 0 0)
(2.34158 0 0)
(2.3415 0 0)
(2.34142 0 0)
(2.34133 0 0)
(2.34125 0 0)
(2.34117 0 0)
(2.34109 0 0)
(2.34101 0 0)
(2.34093 0 0)
(2.34085 0 0)
(2.34076 0 0)
(2.34068 0 0)
(2.3406 0 0)
(2.34052 0 0)
(2.34043 0 0)
(2.34035 0 0)
(2.34027 0 0)
(2.34018 0 0)
(2.3401 0 0)
(2.34002 0 0)
(2.33993 0 0)
(2.33985 0 0)
(2.33976 0 0)
(2.33968 0 0)
(2.3396 0 0)
(2.33951 0 0)
(2.33943 0 0)
(2.33934 0 0)
(2.33925 0 0)
(2.33916 0 0)
(2.33909 0 0)
(2.339 0 0)
(2.33891 0 0)
(2.33883 0 0)
(2.33874 0 0)
(2.33865 0 0)
(2.33857 0 0)
(2.33848 0 0)
(2.33839 0 0)
(2.33831 0 0)
(2.33822 0 0)
(2.33813 0 0)
(2.33804 0 0)
(2.33796 0 0)
(2.33787 0 0)
(2.33778 0 0)
(2.33769 0 0)
(2.3376 0 0)
(2.33751 0 0)
(2.33743 0 0)
(2.33734 0 0)
(2.33725 0 0)
(2.33716 0 0)
(2.33707 0 0)
(2.33698 0 0)
(2.33689 0 0)
(2.3368 0 0)
(2.33671 0 0)
(2.33662 0 0)
(2.33652 0 0)
(2.33643 0 0)
(2.33634 0 0)
(2.33625 0 0)
(2.33616 0 0)
(2.33607 0 0)
(2.33597 0 0)
(2.33588 0 0)
(2.33579 0 0)
(2.3357 0 0)
(2.3356 0 0)
(2.33551 0 0)
(2.33542 0 0)
(2.33532 0 0)
(2.33523 0 0)
(2.33514 0 0)
(2.33504 0 0)
(2.33495 0 0)
(2.33485 0 0)
(2.33476 0 0)
(2.33466 0 0)
(2.33457 0 0)
(2.33447 0 0)
(2.33438 0 0)
(2.33428 0 0)
(2.33418 0 0)
(2.33409 0 0)
(2.33399 0 0)
(2.33389 0 0)
(2.3338 0 0)
(2.3337 0 0)
(2.3336 0 0)
(2.33351 0 0)
(2.33341 0 0)
(2.33331 0 0)
(2.33321 0 0)
(2.33311 0 0)
(2.33302 0 0)
(2.33292 0 0)
(2.33282 0 0)
(2.33272 0 0)
(2.33262 0 0)
(2.33252 0 0)
(2.33242 0 0)
(2.33232 0 0)
(2.33222 0 0)
(2.33212 0 0)
(2.33202 0 0)
(2.33192 0 0)
(2.33182 0 0)
(2.33172 0 0)
(2.33162 0 0)
(2.33151 0 0)
(2.33141 0 0)
(2.33131 0 0)
(2.33121 0 0)
(2.33111 0 0)
(2.331 0 0)
(2.3309 0 0)
(2.3308 0 0)
(2.33069 0 0)
(2.33059 0 0)
(2.33049 0 0)
(2.33038 0 0)
(2.33028 0 0)
(2.33018 0 0)
(2.33007 0 0)
(2.32997 0 0)
(2.32986 0 0)
(2.32976 0 0)
(2.32966 0 0)
(2.32955 0 0)
(2.32945 0 0)
(2.32934 0 0)
(2.32923 0 0)
(2.32913 0 0)
(2.32902 0 0)
(2.32892 0 0)
(2.32881 0 0)
(2.3287 0 0)
(2.3286 0 0)
(2.32849 0 0)
(2.32838 0 0)
(2.32828 0 0)
(2.32817 0 0)
(2.32806 0 0)
(2.32796 0 0)
(2.32785 0 0)
(2.32774 0 0)
(2.32763 0 0)
(2.32752 0 0)
(2.32742 0 0)
(2.32731 0 0)
(2.3272 0 0)
(2.32709 0 0)
(2.32698 0 0)
(2.32686 0 0)
(2.32676 0 0)
(2.32665 0 0)
(2.32654 0 0)
(2.32643 0 0)
(2.32632 0 0)
(2.32621 0 0)
(2.3261 0 0)
(2.32599 0 0)
(2.32588 0 0)
(2.32577 0 0)
(2.32566 0 0)
(2.32555 0 0)
(2.32543 0 0)
(2.32532 0 0)
(2.32521 0 0)
(2.3251 0 0)
(2.32499 0 0)
(2.32494 0 0)
(2.32507 0 0)
(2.32579 0 0)
(2.32842 0 0)
(2.33665 0 0)
(2.35966 0 0)
(2.41787 0 0)
(2.55568 0 0)
(2.86354 0 0)
(3.50225 0 0)
(4.5352 0 0)
(5.76227 0 0)
(6.96699 0 0)
(8.05056 0 0)
(8.99021 0 0)
(9.78315 0 0)
(10.4454 0 0)
(10.9957 0 0)
(11.4387 0 0)
(11.7884 0 0)
(12.0735 0 0)
(12.3165 0 0)
(12.5283 0 0)
(12.715 0 0)
(12.8811 0 0)
(13.0303 0 0)
(13.1654 0 0)
(13.2886 0 0)
(13.4017 0 0)
(13.5059 0 0)
(13.6025 0 0)
(13.6924 0 0)
(13.7762 0 0)
(13.8547 0 0)
(13.9285 0 0)
(13.9979 0 0)
(14.0635 0 0)
(14.1254 0 0)
(14.1842 0 0)
(14.2399 0 0)
(14.2928 0 0)
(14.3431 0 0)
(14.3898 0 0)
(14.4334 0 0)
(14.4755 0 0)
(14.5162 0 0)
(14.5554 0 0)
(14.5932 0 0)
(14.6298 0 0)
(14.6651 0 0)
(14.6993 0 0)
(14.7325 0 0)
(14.7646 0 0)
(14.7957 0 0)
(14.8259 0 0)
(14.8553 0 0)
(14.8838 0 0)
(14.9115 0 0)
(14.9384 0 0)
(14.9646 0 0)
(14.9902 0 0)
(15.015 0 0)
(15.0392 0 0)
(15.0628 0 0)
(15.0858 0 0)
(15.1083 0 0)
(15.1302 0 0)
(15.1515 0 0)
(15.1724 0 0)
(15.1928 0 0)
(15.2127 0 0)
(15.2322 0 0)
(15.2513 0 0)
(15.2699 0 0)
(15.2881 0 0)
(15.306 0 0)
(15.3234 0 0)
(15.3406 0 0)
(15.3574 0 0)
(15.3738 0 0)
(15.39 0 0)
(15.4058 0 0)
(15.4214 0 0)
(15.4367 0 0)
(15.4518 0 0)
(15.4666 0 0)
(15.4811 0 0)
(15.4955 0 0)
(15.5096 0 0)
(15.5236 0 0)
(15.5373 0 0)
(15.5509 0 0)
(15.5643 0 0)
(15.5775 0 0)
(15.5906 0 0)
(15.6036 0 0)
(15.6163 0 0)
(15.629 0 0)
(15.6415 0 0)
(15.6539 0 0)
(15.6661 0 0)
(15.6782 0 0)
(15.6902 0 0)
(15.7021 0 0)
(15.7139 0 0)
(15.7254 0 0)
(15.7365 0 0)
(15.7474 0 0)
(15.758 0 0)
(15.7683 0 0)
(15.7784 0 0)
(15.7882 0 0)
(15.7977 0 0)
(15.8069 0 0)
(15.8158 0 0)
(15.8242 0 0)
(15.8323 0 0)
(15.84 0 0)
(15.8473 0 0)
(15.8542 0 0)
(15.8607 0 0)
(15.8667 0 0)
(15.8723 0 0)
(15.8774 0 0)
(15.8822 0 0)
(15.8864 0 0)
(15.8903 0 0)
(15.8937 0 0)
(15.8967 0 0)
(15.8993 0 0)
(15.9015 0 0)
(15.9034 0 0)
(15.9049 0 0)
(15.9061 0 0)
(15.907 0 0)
(15.9076 0 0)
(15.908 0 0)
(15.9081 0 0)
(15.9081 0 0)
(15.9079 0 0)
(15.9076 0 0)
(15.9071 0 0)
(15.9066 0 0)
(15.906 0 0)
(15.9054 0 0)
(15.9047 0 0)
(15.9041 0 0)
(15.9034 0 0)
(15.9028 0 0)
(15.9022 0 0)
(15.9017 0 0)
(15.9013 0 0)
(15.9009 0 0)
(15.9006 0 0)
(15.9004 0 0)
(15.9003 0 0)
(15.9003 0 0)
(15.9003 0 0)
(15.9005 0 0)
(15.9007 0 0)
(15.901 0 0)
(15.9013 0 0)
(15.9018 0 0)
(15.9022 0 0)
(15.9028 0 0)
(15.9033 0 0)
(15.9039 0 0)
(15.9046 0 0)
(15.9052 0 0)
(15.9059 0 0)
(15.9066 0 0)
(15.9073 0 0)
(15.9079 0 0)
(15.9086 0 0)
(15.9093 0 0)
(15.9099 0 0)
(15.9105 0 0)
(15.9111 0 0)
(15.9116 0 0)
(15.9122 0 0)
(15.9127 0 0)
(15.9131 0 0)
(15.9135 0 0)
(15.9139 0 0)
(15.9143 0 0)
(15.9146 0 0)
(15.9149 0 0)
(15.9151 0 0)
(15.9153 0 0)
(15.9155 0 0)
(15.9157 0 0)
(15.9158 0 0)
(15.9159 0 0)
(15.9159 0 0)
(15.9159 0 0)
(15.9159 0 0)
(15.9159 0 0)
(15.9159 0 0)
(15.9158 0 0)
(15.9157 0 0)
(15.9156 0 0)
(15.9155 0 0)
(15.9153 0 0)
(15.9152 0 0)
(15.915 0 0)
(15.9148 0 0)
(15.9146 0 0)
(15.9144 0 0)
(15.9142 0 0)
(15.9139 0 0)
(15.9137 0 0)
(15.9135 0 0)
(15.9132 0 0)
(15.9129 0 0)
(15.9127 0 0)
(15.9124 0 0)
(15.9121 0 0)
(15.9118 0 0)
(15.9116 0 0)
(15.9113 0 0)
(15.911 0 0)
(15.9107 0 0)
(15.9104 0 0)
(15.9101 0 0)
(15.9098 0 0)
(15.9095 0 0)
(15.9092 0 0)
(15.9088 0 0)
(15.9085 0 0)
(15.908 0 0)
)
;

boundaryField
{
    boundary
    {
        type            empty;
    }
    inlet
    {
        type            fixedValue;
        value           uniform (2.34893 0 0);
    }
    outlet
    {
        type            zeroGradient;
    }
}


// ************************************************************************* //
