/*--------------------------------*- C++ -*----------------------------------*\
  =========                 |
  \\      /  F ield         | OpenFOAM: The Open Source CFD Toolbox
   \\    /   O peration     | Website:  https://openfoam.org
    \\  /    A nd           | Version:  7
     \\/     M anipulation  |
\*---------------------------------------------------------------------------*/
FoamFile
{
    version     2.0;
    format      ascii;
    class       volVectorField;
    location    "0.00065";
    object      U;
}
// * * * * * * * * * * * * * * * * * * * * * * * * * * * * * * * * * * * * * //

dimensions      [0 1 -1 0 0 0 0];

internalField   nonuniform List<vector> 
124
(
(15.8485 0 0)
(15.859 0 0)
(15.8693 0 0)
(15.8794 0 0)
(15.8894 0 0)
(15.8992 0 0)
(15.9089 0 0)
(15.9186 0 0)
(15.928 0 0)
(15.9374 0 0)
(15.9466 0 0)
(15.9558 0 0)
(15.9648 0 0)
(15.9737 0 0)
(15.9825 0 0)
(15.9911 0 0)
(15.9997 0 0)
(16.0082 0 0)
(16.0166 0 0)
(16.0248 0 0)
(16.033 0 0)
(16.0411 0 0)
(16.0491 0 0)
(16.057 0 0)
(16.0648 0 0)
(16.0725 0 0)
(16.0802 0 0)
(16.0877 0 0)
(16.0952 0 0)
(16.1026 0 0)
(16.1099 0 0)
(16.1171 0 0)
(16.1243 0 0)
(16.1314 0 0)
(16.1384 0 0)
(16.1453 0 0)
(16.1521 0 0)
(16.1589 0 0)
(16.1656 0 0)
(16.1723 0 0)
(16.1789 0 0)
(16.1854 0 0)
(16.1919 0 0)
(16.1982 0 0)
(16.2046 0 0)
(16.2108 0 0)
(16.217 0 0)
(16.2232 0 0)
(16.2293 0 0)
(16.2353 0 0)
(16.2413 0 0)
(16.2472 0 0)
(16.2531 0 0)
(16.2589 0 0)
(16.2646 0 0)
(16.2703 0 0)
(16.276 0 0)
(16.2816 0 0)
(16.2871 0 0)
(16.2926 0 0)
(16.2981 0 0)
(16.3035 0 0)
(16.3088 0 0)
(16.3141 0 0)
(16.3194 0 0)
(16.3246 0 0)
(16.3297 0 0)
(16.3349 0 0)
(16.3399 0 0)
(16.345 0 0)
(16.3499 0 0)
(16.3549 0 0)
(16.3598 0 0)
(16.3646 0 0)
(16.3694 0 0)
(16.3742 0 0)
(16.379 0 0)
(16.3835 0 0)
(16.3881 0 0)
(16.3929 0 0)
(16.3976 0 0)
(16.4022 0 0)
(16.4067 0 0)
(16.4111 0 0)
(16.4155 0 0)
(16.4199 0 0)
(16.4242 0 0)
(16.4285 0 0)
(16.4328 0 0)
(16.437 0 0)
(16.4412 0 0)
(16.4454 0 0)
(16.4496 0 0)
(16.4537 0 0)
(16.4578 0 0)
(16.4618 0 0)
(16.4659 0 0)
(16.4699 0 0)
(16.4739 0 0)
(16.4779 0 0)
(16.4819 0 0)
(16.4858 0 0)
(16.4897 0 0)
(16.4937 0 0)
(16.4976 0 0)
(16.5015 0 0)
(16.5053 0 0)
(16.5092 0 0)
(16.5131 0 0)
(16.5169 0 0)
(16.5208 0 0)
(16.5247 0 0)
(16.5285 0 0)
(16.5323 0 0)
(16.5362 0 0)
(16.54 0 0)
(16.5438 0 0)
(16.5475 0 0)
(16.5512 0 0)
(16.5548 0 0)
(16.5581 0 0)
(16.561 0 0)
(16.562 0 0)
(16.5602 0 0)
)
;

boundaryField
{
    boundary
    {
        type            empty;
    }
    inlet
    {
        type            fixedValue;
        value           nonuniform 0();
    }
    outlet
    {
        type            zeroGradient;
    }
    procBoundary0to1
    {
        type            processor;
        value           uniform (15.838 0 0);
    }
}


// ************************************************************************* //
