/*--------------------------------*- C++ -*----------------------------------*\
  =========                 |
  \\      /  F ield         | OpenFOAM: The Open Source CFD Toolbox
   \\    /   O peration     | Website:  https://openfoam.org
    \\  /    A nd           | Version:  7
     \\/     M anipulation  |
\*---------------------------------------------------------------------------*/
FoamFile
{
    version     2.0;
    format      ascii;
    class       volScalarField;
    location    "0.00011";
    object      HO2;
}
// * * * * * * * * * * * * * * * * * * * * * * * * * * * * * * * * * * * * * //

dimensions      [0 0 0 0 0 0 0];

internalField   nonuniform List<scalar> 
126
(
7.41525e-37
7.41867e-37
7.42558e-37
7.43687e-37
7.45204e-37
7.46952e-37
7.48732e-37
7.50371e-37
7.51752e-37
7.52833e-37
7.53625e-37
7.54176e-37
7.54543e-37
7.5478e-37
7.54934e-37
7.55035e-37
7.55105e-37
7.55158e-37
7.55201e-37
7.55238e-37
7.55271e-37
7.55302e-37
7.55331e-37
7.55358e-37
7.55383e-37
7.55406e-37
7.55426e-37
7.55444e-37
7.5546e-37
7.55473e-37
7.55483e-37
7.5549e-37
7.55494e-37
7.55494e-37
7.55491e-37
7.55484e-37
7.55472e-37
7.55457e-37
7.55437e-37
7.55412e-37
7.55383e-37
7.55348e-37
7.55308e-37
7.55262e-37
7.55211e-37
7.55153e-37
7.55089e-37
7.55018e-37
7.54941e-37
7.54856e-37
7.54764e-37
7.54664e-37
7.54557e-37
7.54441e-37
7.54317e-37
7.54184e-37
7.54042e-37
7.53891e-37
7.5373e-37
7.5356e-37
7.5338e-37
7.53189e-37
7.52988e-37
7.52776e-37
7.52554e-37
7.5232e-37
7.52075e-37
7.51818e-37
7.5155e-37
7.5127e-37
7.50977e-37
7.50672e-37
7.50355e-37
7.50026e-37
7.49684e-37
7.49329e-37
7.48962e-37
7.48581e-37
7.48188e-37
7.47782e-37
7.47363e-37
7.46931e-37
7.46487e-37
7.46029e-37
7.4556e-37
7.45077e-37
7.44582e-37
7.44075e-37
7.43556e-37
7.43026e-37
7.42483e-37
7.41929e-37
7.41365e-37
7.40789e-37
7.40203e-37
7.39607e-37
7.39001e-37
7.38385e-37
7.37761e-37
7.37128e-37
7.36486e-37
7.35837e-37
7.35182e-37
7.34529e-37
7.33925e-37
7.33658e-37
7.35466e-37
7.49853e-37
8.39828e-37
1.38042e-36
4.58438e-36
2.33872e-35
1.32708e-34
7.6267e-34
4.36379e-33
2.48129e-32
1.40367e-31
7.91397e-31
4.45497e-30
2.50774e-29
1.4132e-28
7.97846e-28
4.51468e-27
2.56148e-26
1.45807e-25
8.33606e-25
)
;

boundaryField
{
    boundary
    {
        type            empty;
    }
    inlet
    {
        type            fixedValue;
        value           nonuniform 0();
    }
    outlet
    {
        type            zeroGradient;
    }
    procBoundary3to1
    {
        type            processor;
        value           uniform 5.02646e-24;
    }
    procBoundary3to2
    {
        type            processor;
        value           uniform 7.49077e-37;
    }
}


// ************************************************************************* //
