/*--------------------------------*- C++ -*----------------------------------*\
  =========                 |
  \\      /  F ield         | OpenFOAM: The Open Source CFD Toolbox
   \\    /   O peration     | Website:  https://openfoam.org
    \\  /    A nd           | Version:  7
     \\/     M anipulation  |
\*---------------------------------------------------------------------------*/
FoamFile
{
    version     2.0;
    format      ascii;
    class       volVectorField;
    location    "0.00011";
    object      U;
}
// * * * * * * * * * * * * * * * * * * * * * * * * * * * * * * * * * * * * * //

dimensions      [0 1 -1 0 0 0 0];

internalField   nonuniform List<vector> 
126
(
(2.22761 0 0)
(2.22695 0 0)
(2.2263 0 0)
(2.22564 0 0)
(2.22498 0 0)
(2.22433 0 0)
(2.22369 0 0)
(2.22307 0 0)
(2.22244 0 0)
(2.22183 0 0)
(2.22122 0 0)
(2.22062 0 0)
(2.22002 0 0)
(2.21944 0 0)
(2.21886 0 0)
(2.21829 0 0)
(2.21773 0 0)
(2.21717 0 0)
(2.21663 0 0)
(2.21609 0 0)
(2.21556 0 0)
(2.21503 0 0)
(2.21451 0 0)
(2.21401 0 0)
(2.2135 0 0)
(2.21301 0 0)
(2.21252 0 0)
(2.21204 0 0)
(2.21157 0 0)
(2.21111 0 0)
(2.21065 0 0)
(2.2102 0 0)
(2.20976 0 0)
(2.20932 0 0)
(2.2089 0 0)
(2.20848 0 0)
(2.20806 0 0)
(2.20765 0 0)
(2.20725 0 0)
(2.20686 0 0)
(2.20647 0 0)
(2.20609 0 0)
(2.20572 0 0)
(2.20535 0 0)
(2.205 0 0)
(2.20464 0 0)
(2.2043 0 0)
(2.20395 0 0)
(2.20362 0 0)
(2.20329 0 0)
(2.20297 0 0)
(2.20265 0 0)
(2.20234 0 0)
(2.20203 0 0)
(2.20173 0 0)
(2.20144 0 0)
(2.20115 0 0)
(2.20087 0 0)
(2.20059 0 0)
(2.20032 0 0)
(2.20005 0 0)
(2.19979 0 0)
(2.19953 0 0)
(2.19928 0 0)
(2.19903 0 0)
(2.19879 0 0)
(2.19856 0 0)
(2.19832 0 0)
(2.1981 0 0)
(2.19787 0 0)
(2.19765 0 0)
(2.19744 0 0)
(2.19723 0 0)
(2.19702 0 0)
(2.19682 0 0)
(2.19662 0 0)
(2.19643 0 0)
(2.19624 0 0)
(2.19606 0 0)
(2.19588 0 0)
(2.1957 0 0)
(2.19552 0 0)
(2.19536 0 0)
(2.19519 0 0)
(2.19503 0 0)
(2.19487 0 0)
(2.19471 0 0)
(2.19456 0 0)
(2.19441 0 0)
(2.19426 0 0)
(2.19412 0 0)
(2.19398 0 0)
(2.19384 0 0)
(2.1937 0 0)
(2.19356 0 0)
(2.19343 0 0)
(2.1933 0 0)
(2.19318 0 0)
(2.19305 0 0)
(2.19292 0 0)
(2.1928 0 0)
(2.19267 0 0)
(2.19255 0 0)
(2.19243 0 0)
(2.19231 0 0)
(2.19219 0 0)
(2.19206 0 0)
(2.19194 0 0)
(2.19181 0 0)
(2.19169 0 0)
(2.19156 0 0)
(2.19144 0 0)
(2.19131 0 0)
(2.19117 0 0)
(2.19104 0 0)
(2.1909 0 0)
(2.19076 0 0)
(2.19062 0 0)
(2.19047 0 0)
(2.19032 0 0)
(2.19017 0 0)
(2.19001 0 0)
(2.18984 0 0)
(2.18968 0 0)
(2.18951 0 0)
(2.18932 0 0)
)
;

boundaryField
{
    boundary
    {
        type            empty;
    }
    inlet
    {
        type            fixedValue;
        value           nonuniform 0();
    }
    outlet
    {
        type            zeroGradient;
    }
    procBoundary3to1
    {
        type            processor;
        value           uniform (2.18912 0 0);
    }
    procBoundary3to2
    {
        type            processor;
        value           uniform (2.2283 0 0);
    }
}


// ************************************************************************* //
