/*--------------------------------*- C++ -*----------------------------------*\
  =========                 |
  \\      /  F ield         | OpenFOAM: The Open Source CFD Toolbox
   \\    /   O peration     | Website:  https://openfoam.org
    \\  /    A nd           | Version:  7
     \\/     M anipulation  |
\*---------------------------------------------------------------------------*/
FoamFile
{
    version     2.0;
    format      ascii;
    class       volScalarField;
    location    "0.00067";
    object      p;
}
// * * * * * * * * * * * * * * * * * * * * * * * * * * * * * * * * * * * * * //

dimensions      [1 -1 -2 0 0 0 0];

internalField   nonuniform List<scalar> 
125
(
103129
103129
103129
103129
103129
103129
103129
103129
103129
103129
103129
103129
103129
103129
103129
103129
103129
103129
103129
103129
103129
103129
103129
103129
103129
103128
103128
103126
103124
103122
103119
103117
103115
103113
103112
103111
103110
103109
103108
103108
103107
103107
103106
103106
103106
103106
103105
103105
103105
103105
103105
103104
103104
103104
103104
103104
103104
103104
103103
103103
103103
103103
103103
103103
103103
103103
103103
103103
103103
103103
103102
103102
103102
103102
103102
103102
103102
103102
103102
103102
103102
103102
103102
103102
103102
103102
103102
103102
103102
103102
103102
103101
103101
103101
103101
103101
103101
103101
103101
103101
103101
103101
103101
103101
103101
103101
103101
103101
103101
103101
103101
103101
103101
103101
103101
103101
103101
103101
103101
103101
103101
103101
103101
103101
103101
)
;

boundaryField
{
    boundary
    {
        type            empty;
    }
    inlet
    {
        type            zeroGradient;
    }
    outlet
    {
        type            waveTransmissive;
        gamma           1.4;
        value           nonuniform 0();
    }
    procBoundary1to0
    {
        type            processor;
        value           uniform 103101;
    }
    procBoundary1to3
    {
        type            processor;
        value           uniform 103129;
    }
}


// ************************************************************************* //
