/*--------------------------------*- C++ -*----------------------------------*\
  =========                 |
  \\      /  F ield         | OpenFOAM: The Open Source CFD Toolbox
   \\    /   O peration     | Website:  https://openfoam.org
    \\  /    A nd           | Version:  7
     \\/     M anipulation  |
\*---------------------------------------------------------------------------*/
FoamFile
{
    version     2.0;
    format      ascii;
    class       volScalarField;
    location    "0.00067";
    object      Qdot;
}
// * * * * * * * * * * * * * * * * * * * * * * * * * * * * * * * * * * * * * //

dimensions      [1 -1 -3 0 0 0 0];

internalField   nonuniform List<scalar> 
125
(
1.04548e-09
3.69811e-09
1.354e-08
5.14628e-08
2.02865e-07
8.26388e-07
3.46075e-06
1.4816e-05
6.45139e-05
0.000284455
0.00126623
0.00567787
0.0256173
0.116266
0.531211
2.44782
11.4136
55.8731
298.665
1887.24
13951.7
110952
997098
9.47333e+06
8.84779e+07
7.09756e+08
3.60279e+09
9.26807e+09
1.30445e+10
1.38661e+10
1.39253e+10
1.38587e+10
1.31655e+10
1.16098e+10
9.6588e+09
7.895e+09
6.48868e+09
5.40624e+09
4.5829e+09
3.95092e+09
3.4573e+09
3.064e+09
2.74447e+09
2.48014e+09
2.25808e+09
2.06895e+09
1.90601e+09
1.76422e+09
1.63979e+09
1.52978e+09
1.43188e+09
1.34426e+09
1.26545e+09
1.19422e+09
1.1296e+09
1.07073e+09
1.01692e+09
9.67584e+08
9.22219e+08
8.80414e+08
8.41869e+08
8.07189e+08
7.75445e+08
7.45594e+08
7.17581e+08
6.91224e+08
6.6639e+08
6.42944e+08
6.20785e+08
5.99815e+08
5.79944e+08
5.61094e+08
5.43191e+08
5.26171e+08
5.09974e+08
4.94544e+08
4.79832e+08
4.65791e+08
4.5238e+08
4.39559e+08
4.27293e+08
4.15549e+08
4.04296e+08
3.93506e+08
3.83153e+08
3.73212e+08
3.63661e+08
3.54479e+08
3.45646e+08
3.37145e+08
3.28957e+08
3.21067e+08
3.1346e+08
3.06123e+08
2.99041e+08
2.92203e+08
2.85598e+08
2.79214e+08
2.73041e+08
2.6707e+08
2.61292e+08
2.55697e+08
2.50279e+08
2.45029e+08
2.39941e+08
2.35007e+08
2.30221e+08
2.25577e+08
2.21069e+08
2.16692e+08
2.12441e+08
2.0831e+08
2.04296e+08
2.00393e+08
1.96597e+08
1.92904e+08
1.89311e+08
1.85814e+08
1.8241e+08
1.79094e+08
1.75865e+08
1.72719e+08
1.69654e+08
1.66669e+08
1.63763e+08
)
;

boundaryField
{
    boundary
    {
        type            empty;
    }
    inlet
    {
        type            calculated;
        value           nonuniform 0();
    }
    outlet
    {
        type            calculated;
        value           nonuniform 0();
    }
    procBoundary1to0
    {
        type            processor;
        value           uniform 0;
    }
    procBoundary1to3
    {
        type            processor;
        value           uniform 0;
    }
}


// ************************************************************************* //
