/*--------------------------------*- C++ -*----------------------------------*\
  =========                 |
  \\      /  F ield         | OpenFOAM: The Open Source CFD Toolbox
   \\    /   O peration     | Website:  https://openfoam.org
    \\  /    A nd           | Version:  7
     \\/     M anipulation  |
\*---------------------------------------------------------------------------*/
FoamFile
{
    version     2.0;
    format      ascii;
    class       volScalarField;
    location    "0.00038";
    object      H2;
}
// * * * * * * * * * * * * * * * * * * * * * * * * * * * * * * * * * * * * * //

dimensions      [0 0 0 0 0 0 0];

internalField   nonuniform List<scalar> 
500
(
0.0285116
0.0285116
0.0285116
0.0285116
0.0285116
0.0285116
0.0285116
0.0285116
0.0285116
0.0285116
0.0285116
0.0285116
0.0285116
0.0285116
0.0285116
0.0285116
0.0285116
0.0285116
0.0285116
0.0285116
0.0285116
0.0285116
0.0285116
0.0285116
0.0285116
0.0285116
0.0285116
0.0285116
0.0285116
0.0285116
0.0285116
0.0285116
0.0285116
0.0285116
0.0285116
0.0285116
0.0285116
0.0285116
0.0285116
0.0285116
0.0285116
0.0285116
0.0285116
0.0285116
0.0285116
0.0285116
0.0285116
0.0285116
0.0285116
0.0285116
0.0285116
0.0285116
0.0285116
0.0285116
0.0285116
0.0285116
0.0285116
0.0285116
0.0285116
0.0285116
0.0285116
0.0285116
0.0285116
0.0285116
0.0285116
0.0285116
0.0285116
0.0285116
0.0285116
0.0285116
0.0285116
0.0285116
0.0285116
0.0285116
0.0285116
0.0285116
0.0285116
0.0285116
0.0285116
0.0285116
0.0285116
0.0285116
0.0285116
0.0285116
0.0285116
0.0285116
0.0285116
0.0285116
0.0285116
0.0285116
0.0285116
0.0285116
0.0285116
0.0285116
0.0285116
0.0285116
0.0285116
0.0285116
0.0285116
0.0285116
0.0285116
0.0285116
0.0285116
0.0285116
0.0285116
0.0285116
0.0285116
0.0285116
0.0285116
0.0285116
0.0285116
0.0285116
0.0285116
0.0285116
0.0285116
0.0285116
0.0285116
0.0285116
0.0285116
0.0285116
0.0285116
0.0285116
0.0285116
0.0285116
0.0285116
0.0285116
0.0285116
0.0285116
0.0285116
0.0285116
0.0285116
0.0285116
0.0285116
0.0285116
0.0285116
0.0285116
0.0285116
0.0285116
0.0285116
0.0285116
0.0285116
0.0285116
0.0285116
0.0285116
0.0285116
0.0285116
0.0285116
0.0285116
0.0285116
0.0285116
0.0285116
0.0285116
0.0285116
0.0285116
0.0285116
0.0285116
0.0285116
0.0285116
0.0285116
0.0285116
0.0285116
0.0285116
0.0285116
0.0285116
0.0285116
0.0285116
0.0285116
0.0285116
0.0285116
0.0285116
0.0285116
0.0285116
0.0285116
0.0285116
0.0285116
0.0285116
0.0285116
0.0285116
0.0285116
0.0285116
0.0285116
0.0285116
0.0285116
0.0285116
0.0285116
0.0285116
0.0285116
0.0285116
0.0285116
0.0285116
0.0285116
0.0285116
0.0285116
0.0285116
0.0285116
0.0285116
0.0285116
0.0285116
0.0285116
0.0285116
0.0285116
0.0285116
0.0285116
0.0285116
0.0285116
0.0285116
0.0285116
0.0285116
0.0285116
0.0285116
0.0285116
0.0285116
0.0285116
0.0285116
0.0285116
0.0285116
0.0285116
0.0285116
0.0285116
0.0285116
0.0285116
0.0285116
0.0285116
0.0285116
0.0285116
0.0285116
0.0285116
0.0285116
0.0285116
0.0285116
0.0285116
0.0285116
0.0285116
0.0285116
0.0285116
0.0285116
0.0285116
0.0285116
0.0285116
0.0285116
0.0285116
0.0285116
0.0285116
0.0285116
0.0285116
0.0285116
0.0285116
0.0285116
0.0285116
0.0285116
0.0285116
0.0285116
0.0285116
0.0285116
0.0285116
0.0285116
0.0285116
0.0285116
0.0285116
0.0285116
0.0285116
0.0285116
0.0285116
0.0285115
0.0285115
0.0285114
0.0285111
0.0285106
0.0285096
0.0285074
0.0285029
0.0284934
0.0284735
0.0284321
0.028346
0.0281685
0.0278107
0.0271264
0.0259387
0.0241358
0.0218064
0.0191147
0.0161444
0.0130766
0.0102667
0.00803056
0.00645066
0.00533278
0.0046836
0.00428302
0.0040362
0.00388186
0.0037822
0.00371448
0.00366523
0.0036266
0.00359403
0.0035649
0.00353776
0.00351176
0.00348647
0.00346166
0.00343723
0.00341311
0.00338931
0.00336582
0.00334266
0.00331984
0.00329736
0.00327524
0.00325348
0.00323208
0.0032117
0.00319212
0.00317282
0.00315379
0.00313503
0.00311652
0.00309827
0.00308028
0.00306255
0.00304506
0.00302782
0.00301083
0.00299407
0.00297755
0.00296126
0.0029452
0.00292937
0.00291375
0.00289836
0.00288318
0.00286821
0.00285344
0.00283888
0.00282452
0.00281036
0.00279639
0.00278261
0.00276902
0.00275561
0.00274239
0.00272935
0.00271649
0.0027038
0.00269129
0.00267895
0.00266679
0.00265479
0.00264296
0.00263131
0.00261982
0.0026085
0.00259734
0.00258636
0.00257555
0.0025649
0.00255443
0.00254413
0.00253401
0.00252407
0.0025143
0.00250472
0.00249533
0.00248614
0.00247714
0.00246835
0.00245978
0.00245144
0.00244335
0.00243552
0.00242798
0.00242077
0.00241392
0.00240751
0.00240162
0.00239549
0.00238881
0.00238239
0.00237622
0.0023703
0.00236463
0.0023592
0.00235404
0.00234913
0.00234449
0.00234011
0.00233601
0.00233218
0.00232862
0.00232535
0.00232235
0.00231963
0.00231719
0.00231503
0.00231313
0.00231151
0.00231014
0.00230903
0.00230817
0.00230754
0.00230714
0.00230696
0.00230697
0.00230717
0.00230755
0.00230807
0.00230872
0.00230949
0.00231035
0.00231127
0.00231223
0.0023132
0.00231416
0.00231508
0.00231592
0.00231666
0.00231726
0.00231769
0.00231792
0.00231791
0.00231763
0.00231705
0.00231612
0.00231482
0.00231312
0.00231098
0.00230836
0.00230525
0.0023016
0.0022974
0.00229261
0.00228722
0.0022812
0.00227454
0.00226721
0.00225921
0.00225052
0.00224114
0.00223106
0.00222027
0.00220879
0.00219661
0.00218374
0.0021702
0.00215599
0.00214113
0.00212564
0.00210954
0.00209286
0.00207563
0.00205787
0.00203961
0.0020209
0.00200176
0.00198224
0.00196236
0.00194219
0.00192175
0.00190108
0.00188024
0.00185927
0.00183821
0.0018171
0.00179599
0.00177492
0.00175395
0.0017331
0.00171242
0.00169195
0.00167173
0.0016518
0.00163219
0.00161294
0.00159407
0.00157562
0.00155761
0.00154007
0.00152302
0.00150648
0.00149046
0.00147498
0.00146005
0.00144569
0.00143189
0.00141868
0.00140604
0.00139398
0.00138251
0.00137163
0.00136134
0.00135166
0.0013426
0.00133418
0.00132645
0.00131948
0.00131336
0.00130827
0.00130445
0.00130225
)
;

boundaryField
{
    boundary
    {
        type            empty;
    }
    inlet
    {
        type            fixedValue;
        value           uniform 0.0285116;
    }
    outlet
    {
        type            zeroGradient;
    }
}


// ************************************************************************* //
