/*--------------------------------*- C++ -*----------------------------------*\
  =========                 |
  \\      /  F ield         | OpenFOAM: The Open Source CFD Toolbox
   \\    /   O peration     | Website:  https://openfoam.org
    \\  /    A nd           | Version:  7
     \\/     M anipulation  |
\*---------------------------------------------------------------------------*/
FoamFile
{
    version     2.0;
    format      ascii;
    class       volScalarField;
    location    "0.00038";
    object      H2O;
}
// * * * * * * * * * * * * * * * * * * * * * * * * * * * * * * * * * * * * * //

dimensions      [0 0 0 0 0 0 0];

internalField   nonuniform List<scalar> 
500
(
7.90535e-48
2.28662e-47
4.11859e-47
6.18121e-47
8.40462e-47
1.07435e-46
1.31697e-46
1.56673e-46
1.82293e-46
2.08552e-46
2.355e-46
2.63225e-46
2.91844e-46
3.21489e-46
3.52299e-46
3.84402e-46
4.17898e-46
4.52848e-46
4.89251e-46
5.27034e-46
5.66042e-46
6.06033e-46
6.4668e-46
6.87581e-46
7.28277e-46
7.68271e-46
8.07058e-46
8.44153e-46
8.79115e-46
9.11573e-46
9.41247e-46
9.67953e-46
9.91608e-46
1.01223e-45
1.02992e-45
1.04486e-45
1.05728e-45
1.06743e-45
1.07561e-45
1.08209e-45
1.08715e-45
1.09104e-45
1.09399e-45
1.0962e-45
1.09782e-45
1.099e-45
1.09984e-45
1.10043e-45
1.10085e-45
1.10113e-45
1.10133e-45
1.10146e-45
1.10154e-45
1.1016e-45
1.10163e-45
1.10166e-45
1.10167e-45
1.10168e-45
1.10169e-45
1.1017e-45
1.1017e-45
1.1017e-45
1.10171e-45
1.10171e-45
1.10172e-45
1.10172e-45
1.10172e-45
1.10173e-45
1.10173e-45
1.10174e-45
1.10175e-45
1.10175e-45
1.10176e-45
1.10177e-45
1.10178e-45
1.10179e-45
1.1018e-45
1.10181e-45
1.10182e-45
1.10183e-45
1.10184e-45
1.10186e-45
1.10187e-45
1.10189e-45
1.1019e-45
1.10192e-45
1.10194e-45
1.10196e-45
1.10198e-45
1.102e-45
1.10202e-45
1.10204e-45
1.10207e-45
1.10209e-45
1.10212e-45
1.10215e-45
1.10218e-45
1.10221e-45
1.10224e-45
1.10227e-45
1.10231e-45
1.10234e-45
1.10238e-45
1.10242e-45
1.10246e-45
1.1025e-45
1.10254e-45
1.10258e-45
1.10263e-45
1.10268e-45
1.10273e-45
1.10278e-45
1.10283e-45
1.10288e-45
1.10294e-45
1.10299e-45
1.10305e-45
1.10311e-45
1.10317e-45
1.10323e-45
1.1033e-45
1.10336e-45
1.10341e-45
1.10329e-45
1.10225e-45
1.10017e-45
1.10161e-45
1.1029e-45
1.10384e-45
1.10443e-45
1.10475e-45
1.10489e-45
1.10493e-45
1.10491e-45
1.10484e-45
1.10474e-45
1.10461e-45
1.10445e-45
1.10427e-45
1.10407e-45
1.10387e-45
1.10368e-45
1.10351e-45
1.10337e-45
1.10327e-45
1.10322e-45
1.10322e-45
1.10328e-45
1.10339e-45
1.10356e-45
1.10377e-45
1.10401e-45
1.10428e-45
1.10456e-45
1.10484e-45
1.10512e-45
1.10539e-45
1.10564e-45
1.10588e-45
1.10609e-45
1.10628e-45
1.10645e-45
1.1066e-45
1.10674e-45
1.10685e-45
1.10696e-45
1.10705e-45
1.10713e-45
1.1072e-45
1.10726e-45
1.10731e-45
1.10736e-45
1.1074e-45
1.10743e-45
1.10746e-45
1.10748e-45
1.10749e-45
1.10749e-45
1.10749e-45
1.10748e-45
1.10746e-45
1.10743e-45
1.10739e-45
1.10734e-45
1.10728e-45
1.10721e-45
1.10713e-45
1.10704e-45
1.10694e-45
1.10682e-45
1.10669e-45
1.10655e-45
1.10639e-45
1.10622e-45
1.10603e-45
1.10583e-45
1.10561e-45
1.10538e-45
1.10513e-45
1.10486e-45
1.10457e-45
1.10426e-45
1.10394e-45
1.1036e-45
1.10323e-45
1.10285e-45
1.10246e-45
1.10209e-45
1.10196e-45
1.10314e-45
1.11122e-45
1.15485e-45
1.38001e-45
2.52397e-45
8.28365e-45
3.707e-44
1.80027e-43
8.86183e-43
4.3601e-42
2.14073e-41
1.05012e-40
5.15709e-40
2.54147e-39
1.25994e-38
6.29801e-38
3.18029e-37
1.62419e-36
8.39078e-36
4.3815e-35
2.30871e-34
1.2247e-33
6.523e-33
3.47881e-32
1.85291e-31
9.83373e-31
5.18992e-30
2.71939e-29
1.41277e-28
7.26953e-28
3.70177e-27
1.86422e-26
9.27994e-26
4.56424e-25
2.21722e-24
1.06345e-23
5.0345e-23
2.35184e-22
1.084e-21
4.93103e-21
2.21558e-20
9.84619e-20
4.39913e-19
1.92846e-18
8.33297e-18
3.5628e-17
1.50884e-16
6.33372e-16
2.63711e-15
1.08983e-14
4.47364e-14
1.82536e-13
7.4085e-13
2.99294e-12
1.20429e-11
4.82929e-11
1.93102e-10
7.70272e-10
3.06646e-09
1.21877e-08
4.83752e-08
1.91795e-07
7.59633e-07
3.0052e-06
1.18678e-05
4.66863e-05
0.00018183
0.000689193
0.00243446
0.00736434
0.0175052
0.0323876
0.0507407
0.072905
0.0984015
0.12405
0.145899
0.161956
0.175612
0.183471
0.188757
0.192388
0.194973
0.1969
0.198411
0.199652
0.200715
0.201655
0.202506
0.203291
0.204024
0.204714
0.205367
0.205988
0.206582
0.207149
0.207693
0.208216
0.208719
0.209203
0.20967
0.21012
0.210554
0.21096
0.211347
0.211724
0.212091
0.212449
0.212798
0.213138
0.213471
0.213796
0.214114
0.214424
0.214728
0.215026
0.215317
0.215602
0.215881
0.216155
0.216424
0.216687
0.216946
0.2172
0.217449
0.217693
0.217934
0.21817
0.218402
0.21863
0.218855
0.219076
0.219293
0.219507
0.219718
0.219925
0.22013
0.220331
0.22053
0.220726
0.220919
0.22111
0.221298
0.221484
0.221668
0.22185
0.22203
0.222208
0.222384
0.222559
0.222731
0.222903
0.223073
0.223242
0.22341
0.223577
0.223744
0.22391
0.224075
0.22424
0.224405
0.22457
0.224737
0.224905
0.225075
0.225249
0.22543
0.225608
0.225776
0.225944
0.226112
0.226281
0.22645
0.226621
0.226794
0.226967
0.227143
0.22732
0.227499
0.227681
0.227864
0.228049
0.228237
0.228427
0.228618
0.228812
0.229008
0.229205
0.229404
0.229605
0.229807
0.23001
0.230214
0.230419
0.230625
0.230831
0.231037
0.231243
0.231449
0.231654
0.231859
0.232062
0.232264
0.232465
0.232663
0.23286
0.233055
0.233247
0.233437
0.233624
0.233809
0.23399
0.234169
0.234344
0.234516
0.234686
0.234852
0.235014
0.235174
0.23533
0.235483
0.235634
0.235781
0.235925
0.236067
0.236206
0.236342
0.236475
0.236606
0.236735
0.236861
0.236985
0.237106
0.237226
0.237343
0.237458
0.237571
0.237681
0.23779
0.237896
0.238
0.238102
0.238201
0.238298
0.238393
0.238485
0.238575
0.238661
0.238746
0.238827
0.238906
0.238981
0.239054
0.239124
0.239191
0.239255
0.239316
0.239374
0.239428
0.23948
0.239529
0.239575
0.239618
0.239659
0.239696
0.239731
0.239764
0.239794
0.239821
0.239847
0.23987
0.239891
0.239911
0.239928
0.239944
0.239959
0.239972
0.239984
0.239994
0.240003
0.240012
0.240019
0.240026
0.240032
0.240036
0.24004
0.240044
0.240046
0.240048
0.240049
0.240049
)
;

boundaryField
{
    boundary
    {
        type            empty;
    }
    inlet
    {
        type            fixedValue;
        value           uniform 0;
    }
    outlet
    {
        type            zeroGradient;
    }
}


// ************************************************************************* //
