/*--------------------------------*- C++ -*----------------------------------*\
  =========                 |
  \\      /  F ield         | OpenFOAM: The Open Source CFD Toolbox
   \\    /   O peration     | Website:  https://openfoam.org
    \\  /    A nd           | Version:  7
     \\/     M anipulation  |
\*---------------------------------------------------------------------------*/
FoamFile
{
    version     2.0;
    format      ascii;
    class       volScalarField;
    location    "0.00038";
    object      N2;
}
// * * * * * * * * * * * * * * * * * * * * * * * * * * * * * * * * * * * * * //

dimensions      [0 0 0 0 0 0 0];

internalField   nonuniform List<scalar> 
500
(
0.745219
0.745219
0.745219
0.745219
0.745219
0.745219
0.745219
0.745219
0.745219
0.745219
0.745219
0.745219
0.745219
0.745219
0.745219
0.745219
0.745219
0.745219
0.745219
0.745219
0.745219
0.745219
0.745219
0.745219
0.745219
0.74522
0.74522
0.74522
0.74522
0.74522
0.74522
0.74522
0.74522
0.74522
0.74522
0.74522
0.74522
0.74522
0.74522
0.74522
0.74522
0.74522
0.74522
0.74522
0.74522
0.74522
0.74522
0.74522
0.74522
0.74522
0.74522
0.74522
0.74522
0.74522
0.74522
0.74522
0.74522
0.74522
0.74522
0.74522
0.74522
0.74522
0.74522
0.74522
0.74522
0.74522
0.74522
0.74522
0.74522
0.74522
0.74522
0.74522
0.74522
0.74522
0.74522
0.74522
0.74522
0.74522
0.74522
0.74522
0.74522
0.74522
0.74522
0.74522
0.74522
0.74522
0.74522
0.74522
0.74522
0.74522
0.74522
0.74522
0.74522
0.74522
0.74522
0.74522
0.74522
0.74522
0.74522
0.74522
0.74522
0.74522
0.74522
0.74522
0.74522
0.74522
0.74522
0.74522
0.74522
0.74522
0.74522
0.74522
0.74522
0.74522
0.74522
0.74522
0.74522
0.74522
0.74522
0.74522
0.74522
0.74522
0.74522
0.74522
0.74522
0.74522
0.74522
0.74522
0.74522
0.74522
0.74522
0.74522
0.74522
0.74522
0.74522
0.74522
0.74522
0.74522
0.74522
0.74522
0.74522
0.74522
0.74522
0.74522
0.74522
0.74522
0.74522
0.74522
0.74522
0.74522
0.74522
0.74522
0.74522
0.74522
0.74522
0.74522
0.74522
0.74522
0.74522
0.74522
0.74522
0.74522
0.74522
0.74522
0.74522
0.74522
0.74522
0.74522
0.74522
0.74522
0.74522
0.74522
0.74522
0.74522
0.74522
0.74522
0.74522
0.74522
0.74522
0.74522
0.74522
0.74522
0.74522
0.74522
0.74522
0.74522
0.74522
0.74522
0.74522
0.74522
0.74522
0.74522
0.74522
0.74522
0.74522
0.74522
0.74522
0.74522
0.74522
0.74522
0.74522
0.74522
0.74522
0.74522
0.74522
0.74522
0.74522
0.74522
0.74522
0.74522
0.74522
0.74522
0.74522
0.74522
0.74522
0.74522
0.74522
0.74522
0.74522
0.74522
0.74522
0.74522
0.74522
0.74522
0.74522
0.74522
0.74522
0.74522
0.74522
0.74522
0.74522
0.74522
0.74522
0.74522
0.74522
0.74522
0.74522
0.74522
0.74522
0.74522
0.74522
0.74522
0.74522
0.74522
0.74522
0.74522
0.74522
0.74522
0.74522
0.74522
0.74522
0.74522
0.74522
0.74522
0.74522
0.74522
0.74522
0.74522
0.74522
0.74522
0.74522
0.74522
0.74522
0.74522
0.74522
0.74522
0.74522
0.74522
0.745221
0.745223
0.745226
0.745233
0.745247
0.745274
0.745327
0.745419
0.745546
0.745628
0.745509
0.745186
0.744723
0.744158
0.743711
0.743622
0.743868
0.74421
0.744379
0.744894
0.745063
0.745179
0.745251
0.745295
0.745321
0.745335
0.745342
0.745345
0.745345
0.745343
0.745341
0.745338
0.745335
0.745332
0.745328
0.745325
0.745322
0.745319
0.745316
0.745313
0.74531
0.745308
0.745305
0.745303
0.745301
0.745299
0.745297
0.745295
0.745293
0.745291
0.745289
0.745288
0.745286
0.745285
0.745283
0.745282
0.74528
0.745279
0.745278
0.745276
0.745275
0.745274
0.745273
0.745272
0.74527
0.745269
0.745268
0.745267
0.745266
0.745265
0.745264
0.745263
0.745262
0.745261
0.745259
0.745258
0.745257
0.745255
0.745254
0.745253
0.745251
0.745249
0.745247
0.745246
0.745244
0.745241
0.745239
0.745237
0.745234
0.745232
0.745229
0.745226
0.745223
0.74522
0.745216
0.745213
0.745209
0.745205
0.745202
0.745198
0.745193
0.745189
0.745185
0.74518
0.745175
0.745169
0.745162
0.745154
0.745147
0.745145
0.745142
0.745141
0.745139
0.745138
0.745138
0.745137
0.745137
0.745137
0.745137
0.745138
0.745139
0.74514
0.745142
0.745144
0.745146
0.74515
0.745154
0.745158
0.745164
0.74517
0.745178
0.745186
0.745196
0.745206
0.745218
0.74523
0.745244
0.745258
0.745274
0.74529
0.745307
0.745325
0.745343
0.745362
0.745382
0.745401
0.745421
0.745441
0.74546
0.745479
0.745498
0.745516
0.745534
0.74555
0.745566
0.74558
0.745593
0.745604
0.745614
0.745622
0.745628
0.745632
0.745634
0.745634
0.745633
0.745628
0.745622
0.745614
0.745604
0.745591
0.745577
0.745561
0.745543
0.745523
0.745502
0.745479
0.745456
0.745431
0.745406
0.74538
0.745353
0.745326
0.7453
0.745273
0.745246
0.74522
0.745195
0.745171
0.745147
0.745125
0.745103
0.745083
0.745065
0.745047
0.745032
0.745018
0.745005
0.744994
0.744985
0.744978
0.744971
0.744967
0.744964
0.744962
0.744962
0.744963
0.744965
0.744968
0.744972
0.744977
0.744983
0.744989
0.744996
0.745004
0.745012
0.74502
0.745029
0.745038
0.745047
0.745056
0.745065
0.745073
0.745082
0.74509
0.745099
0.745106
0.745114
0.74512
0.745126
0.745131
0.745135
0.745137
)
;

boundaryField
{
    boundary
    {
        type            empty;
    }
    inlet
    {
        type            fixedValue;
        value           uniform 0.74522;
    }
    outlet
    {
        type            zeroGradient;
    }
}


// ************************************************************************* //
