/*--------------------------------*- C++ -*----------------------------------*\
  =========                 |
  \\      /  F ield         | OpenFOAM: The Open Source CFD Toolbox
   \\    /   O peration     | Website:  https://openfoam.org
    \\  /    A nd           | Version:  7
     \\/     M anipulation  |
\*---------------------------------------------------------------------------*/
FoamFile
{
    version     2.0;
    format      ascii;
    class       volScalarField;
    location    "0.00038";
    object      Qdot;
}
// * * * * * * * * * * * * * * * * * * * * * * * * * * * * * * * * * * * * * //

dimensions      [1 -1 -3 0 0 0 0];

internalField   nonuniform List<scalar> 
500
(
-2.45476e-27
-1.86703e-27
-1.74209e-27
-1.71711e-27
-1.71395e-27
-1.71584e-27
-1.71925e-27
-1.72357e-27
-1.7288e-27
-1.73514e-27
-1.74285e-27
-1.75224e-27
-1.76362e-27
-1.77735e-27
-1.79377e-27
-1.8132e-27
-1.83594e-27
-1.86221e-27
-1.89216e-27
-1.92583e-27
-1.96317e-27
-2.00394e-27
-2.04781e-27
-2.09427e-27
-2.14271e-27
-2.1924e-27
-2.24252e-27
-2.29224e-27
-2.34071e-27
-2.38717e-27
-2.43091e-27
-2.47138e-27
-2.50819e-27
-2.54107e-27
-2.56996e-27
-2.5949e-27
-2.61609e-27
-2.63378e-27
-2.64833e-27
-2.6601e-27
-2.66949e-27
-2.67685e-27
-2.68255e-27
-2.6869e-27
-2.69017e-27
-2.69259e-27
-2.69437e-27
-2.69565e-27
-2.69657e-27
-2.69722e-27
-2.69767e-27
-2.69798e-27
-2.69819e-27
-2.69834e-27
-2.69844e-27
-2.6985e-27
-2.69855e-27
-2.69859e-27
-2.69861e-27
-2.69863e-27
-2.69865e-27
-2.69867e-27
-2.69868e-27
-2.6987e-27
-2.69871e-27
-2.69873e-27
-2.69874e-27
-2.69876e-27
-2.69878e-27
-2.6988e-27
-2.69882e-27
-2.69884e-27
-2.69886e-27
-2.69889e-27
-2.69891e-27
-2.69894e-27
-2.69897e-27
-2.699e-27
-2.69903e-27
-2.69906e-27
-2.6991e-27
-2.69913e-27
-2.69917e-27
-2.69921e-27
-2.69925e-27
-2.69929e-27
-2.69934e-27
-2.69938e-27
-2.69943e-27
-2.69948e-27
-2.69954e-27
-2.69959e-27
-2.69965e-27
-2.69971e-27
-2.69977e-27
-2.69984e-27
-2.6999e-27
-2.69997e-27
-2.70004e-27
-2.70012e-27
-2.7002e-27
-2.70028e-27
-2.70036e-27
-2.70044e-27
-2.70053e-27
-2.70062e-27
-2.70072e-27
-2.70081e-27
-2.70091e-27
-2.70102e-27
-2.70112e-27
-2.70123e-27
-2.70134e-27
-2.70146e-27
-2.70158e-27
-2.7017e-27
-2.70182e-27
-2.70195e-27
-2.70208e-27
-2.70221e-27
-2.70235e-27
-2.70249e-27
-2.70263e-27
-2.70277e-27
-2.7029e-27
-2.70302e-27
-2.70321e-27
-2.70337e-27
-2.70353e-27
-2.70369e-27
-2.70385e-27
-2.70401e-27
-2.70418e-27
-2.70434e-27
-2.7045e-27
-2.70467e-27
-2.70483e-27
-2.705e-27
-2.70516e-27
-2.70533e-27
-2.7055e-27
-2.70566e-27
-2.70583e-27
-2.70601e-27
-2.70618e-27
-2.70636e-27
-2.70655e-27
-2.70674e-27
-2.70693e-27
-2.70713e-27
-2.70734e-27
-2.70754e-27
-2.70775e-27
-2.70796e-27
-2.70817e-27
-2.70838e-27
-2.70858e-27
-2.70879e-27
-2.70898e-27
-2.70918e-27
-2.70936e-27
-2.70955e-27
-2.70972e-27
-2.70989e-27
-2.71005e-27
-2.7102e-27
-2.71034e-27
-2.71048e-27
-2.7106e-27
-2.71072e-27
-2.71083e-27
-2.71092e-27
-2.71101e-27
-2.71109e-27
-2.71115e-27
-2.7112e-27
-2.71124e-27
-2.71126e-27
-2.71127e-27
-2.71126e-27
-2.71124e-27
-2.7112e-27
-2.71115e-27
-2.71107e-27
-2.71098e-27
-2.71086e-27
-2.71072e-27
-2.71057e-27
-2.71039e-27
-2.71018e-27
-2.70995e-27
-2.7097e-27
-2.70942e-27
-2.70911e-27
-2.70877e-27
-2.70841e-27
-2.70801e-27
-2.70758e-27
-2.70712e-27
-2.70663e-27
-2.7061e-27
-2.70554e-27
-2.70495e-27
-2.70431e-27
-2.70364e-27
-2.70294e-27
-2.70219e-27
-2.7014e-27
-2.70058e-27
-2.69971e-27
-2.6988e-27
-2.69784e-27
-2.69685e-27
-2.69581e-27
-2.69472e-27
-2.69357e-27
-2.69228e-27
-2.69051e-27
-2.68663e-27
-2.67313e-27
-2.61559e-27
-2.35787e-27
-1.19939e-27
3.96962e-27
2.68031e-26
1.26595e-25
5.57994e-25
2.40247e-24
1.02015e-23
4.2811e-23
1.77633e-22
7.28778e-22
2.9564e-21
1.18582e-20
4.70284e-20
1.84414e-19
7.15052e-19
2.74176e-18
1.03973e-17
3.9003e-17
1.44768e-16
5.31863e-16
1.93507e-15
6.97677e-15
2.49499e-14
8.86093e-14
3.13043e-13
1.10252e-12
3.88167e-12
1.37067e-11
4.87328e-11
1.7452e-10
6.36737e-10
2.37485e-09
9.08533e-09
3.57306e-08
1.44493e-07
5.99828e-07
2.54813e-06
1.10347e-05
4.85249e-05
0.000215946
0.000969828
0.00438716
0.0199669
0.0913997
0.421062
1.95543
9.18227
44.822
239.144
1507.56
10879.3
85831.7
767105
7.26932e+06
6.85339e+07
5.67923e+08
3.09648e+09
8.63276e+09
1.28195e+10
1.38474e+10
1.39243e+10
1.38924e+10
1.32904e+10
1.18922e+10
9.99768e+09
8.07611e+09
6.57592e+09
5.4731e+09
4.63095e+09
3.98585e+09
3.48312e+09
3.08344e+09
2.7594e+09
2.49186e+09
2.26748e+09
2.07668e+09
1.91252e+09
1.76984e+09
1.64474e+09
1.53422e+09
1.43593e+09
1.348e+09
1.26893e+09
1.19749e+09
1.13266e+09
1.07362e+09
1.01965e+09
9.70174e+08
9.247e+08
8.82877e+08
8.45333e+08
8.11048e+08
7.78879e+08
7.48735e+08
7.20432e+08
6.93806e+08
6.68723e+08
6.45047e+08
6.22678e+08
6.01514e+08
5.81466e+08
5.62454e+08
5.44402e+08
5.27247e+08
5.10925e+08
4.95381e+08
4.80564e+08
4.66428e+08
4.5293e+08
4.4003e+08
4.27691e+08
4.15881e+08
4.04569e+08
3.93724e+08
3.83322e+08
3.73338e+08
3.63748e+08
3.54531e+08
3.45667e+08
3.37139e+08
3.28928e+08
3.21018e+08
3.13395e+08
3.06045e+08
2.98953e+08
2.92108e+08
2.85498e+08
2.79113e+08
2.72941e+08
2.66973e+08
2.612e+08
2.55613e+08
2.50205e+08
2.44967e+08
2.39892e+08
2.34973e+08
2.30204e+08
2.25578e+08
2.2109e+08
2.16734e+08
2.12505e+08
2.08397e+08
2.04406e+08
2.00528e+08
1.96758e+08
1.93092e+08
1.89527e+08
1.86059e+08
1.82686e+08
1.79403e+08
1.7621e+08
1.73108e+08
1.701e+08
1.67234e+08
1.64377e+08
1.61357e+08
1.5849e+08
1.55726e+08
1.53045e+08
1.50436e+08
1.4789e+08
1.45402e+08
1.42969e+08
1.40587e+08
1.38253e+08
1.35964e+08
1.33717e+08
1.31511e+08
1.29342e+08
1.27208e+08
1.25108e+08
1.23038e+08
1.20997e+08
1.18982e+08
1.16992e+08
1.15025e+08
1.1308e+08
1.11154e+08
1.09245e+08
1.07352e+08
1.05474e+08
1.03609e+08
1.01756e+08
9.99136e+07
9.80803e+07
9.6255e+07
9.44372e+07
9.26256e+07
9.08195e+07
8.90183e+07
8.72213e+07
8.54282e+07
8.36387e+07
8.18526e+07
8.00697e+07
7.82909e+07
7.65151e+07
7.47433e+07
7.2976e+07
7.12136e+07
6.94567e+07
6.77061e+07
6.59624e+07
6.42266e+07
6.24995e+07
6.07819e+07
5.90749e+07
5.73793e+07
5.56962e+07
5.40264e+07
5.23711e+07
5.07311e+07
4.91074e+07
4.7501e+07
4.59128e+07
4.43438e+07
4.27949e+07
4.1267e+07
3.9761e+07
3.82779e+07
3.68187e+07
3.53842e+07
3.39753e+07
3.2593e+07
3.12382e+07
2.99118e+07
2.86147e+07
2.73477e+07
2.61115e+07
2.49071e+07
2.3735e+07
2.25958e+07
2.14902e+07
2.04186e+07
1.93813e+07
1.83787e+07
1.74108e+07
1.64778e+07
1.55794e+07
1.47157e+07
1.38862e+07
1.30907e+07
1.23286e+07
1.15993e+07
1.09023e+07
1.02367e+07
9.60181e+06
8.99681e+06
8.42081e+06
7.8726e+06
7.35199e+06
6.8575e+06
6.38825e+06
5.94328e+06
5.52168e+06
5.12252e+06
4.74488e+06
4.38784e+06
4.05054e+06
3.73213e+06
3.43177e+06
3.14863e+06
2.88191e+06
2.63083e+06
2.39458e+06
2.17238e+06
1.96345e+06
1.767e+06
1.5814e+06
1.40653e+06
1.24113e+06
1.08272e+06
930150
781055
632894
483642
335901
214661
)
;

boundaryField
{
    boundary
    {
        type            empty;
    }
    inlet
    {
        type            calculated;
        value           uniform 0;
    }
    outlet
    {
        type            calculated;
        value           uniform 0;
    }
}


// ************************************************************************* //
