/*--------------------------------*- C++ -*----------------------------------*\
  =========                 |
  \\      /  F ield         | OpenFOAM: The Open Source CFD Toolbox
   \\    /   O peration     | Website:  https://openfoam.org
    \\  /    A nd           | Version:  7
     \\/     M anipulation  |
\*---------------------------------------------------------------------------*/
FoamFile
{
    version     2.0;
    format      ascii;
    class       volScalarField;
    location    "0.00038";
    object      rho;
}
// * * * * * * * * * * * * * * * * * * * * * * * * * * * * * * * * * * * * * //

dimensions      [1 -3 0 0 0 0 0];

internalField   nonuniform List<scalar> 
500
(
0.865009
0.864997
0.864985
0.864971
0.864956
0.864938
0.864917
0.864893
0.864864
0.864829
0.864786
0.864735
0.864673
0.864599
0.864511
0.864408
0.864289
0.864154
0.864002
0.863834
0.863651
0.863455
0.863248
0.863034
0.862815
0.862596
0.86238
0.86217
0.861969
0.86178
0.861605
0.861446
0.861303
0.861177
0.861067
0.860973
0.860894
0.860828
0.860774
0.86073
0.860695
0.860668
0.860647
0.860631
0.860619
0.86061
0.860603
0.860598
0.860595
0.860592
0.860591
0.860589
0.860589
0.860588
0.860588
0.860587
0.860587
0.860587
0.860587
0.860587
0.860587
0.860587
0.860587
0.860587
0.860587
0.860587
0.860587
0.860586
0.860586
0.860586
0.860586
0.860586
0.860586
0.860586
0.860586
0.860586
0.860586
0.860586
0.860586
0.860585
0.860585
0.860585
0.860585
0.860585
0.860585
0.860585
0.860585
0.860584
0.860584
0.860584
0.860584
0.860584
0.860583
0.860583
0.860583
0.860583
0.860583
0.860582
0.860582
0.860582
0.860582
0.860581
0.860581
0.860581
0.86058
0.86058
0.86058
0.860579
0.860579
0.860579
0.860578
0.860578
0.860578
0.860577
0.860577
0.860576
0.860576
0.860575
0.860575
0.860575
0.860574
0.860574
0.860573
0.860573
0.860572
0.860572
0.860571
0.860571
0.86057
0.860569
0.860569
0.860568
0.860568
0.860567
0.860567
0.860566
0.860565
0.860565
0.860564
0.860564
0.860563
0.860563
0.860562
0.860561
0.860561
0.86056
0.86056
0.860559
0.860558
0.860557
0.860557
0.860556
0.860555
0.860555
0.860554
0.860553
0.860552
0.860552
0.860551
0.86055
0.86055
0.860549
0.860548
0.860548
0.860547
0.860547
0.860546
0.860546
0.860545
0.860545
0.860545
0.860544
0.860544
0.860544
0.860544
0.860543
0.860543
0.860543
0.860543
0.860543
0.860543
0.860544
0.860544
0.860544
0.860544
0.860545
0.860545
0.860546
0.860546
0.860547
0.860548
0.860549
0.86055
0.860551
0.860552
0.860554
0.860555
0.860557
0.860558
0.86056
0.860562
0.860564
0.860566
0.860568
0.860571
0.860573
0.860576
0.860579
0.860582
0.860585
0.860588
0.860591
0.860595
0.860599
0.860602
0.860607
0.860611
0.860615
0.86062
0.860624
0.860629
0.860634
0.860639
0.860645
0.86065
0.860656
0.860662
0.860668
0.860674
0.86068
0.860687
0.860693
0.8607
0.860707
0.860714
0.860721
0.860729
0.860736
0.860744
0.860752
0.86076
0.860768
0.860776
0.860784
0.860792
0.860801
0.860809
0.860818
0.860827
0.860836
0.860845
0.860854
0.860863
0.860872
0.860881
0.86089
0.860899
0.860909
0.860918
0.860928
0.860937
0.860947
0.860957
0.860967
0.860977
0.860987
0.860998
0.861009
0.861018
0.861018
0.860986
0.860849
0.860381
0.858903
0.854433
0.841398
0.805942
0.725177
0.596713
0.466796
0.37263
0.311436
0.270287
0.241216
0.220507
0.206079
0.195345
0.186913
0.180792
0.17622
0.172504
0.169424
0.166819
0.164577
0.16262
0.160893
0.159353
0.15797
0.156717
0.155576
0.154531
0.15357
0.152681
0.151857
0.15109
0.150374
0.149704
0.149074
0.148482
0.147924
0.147397
0.1469
0.146442
0.146015
0.145604
0.14521
0.144833
0.14447
0.14412
0.143784
0.143459
0.143147
0.142845
0.142553
0.14227
0.141997
0.141733
0.141476
0.141228
0.140986
0.140752
0.140525
0.140303
0.140088
0.139879
0.139675
0.139477
0.139283
0.139095
0.138911
0.138731
0.138556
0.138384
0.138217
0.138054
0.137894
0.137737
0.137584
0.137434
0.137287
0.137144
0.137003
0.136865
0.136729
0.136596
0.136466
0.136338
0.136213
0.13609
0.135969
0.13585
0.135734
0.135619
0.135507
0.135396
0.135288
0.135181
0.135077
0.134974
0.134873
0.134773
0.134675
0.134579
0.134483
0.134388
0.134293
0.134201
0.134115
0.134031
0.13395
0.13387
0.133792
0.133717
0.133643
0.133571
0.133501
0.133432
0.133365
0.1333
0.133236
0.133174
0.133113
0.133054
0.132995
0.132937
0.132881
0.132825
0.132769
0.132714
0.132659
0.132604
0.132549
0.132493
0.132436
0.132378
0.132319
0.132258
0.132195
0.132129
0.13206
0.131989
0.131914
0.131835
0.131752
0.131664
0.131572
0.131474
0.131371
0.131263
0.131149
0.13103
0.130904
0.130773
0.130636
0.130493
0.130344
0.13019
0.13003
0.129866
0.129697
0.129524
0.129347
0.129167
0.128984
0.128799
0.128612
0.128425
0.128238
0.128051
0.127865
0.127681
0.127499
0.127321
0.127146
0.126976
0.126811
0.126651
0.126497
0.12635
0.126209
0.126076
0.12595
0.125832
0.125722
0.125619
0.125525
0.125439
0.125361
0.125291
0.125228
0.125173
0.125126
0.125086
0.125053
0.125026
0.125006
0.124991
0.124982
0.124977
0.124978
0.124983
0.124991
0.125003
0.125018
0.125036
0.125056
0.125078
0.125101
0.125126
0.125152
0.125178
0.125205
0.125232
0.125259
0.125286
0.125312
0.125338
0.125363
0.125387
0.125411
0.125433
0.125455
0.125475
0.125494
0.125512
0.125528
0.125542
0.125554
0.125564
0.12557
)
;

boundaryField
{
    boundary
    {
        type            empty;
    }
    inlet
    {
        type            calculated;
        value           uniform 0.865018;
    }
    outlet
    {
        type            calculated;
        value           uniform 0.12557;
    }
}


// ************************************************************************* //
