/*--------------------------------*- C++ -*----------------------------------*\
  =========                 |
  \\      /  F ield         | OpenFOAM: The Open Source CFD Toolbox
   \\    /   O peration     | Website:  https://openfoam.org
    \\  /    A nd           | Version:  7
     \\/     M anipulation  |
\*---------------------------------------------------------------------------*/
FoamFile
{
    version     2.0;
    format      ascii;
    class       volScalarField;
    location    "0.00038";
    object      T;
}
// * * * * * * * * * * * * * * * * * * * * * * * * * * * * * * * * * * * * * //

dimensions      [0 0 0 1 0 0 0];

internalField   nonuniform List<scalar> 
500
(
300.003
300.007
300.011
300.016
300.021
300.028
300.035
300.043
300.053
300.066
300.08
300.098
300.12
300.145
300.176
300.211
300.253
300.3
300.353
300.411
300.475
300.543
300.615
300.69
300.766
300.842
300.918
300.991
301.061
301.127
301.188
301.244
301.294
301.338
301.376
301.409
301.437
301.46
301.479
301.494
301.507
301.516
301.524
301.529
301.533
301.537
301.539
301.541
301.542
301.543
301.543
301.544
301.544
301.544
301.544
301.544
301.545
301.545
301.545
301.545
301.545
301.545
301.545
301.545
301.545
301.545
301.545
301.545
301.545
301.545
301.545
301.545
301.545
301.545
301.545
301.545
301.545
301.545
301.545
301.545
301.545
301.545
301.545
301.545
301.545
301.545
301.545
301.546
301.546
301.546
301.546
301.546
301.546
301.546
301.546
301.546
301.546
301.546
301.546
301.546
301.547
301.547
301.547
301.547
301.547
301.547
301.547
301.547
301.547
301.548
301.548
301.548
301.548
301.548
301.548
301.548
301.549
301.549
301.549
301.549
301.549
301.549
301.55
301.55
301.55
301.55
301.55
301.551
301.551
301.551
301.551
301.551
301.552
301.552
301.552
301.552
301.552
301.553
301.553
301.553
301.553
301.553
301.554
301.554
301.554
301.554
301.554
301.555
301.555
301.555
301.555
301.556
301.556
301.556
301.556
301.557
301.557
301.557
301.557
301.558
301.558
301.558
301.558
301.559
301.559
301.559
301.559
301.559
301.56
301.56
301.56
301.56
301.56
301.56
301.56
301.56
301.56
301.56
301.56
301.56
301.56
301.56
301.56
301.56
301.56
301.56
301.56
301.559
301.559
301.559
301.559
301.558
301.558
301.558
301.557
301.557
301.556
301.556
301.555
301.555
301.554
301.553
301.553
301.552
301.551
301.55
301.549
301.548
301.547
301.546
301.545
301.544
301.542
301.541
301.54
301.538
301.537
301.535
301.534
301.532
301.531
301.529
301.527
301.525
301.523
301.521
301.519
301.517
301.515
301.513
301.51
301.508
301.506
301.503
301.501
301.498
301.496
301.493
301.49
301.488
301.485
301.482
301.479
301.476
301.474
301.471
301.468
301.465
301.462
301.458
301.455
301.452
301.449
301.446
301.443
301.439
301.436
301.433
301.43
301.426
301.423
301.42
301.416
301.413
301.41
301.406
301.403
301.401
301.401
301.407
301.431
301.507
301.729
302.367
304.197
309.42
324.074
362.245
444.126
574.094
727.923
881.441
1026.74
1160.76
1278.17
1374.19
1455.06
1524.14
1579.32
1623.56
1661.57
1694.6
1723.71
1749.67
1773.05
1794.27
1813.67
1831.51
1847.99
1863.29
1877.55
1890.88
1903.39
1915.16
1926.26
1936.74
1946.68
1956.11
1965.08
1973.61
1981.75
1989.5
1996.69
2003.46
2010
2016.32
2022.42
2028.33
2034.04
2039.58
2044.96
2050.17
2055.23
2060.15
2064.92
2069.57
2074.1
2078.5
2082.79
2086.97
2091.05
2095.03
2098.91
2102.7
2106.4
2110.02
2113.56
2117.02
2120.4
2123.72
2126.96
2130.13
2133.24
2136.29
2139.28
2142.21
2145.08
2147.9
2150.67
2153.38
2156.05
2158.66
2161.23
2163.76
2166.24
2168.68
2171.07
2173.42
2175.73
2178
2180.24
2182.43
2184.59
2186.7
2188.79
2190.83
2192.84
2194.81
2196.74
2198.64
2200.5
2202.33
2204.13
2205.89
2207.64
2209.36
2211.03
2212.64
2214.2
2215.73
2217.21
2218.65
2220.04
2221.4
2222.72
2224
2225.24
2226.45
2227.62
2228.75
2229.85
2230.92
2231.95
2232.96
2233.94
2234.9
2235.84
2236.76
2237.67
2238.56
2239.46
2240.35
2241.24
2242.14
2243.06
2244
2244.96
2245.96
2247
2248.09
2249.23
2250.43
2251.7
2253.05
2254.48
2255.99
2257.6
2259.31
2261.12
2263.04
2265.07
2267.22
2269.49
2271.87
2274.38
2277
2279.74
2282.59
2285.55
2288.62
2291.79
2295.05
2298.4
2301.82
2305.31
2308.86
2312.45
2316.08
2319.73
2323.39
2327.05
2330.7
2334.32
2337.9
2341.43
2344.9
2348.29
2351.61
2354.83
2357.95
2360.96
2363.85
2366.62
2369.26
2371.77
2374.15
2376.39
2378.48
2380.44
2382.27
2383.95
2385.51
2386.93
2388.22
2389.4
2390.45
2391.39
2392.23
2392.97
2393.61
2394.17
2394.65
2395.05
2395.38
2395.65
2395.87
2396.04
2396.16
2396.25
2396.3
2396.32
2396.32
2396.29
2396.25
2396.2
2396.13
2396.06
2395.98
2395.9
2395.82
2395.74
2395.65
2395.57
2395.49
2395.42
2395.35
2395.28
2395.22
2395.17
2395.13
)
;

boundaryField
{
    boundary
    {
        type            empty;
    }
    inlet
    {
        type            fixedValue;
        value           uniform 300;
    }
    outlet
    {
        type            zeroGradient;
    }
}


// ************************************************************************* //
