/*--------------------------------*- C++ -*----------------------------------*\
  =========                 |
  \\      /  F ield         | OpenFOAM: The Open Source CFD Toolbox
   \\    /   O peration     | Website:  https://openfoam.org
    \\  /    A nd           | Version:  7
     \\/     M anipulation  |
\*---------------------------------------------------------------------------*/
FoamFile
{
    version     2.0;
    format      ascii;
    class       volVectorField;
    location    "0.00038";
    object      U;
}
// * * * * * * * * * * * * * * * * * * * * * * * * * * * * * * * * * * * * * //

dimensions      [0 1 -1 0 0 0 0];

internalField   nonuniform List<vector> 
500
(
(2.34891 0 0)
(2.34883 0 0)
(2.34874 0 0)
(2.34866 0 0)
(2.34858 0 0)
(2.34851 0 0)
(2.34844 0 0)
(2.34837 0 0)
(2.3483 0 0)
(2.34824 0 0)
(2.34818 0 0)
(2.34813 0 0)
(2.34808 0 0)
(2.34804 0 0)
(2.348 0 0)
(2.34796 0 0)
(2.34793 0 0)
(2.3479 0 0)
(2.34786 0 0)
(2.34783 0 0)
(2.34779 0 0)
(2.34774 0 0)
(2.34769 0 0)
(2.34762 0 0)
(2.34755 0 0)
(2.34747 0 0)
(2.34737 0 0)
(2.34726 0 0)
(2.34715 0 0)
(2.34703 0 0)
(2.3469 0 0)
(2.34677 0 0)
(2.34664 0 0)
(2.34651 0 0)
(2.34638 0 0)
(2.34625 0 0)
(2.34612 0 0)
(2.346 0 0)
(2.34589 0 0)
(2.34578 0 0)
(2.34567 0 0)
(2.34557 0 0)
(2.34547 0 0)
(2.34537 0 0)
(2.34528 0 0)
(2.34519 0 0)
(2.3451 0 0)
(2.34501 0 0)
(2.34493 0 0)
(2.34484 0 0)
(2.34476 0 0)
(2.34467 0 0)
(2.34459 0 0)
(2.34451 0 0)
(2.34443 0 0)
(2.34434 0 0)
(2.34426 0 0)
(2.34418 0 0)
(2.3441 0 0)
(2.34401 0 0)
(2.34393 0 0)
(2.34385 0 0)
(2.34377 0 0)
(2.34368 0 0)
(2.3436 0 0)
(2.34352 0 0)
(2.34344 0 0)
(2.34335 0 0)
(2.34327 0 0)
(2.34319 0 0)
(2.34311 0 0)
(2.34302 0 0)
(2.34294 0 0)
(2.34286 0 0)
(2.34278 0 0)
(2.34269 0 0)
(2.34261 0 0)
(2.34253 0 0)
(2.34245 0 0)
(2.34237 0 0)
(2.34228 0 0)
(2.3422 0 0)
(2.34212 0 0)
(2.34204 0 0)
(2.34195 0 0)
(2.34187 0 0)
(2.34179 0 0)
(2.34171 0 0)
(2.34162 0 0)
(2.34154 0 0)
(2.34146 0 0)
(2.34138 0 0)
(2.3413 0 0)
(2.34121 0 0)
(2.34113 0 0)
(2.34105 0 0)
(2.34097 0 0)
(2.34088 0 0)
(2.3408 0 0)
(2.34072 0 0)
(2.34064 0 0)
(2.34056 0 0)
(2.34047 0 0)
(2.34039 0 0)
(2.34031 0 0)
(2.34023 0 0)
(2.34014 0 0)
(2.34006 0 0)
(2.33998 0 0)
(2.3399 0 0)
(2.33982 0 0)
(2.33973 0 0)
(2.33965 0 0)
(2.33957 0 0)
(2.33949 0 0)
(2.33941 0 0)
(2.33933 0 0)
(2.33924 0 0)
(2.33916 0 0)
(2.33908 0 0)
(2.339 0 0)
(2.33892 0 0)
(2.33884 0 0)
(2.33875 0 0)
(2.33867 0 0)
(2.33859 0 0)
(2.33851 0 0)
(2.33843 0 0)
(2.33835 0 0)
(2.33826 0 0)
(2.33818 0 0)
(2.3381 0 0)
(2.33802 0 0)
(2.33794 0 0)
(2.33786 0 0)
(2.33778 0 0)
(2.33769 0 0)
(2.33761 0 0)
(2.33753 0 0)
(2.33745 0 0)
(2.33737 0 0)
(2.33729 0 0)
(2.33721 0 0)
(2.33713 0 0)
(2.33705 0 0)
(2.33697 0 0)
(2.33688 0 0)
(2.3368 0 0)
(2.33672 0 0)
(2.33664 0 0)
(2.33656 0 0)
(2.33648 0 0)
(2.3364 0 0)
(2.33632 0 0)
(2.33624 0 0)
(2.33616 0 0)
(2.33608 0 0)
(2.336 0 0)
(2.33592 0 0)
(2.33584 0 0)
(2.33576 0 0)
(2.33568 0 0)
(2.3356 0 0)
(2.33552 0 0)
(2.33544 0 0)
(2.33536 0 0)
(2.33528 0 0)
(2.33519 0 0)
(2.33511 0 0)
(2.33503 0 0)
(2.33495 0 0)
(2.33487 0 0)
(2.33479 0 0)
(2.33471 0 0)
(2.33463 0 0)
(2.33455 0 0)
(2.33447 0 0)
(2.33439 0 0)
(2.33431 0 0)
(2.33423 0 0)
(2.33415 0 0)
(2.33407 0 0)
(2.33399 0 0)
(2.33391 0 0)
(2.33384 0 0)
(2.33376 0 0)
(2.33368 0 0)
(2.3336 0 0)
(2.33352 0 0)
(2.33344 0 0)
(2.33336 0 0)
(2.33328 0 0)
(2.3332 0 0)
(2.33312 0 0)
(2.33304 0 0)
(2.33296 0 0)
(2.33288 0 0)
(2.3328 0 0)
(2.33272 0 0)
(2.33264 0 0)
(2.33256 0 0)
(2.33248 0 0)
(2.3324 0 0)
(2.33232 0 0)
(2.33224 0 0)
(2.33216 0 0)
(2.33208 0 0)
(2.332 0 0)
(2.33192 0 0)
(2.33184 0 0)
(2.33176 0 0)
(2.33168 0 0)
(2.3316 0 0)
(2.33152 0 0)
(2.33144 0 0)
(2.33136 0 0)
(2.33128 0 0)
(2.3312 0 0)
(2.33112 0 0)
(2.33104 0 0)
(2.33096 0 0)
(2.33088 0 0)
(2.3308 0 0)
(2.33072 0 0)
(2.33064 0 0)
(2.33056 0 0)
(2.33048 0 0)
(2.3304 0 0)
(2.33032 0 0)
(2.33024 0 0)
(2.33016 0 0)
(2.33008 0 0)
(2.33 0 0)
(2.32992 0 0)
(2.32984 0 0)
(2.32976 0 0)
(2.32968 0 0)
(2.3296 0 0)
(2.32952 0 0)
(2.32944 0 0)
(2.32936 0 0)
(2.32929 0 0)
(2.32921 0 0)
(2.32913 0 0)
(2.32905 0 0)
(2.32897 0 0)
(2.32889 0 0)
(2.32881 0 0)
(2.32873 0 0)
(2.32865 0 0)
(2.32857 0 0)
(2.32849 0 0)
(2.32841 0 0)
(2.32833 0 0)
(2.32825 0 0)
(2.32817 0 0)
(2.3281 0 0)
(2.32802 0 0)
(2.32794 0 0)
(2.32786 0 0)
(2.32778 0 0)
(2.3277 0 0)
(2.32762 0 0)
(2.32754 0 0)
(2.32746 0 0)
(2.32738 0 0)
(2.3273 0 0)
(2.32722 0 0)
(2.32714 0 0)
(2.3271 0 0)
(2.32717 0 0)
(2.32759 0 0)
(2.3292 0 0)
(2.3344 0 0)
(2.34944 0 0)
(2.38895 0 0)
(2.48463 0 0)
(2.70518 0 0)
(3.17605 0 0)
(4.05571 0 0)
(5.23093 0 0)
(6.46742 0 0)
(7.61139 0 0)
(8.61891 0 0)
(9.47941 0 0)
(10.1907 0 0)
(10.7761 0 0)
(11.2629 0 0)
(11.6582 0 0)
(11.9735 0 0)
(12.2334 0 0)
(12.4572 0 0)
(12.6541 0 0)
(12.8288 0 0)
(12.9851 0 0)
(13.1262 0 0)
(13.2545 0 0)
(13.3719 0 0)
(13.48 0 0)
(13.5799 0 0)
(13.6727 0 0)
(13.7592 0 0)
(13.8401 0 0)
(13.9159 0 0)
(13.9873 0 0)
(14.0545 0 0)
(14.1181 0 0)
(14.1783 0 0)
(14.2353 0 0)
(14.2895 0 0)
(14.341 0 0)
(14.39 0 0)
(14.4355 0 0)
(14.478 0 0)
(14.5191 0 0)
(14.5588 0 0)
(14.5971 0 0)
(14.6341 0 0)
(14.6698 0 0)
(14.7044 0 0)
(14.7379 0 0)
(14.7703 0 0)
(14.8018 0 0)
(14.8323 0 0)
(14.8619 0 0)
(14.8907 0 0)
(14.9187 0 0)
(14.9459 0 0)
(14.9724 0 0)
(14.9981 0 0)
(15.0232 0 0)
(15.0477 0 0)
(15.0716 0 0)
(15.0948 0 0)
(15.1175 0 0)
(15.1397 0 0)
(15.1613 0 0)
(15.1825 0 0)
(15.2031 0 0)
(15.2234 0 0)
(15.2431 0 0)
(15.2625 0 0)
(15.2814 0 0)
(15.2999 0 0)
(15.3181 0 0)
(15.3359 0 0)
(15.3533 0 0)
(15.3704 0 0)
(15.3872 0 0)
(15.4036 0 0)
(15.4197 0 0)
(15.4355 0 0)
(15.4511 0 0)
(15.4663 0 0)
(15.4813 0 0)
(15.496 0 0)
(15.5104 0 0)
(15.5246 0 0)
(15.5386 0 0)
(15.5523 0 0)
(15.5658 0 0)
(15.579 0 0)
(15.5921 0 0)
(15.6049 0 0)
(15.6176 0 0)
(15.63 0 0)
(15.6422 0 0)
(15.6543 0 0)
(15.6662 0 0)
(15.6779 0 0)
(15.6895 0 0)
(15.7009 0 0)
(15.7122 0 0)
(15.7235 0 0)
(15.7347 0 0)
(15.746 0 0)
(15.7568 0 0)
(15.7672 0 0)
(15.7773 0 0)
(15.7873 0 0)
(15.7971 0 0)
(15.8068 0 0)
(15.8164 0 0)
(15.8258 0 0)
(15.8351 0 0)
(15.8443 0 0)
(15.8534 0 0)
(15.8624 0 0)
(15.8713 0 0)
(15.88 0 0)
(15.8887 0 0)
(15.8972 0 0)
(15.9057 0 0)
(15.914 0 0)
(15.9223 0 0)
(15.9305 0 0)
(15.9386 0 0)
(15.9466 0 0)
(15.9545 0 0)
(15.9624 0 0)
(15.9702 0 0)
(15.9779 0 0)
(15.9856 0 0)
(15.9932 0 0)
(16.0008 0 0)
(16.0083 0 0)
(16.0157 0 0)
(16.0231 0 0)
(16.0305 0 0)
(16.0378 0 0)
(16.045 0 0)
(16.0522 0 0)
(16.0593 0 0)
(16.0664 0 0)
(16.0734 0 0)
(16.0804 0 0)
(16.0872 0 0)
(16.094 0 0)
(16.1007 0 0)
(16.1073 0 0)
(16.1138 0 0)
(16.1202 0 0)
(16.1265 0 0)
(16.1326 0 0)
(16.1385 0 0)
(16.1444 0 0)
(16.15 0 0)
(16.1555 0 0)
(16.1608 0 0)
(16.1658 0 0)
(16.1707 0 0)
(16.1754 0 0)
(16.1798 0 0)
(16.184 0 0)
(16.1879 0 0)
(16.1916 0 0)
(16.1951 0 0)
(16.1983 0 0)
(16.2013 0 0)
(16.204 0 0)
(16.2065 0 0)
(16.2087 0 0)
(16.2107 0 0)
(16.2124 0 0)
(16.214 0 0)
(16.2153 0 0)
(16.2164 0 0)
(16.2174 0 0)
(16.2181 0 0)
(16.2187 0 0)
(16.2191 0 0)
(16.2194 0 0)
(16.2196 0 0)
(16.2197 0 0)
(16.2197 0 0)
(16.2196 0 0)
(16.2194 0 0)
(16.2192 0 0)
(16.219 0 0)
(16.2187 0 0)
(16.2185 0 0)
(16.2182 0 0)
(16.2179 0 0)
(16.2177 0 0)
(16.2175 0 0)
(16.2173 0 0)
(16.2171 0 0)
(16.217 0 0)
(16.217 0 0)
(16.2169 0 0)
(16.217 0 0)
(16.2171 0 0)
(16.2172 0 0)
(16.2174 0 0)
(16.2176 0 0)
(16.2179 0 0)
(16.2182 0 0)
(16.2185 0 0)
(16.2189 0 0)
(16.2193 0 0)
(16.2197 0 0)
(16.2202 0 0)
(16.2206 0 0)
(16.2211 0 0)
(16.2216 0 0)
(16.2221 0 0)
(16.2226 0 0)
(16.2231 0 0)
(16.2236 0 0)
(16.2241 0 0)
(16.2245 0 0)
(16.225 0 0)
(16.2255 0 0)
(16.226 0 0)
(16.2265 0 0)
(16.2271 0 0)
(16.2278 0 0)
(16.2286 0 0)
(16.2297 0 0)
(16.2318 0 0)
)
;

boundaryField
{
    boundary
    {
        type            empty;
    }
    inlet
    {
        type            fixedValue;
        value           uniform (2.34893 0 0);
    }
    outlet
    {
        type            zeroGradient;
    }
}


// ************************************************************************* //
