/*--------------------------------*- C++ -*----------------------------------*\
  =========                 |
  \\      /  F ield         | OpenFOAM: The Open Source CFD Toolbox
   \\    /   O peration     | Website:  https://openfoam.org
    \\  /    A nd           | Version:  7
     \\/     M anipulation  |
\*---------------------------------------------------------------------------*/
FoamFile
{
    version     2.0;
    format      ascii;
    class       volScalarField;
    location    "0.00056";
    object      Qdot;
}
// * * * * * * * * * * * * * * * * * * * * * * * * * * * * * * * * * * * * * //

dimensions      [1 -1 -3 0 0 0 0];

internalField   nonuniform List<scalar> 
126
(
-2.72509e-27
-2.72499e-27
-2.72492e-27
-2.72491e-27
-2.72495e-27
-2.72503e-27
-2.72514e-27
-2.72529e-27
-2.72545e-27
-2.72561e-27
-2.72578e-27
-2.72595e-27
-2.72612e-27
-2.72628e-27
-2.72644e-27
-2.72659e-27
-2.72674e-27
-2.72689e-27
-2.72704e-27
-2.7272e-27
-2.72735e-27
-2.7275e-27
-2.72766e-27
-2.72781e-27
-2.72797e-27
-2.72813e-27
-2.72829e-27
-2.72845e-27
-2.72862e-27
-2.72878e-27
-2.72895e-27
-2.72912e-27
-2.72929e-27
-2.72947e-27
-2.72965e-27
-2.72983e-27
-2.73001e-27
-2.7302e-27
-2.73039e-27
-2.73057e-27
-2.73076e-27
-2.73095e-27
-2.73114e-27
-2.73133e-27
-2.73151e-27
-2.73169e-27
-2.73187e-27
-2.73205e-27
-2.73221e-27
-2.73238e-27
-2.73254e-27
-2.73269e-27
-2.73283e-27
-2.73297e-27
-2.73309e-27
-2.73321e-27
-2.73332e-27
-2.73342e-27
-2.73351e-27
-2.73359e-27
-2.73366e-27
-2.73371e-27
-2.73376e-27
-2.73379e-27
-2.7338e-27
-2.7338e-27
-2.73379e-27
-2.73376e-27
-2.73371e-27
-2.73365e-27
-2.73357e-27
-2.73347e-27
-2.73335e-27
-2.73321e-27
-2.73304e-27
-2.73286e-27
-2.73265e-27
-2.73242e-27
-2.73216e-27
-2.73187e-27
-2.73156e-27
-2.73122e-27
-2.73086e-27
-2.73046e-27
-2.73002e-27
-2.72952e-27
-2.72888e-27
-2.72775e-27
-2.72483e-27
-2.71513e-27
-2.67966e-27
-2.54667e-27
-2.04756e-27
-1.84693e-28
6.71716e-27
3.20879e-26
1.24607e-25
4.59311e-25
1.66057e-24
5.93799e-24
2.10501e-23
7.40279e-23
2.5833e-22
8.94651e-22
3.07526e-21
1.04933e-20
3.55477e-20
1.19576e-19
3.99482e-19
1.32575e-18
4.37169e-18
1.43281e-17
4.66898e-17
1.51328e-16
4.88053e-16
1.56707e-15
5.01233e-15
1.59819e-14
5.08428e-14
1.61557e-13
5.13498e-13
1.63567e-12
5.23475e-12
1.68883e-11
5.51603e-11
1.83354e-10
)
;

boundaryField
{
    boundary
    {
        type            empty;
    }
    inlet
    {
        type            calculated;
        value           nonuniform 0();
    }
    outlet
    {
        type            calculated;
        value           nonuniform 0();
    }
    procBoundary3to1
    {
        type            processor;
        value           uniform 0;
    }
    procBoundary3to2
    {
        type            processor;
        value           uniform 0;
    }
}


// ************************************************************************* //
