/*--------------------------------*- C++ -*----------------------------------*\
  =========                 |
  \\      /  F ield         | OpenFOAM: The Open Source CFD Toolbox
   \\    /   O peration     | Website:  https://openfoam.org
    \\  /    A nd           | Version:  7
     \\/     M anipulation  |
\*---------------------------------------------------------------------------*/
FoamFile
{
    version     2.0;
    format      ascii;
    class       volScalarField;
    location    "0.00077";
    object      H;
}
// * * * * * * * * * * * * * * * * * * * * * * * * * * * * * * * * * * * * * //

dimensions      [0 0 0 0 0 0 0];

internalField   nonuniform List<scalar> 
124
(
0.000337997
0.000334723
0.000331505
0.000328341
0.000325229
0.000322169
0.00031916
0.000316199
0.000313286
0.00031042
0.0003076
0.000304824
0.000302092
0.000299402
0.000296754
0.000294146
0.000291578
0.000289049
0.000286558
0.000284105
0.000281687
0.000279305
0.000276959
0.000274646
0.000272367
0.00027012
0.000267906
0.000265723
0.000263571
0.000261449
0.000259357
0.000257294
0.000255259
0.000253252
0.000251273
0.000249321
0.000247395
0.000245495
0.00024362
0.000241771
0.000239945
0.000238145
0.000236367
0.000234613
0.000232882
0.000231174
0.000229488
0.000227823
0.00022618
0.000224557
0.000222956
0.000221375
0.000219814
0.000218272
0.00021675
0.000215247
0.000213763
0.000212298
0.000210851
0.000209422
0.00020801
0.000206617
0.00020524
0.000203881
0.000202538
0.000201212
0.000199902
0.000198609
0.000197332
0.00019607
0.000194824
0.000193594
0.000192378
0.000191178
0.000189993
0.000188823
0.000187668
0.000186527
0.000185401
0.000184289
0.000183191
0.000182108
0.000181038
0.000179983
0.000178941
0.000177913
0.000176899
0.000175899
0.000174912
0.000173938
0.000172978
0.000172032
0.000171098
0.000170178
0.000169272
0.000168378
0.000167497
0.00016663
0.000165775
0.000164934
0.000164105
0.000163289
0.000162486
0.000161696
0.000160918
0.000160153
0.0001594
0.000158659
0.00015793
0.000157212
0.000156505
0.000155805
0.00015501
0.00015432
0.000153653
0.000153006
0.000152376
0.000151767
0.000151181
0.000150627
0.000150116
0.000149668
0.000149317
0.000149109
)
;

boundaryField
{
    boundary
    {
        type            empty;
    }
    inlet
    {
        type            fixedValue;
        value           nonuniform 0();
    }
    outlet
    {
        type            zeroGradient;
    }
    procBoundary0to1
    {
        type            processor;
        value           uniform 0.000341318;
    }
}


// ************************************************************************* //
