/*--------------------------------*- C++ -*----------------------------------*\
  =========                 |
  \\      /  F ield         | OpenFOAM: The Open Source CFD Toolbox
   \\    /   O peration     | Website:  https://openfoam.org
    \\  /    A nd           | Version:  7
     \\/     M anipulation  |
\*---------------------------------------------------------------------------*/
FoamFile
{
    version     2.0;
    format      ascii;
    class       volScalarField;
    location    "0.00049";
    object      H;
}
// * * * * * * * * * * * * * * * * * * * * * * * * * * * * * * * * * * * * * //

dimensions      [0 0 0 0 0 0 0];

internalField   nonuniform List<scalar> 
125
(
1.48717e-41
2.01665e-41
2.13323e-41
2.16078e-41
2.16912e-41
2.17335e-41
2.17677e-41
2.18012e-41
2.18361e-41
2.18733e-41
2.19141e-41
2.19594e-41
2.20109e-41
2.20703e-41
2.21395e-41
2.22209e-41
2.2317e-41
2.24305e-41
2.25644e-41
2.27218e-41
2.29057e-41
2.3119e-41
2.33646e-41
2.36448e-41
2.39614e-41
2.43158e-41
2.47084e-41
2.51385e-41
2.56048e-41
2.61044e-41
2.66338e-41
2.7188e-41
2.77612e-41
2.83469e-41
2.89379e-41
2.95265e-41
3.01054e-41
3.06672e-41
3.12052e-41
3.17138e-41
3.2188e-41
3.26245e-41
3.30208e-41
3.3376e-41
3.36903e-41
3.39647e-41
3.42013e-41
3.44028e-41
3.45723e-41
3.47131e-41
3.48287e-41
3.49225e-41
3.49978e-41
3.50575e-41
3.51043e-41
3.51407e-41
3.51686e-41
3.51898e-41
3.52057e-41
3.52176e-41
3.52264e-41
3.52328e-41
3.52375e-41
3.52408e-41
3.52432e-41
3.52449e-41
3.52462e-41
3.52471e-41
3.52477e-41
3.52482e-41
3.52486e-41
3.52489e-41
3.52492e-41
3.52494e-41
3.52497e-41
3.52499e-41
3.52501e-41
3.52504e-41
3.52506e-41
3.52509e-41
3.52512e-41
3.52515e-41
3.52518e-41
3.52521e-41
3.52525e-41
3.52528e-41
3.52532e-41
3.52536e-41
3.5254e-41
3.52545e-41
3.5255e-41
3.52555e-41
3.5256e-41
3.52565e-41
3.52571e-41
3.52577e-41
3.52583e-41
3.5259e-41
3.52596e-41
3.52604e-41
3.52611e-41
3.52619e-41
3.52627e-41
3.52635e-41
3.52644e-41
3.52653e-41
3.52662e-41
3.52672e-41
3.52682e-41
3.52692e-41
3.52703e-41
3.52714e-41
3.52725e-41
3.52737e-41
3.52749e-41
3.52762e-41
3.52775e-41
3.52788e-41
3.52802e-41
3.52816e-41
3.52831e-41
3.52845e-41
3.52858e-41
3.52867e-41
3.52866e-41
)
;

boundaryField
{
    boundary
    {
        type            empty;
    }
    inlet
    {
        type            fixedValue;
        value           uniform 0;
    }
    outlet
    {
        type            zeroGradient;
    }
    procBoundary2to3
    {
        type            processor;
        value           uniform 3.52862e-41;
    }
}


// ************************************************************************* //
