/*--------------------------------*- C++ -*----------------------------------*\
  =========                 |
  \\      /  F ield         | OpenFOAM: The Open Source CFD Toolbox
   \\    /   O peration     | Website:  https://openfoam.org
    \\  /    A nd           | Version:  7
     \\/     M anipulation  |
\*---------------------------------------------------------------------------*/
FoamFile
{
    version     2.0;
    format      ascii;
    class       volScalarField;
    location    "0.00049";
    object      OH;
}
// * * * * * * * * * * * * * * * * * * * * * * * * * * * * * * * * * * * * * //

dimensions      [0 0 0 0 0 0 0];

internalField   nonuniform List<scalar> 
125
(
9.39985e-48
1.83337e-47
2.44585e-47
2.8623e-47
3.14561e-47
3.33927e-47
3.4728e-47
3.56608e-47
3.63255e-47
3.68128e-47
3.71848e-47
3.74843e-47
3.77413e-47
3.79779e-47
3.82104e-47
3.8452e-47
3.87135e-47
3.90047e-47
3.93344e-47
3.9711e-47
4.01425e-47
4.06363e-47
4.11992e-47
4.1837e-47
4.25546e-47
4.33553e-47
4.42404e-47
4.52096e-47
4.62597e-47
4.73856e-47
4.85792e-47
4.98302e-47
5.11257e-47
5.24513e-47
5.37907e-47
5.5127e-47
5.6443e-47
5.77222e-47
5.89492e-47
6.01104e-47
6.11947e-47
6.21938e-47
6.3102e-47
6.39166e-47
6.46378e-47
6.5268e-47
6.58115e-47
6.62744e-47
6.66637e-47
6.69871e-47
6.72526e-47
6.74679e-47
6.76405e-47
6.77774e-47
6.78846e-47
6.79678e-47
6.80316e-47
6.808e-47
6.81163e-47
6.81434e-47
6.81634e-47
6.8178e-47
6.81885e-47
6.81962e-47
6.82017e-47
6.82056e-47
6.82084e-47
6.82105e-47
6.8212e-47
6.82132e-47
6.82141e-47
6.82149e-47
6.82156e-47
6.82162e-47
6.82168e-47
6.82174e-47
6.8218e-47
6.82186e-47
6.82193e-47
6.82199e-47
6.82207e-47
6.82214e-47
6.82222e-47
6.8223e-47
6.82239e-47
6.82248e-47
6.82258e-47
6.82268e-47
6.82279e-47
6.8229e-47
6.82302e-47
6.82314e-47
6.82327e-47
6.8234e-47
6.82354e-47
6.82369e-47
6.82384e-47
6.824e-47
6.82417e-47
6.82434e-47
6.82452e-47
6.82471e-47
6.8249e-47
6.8251e-47
6.82531e-47
6.82553e-47
6.82576e-47
6.82599e-47
6.82623e-47
6.82648e-47
6.82674e-47
6.82701e-47
6.82728e-47
6.82757e-47
6.82786e-47
6.82817e-47
6.82848e-47
6.8288e-47
6.82913e-47
6.82947e-47
6.82981e-47
6.83015e-47
6.83045e-47
6.83059e-47
6.83021e-47
)
;

boundaryField
{
    boundary
    {
        type            empty;
    }
    inlet
    {
        type            fixedValue;
        value           uniform 0;
    }
    outlet
    {
        type            zeroGradient;
    }
    procBoundary2to3
    {
        type            processor;
        value           uniform 6.82951e-47;
    }
}


// ************************************************************************* //
