/*--------------------------------*- C++ -*----------------------------------*\
  =========                 |
  \\      /  F ield         | OpenFOAM: The Open Source CFD Toolbox
   \\    /   O peration     | Website:  https://openfoam.org
    \\  /    A nd           | Version:  7
     \\/     M anipulation  |
\*---------------------------------------------------------------------------*/
FoamFile
{
    version     2.0;
    format      ascii;
    class       volScalarField;
    location    "0.00049";
    object      T;
}
// * * * * * * * * * * * * * * * * * * * * * * * * * * * * * * * * * * * * * //

dimensions      [0 0 0 1 0 0 0];

internalField   nonuniform List<scalar> 
125
(
300.004
300.009
300.013
300.018
300.022
300.027
300.032
300.036
300.041
300.047
300.053
300.059
300.067
300.075
300.085
300.097
300.111
300.127
300.146
300.168
300.194
300.224
300.257
300.296
300.338
300.385
300.437
300.492
300.551
300.613
300.678
300.744
300.811
300.879
300.945
301.01
301.073
301.132
301.189
301.241
301.289
301.332
301.371
301.406
301.436
301.462
301.485
301.504
301.519
301.532
301.543
301.552
301.559
301.564
301.569
301.572
301.574
301.576
301.578
301.579
301.58
301.58
301.581
301.581
301.581
301.581
301.581
301.581
301.582
301.582
301.582
301.582
301.582
301.582
301.582
301.582
301.582
301.582
301.582
301.582
301.582
301.582
301.582
301.582
301.582
301.582
301.582
301.582
301.582
301.582
301.582
301.582
301.582
301.582
301.582
301.582
301.583
301.583
301.583
301.583
301.583
301.583
301.583
301.583
301.583
301.583
301.583
301.583
301.583
301.583
301.584
301.584
301.584
301.584
301.584
301.584
301.584
301.584
301.584
301.585
301.585
301.585
301.585
301.585
301.585
)
;

boundaryField
{
    boundary
    {
        type            empty;
    }
    inlet
    {
        type            fixedValue;
        value           uniform 300;
    }
    outlet
    {
        type            zeroGradient;
    }
    procBoundary2to3
    {
        type            processor;
        value           uniform 301.585;
    }
}


// ************************************************************************* //
