/*--------------------------------*- C++ -*----------------------------------*\
  =========                 |
  \\      /  F ield         | OpenFOAM: The Open Source CFD Toolbox
   \\    /   O peration     | Website:  https://openfoam.org
    \\  /    A nd           | Version:  7
     \\/     M anipulation  |
\*---------------------------------------------------------------------------*/
FoamFile
{
    version     2.0;
    format      ascii;
    class       volScalarField;
    location    "6e-05";
    object      H;
}
// * * * * * * * * * * * * * * * * * * * * * * * * * * * * * * * * * * * * * //

dimensions      [0 0 0 0 0 0 0];

internalField   nonuniform List<scalar> 
124
(
7.49292e-05
7.4925e-05
7.49219e-05
7.49197e-05
7.4918e-05
7.49168e-05
7.49159e-05
7.49151e-05
7.49146e-05
7.49141e-05
7.49138e-05
7.49135e-05
7.49133e-05
7.49132e-05
7.49131e-05
7.4913e-05
7.49129e-05
7.49129e-05
7.49128e-05
7.49128e-05
7.49127e-05
7.49127e-05
7.49126e-05
7.49126e-05
7.49125e-05
7.49125e-05
7.49124e-05
7.49123e-05
7.49122e-05
7.49122e-05
7.49121e-05
7.4912e-05
7.49119e-05
7.49118e-05
7.49117e-05
7.49116e-05
7.49114e-05
7.49113e-05
7.49112e-05
7.49111e-05
7.49109e-05
7.49108e-05
7.49107e-05
7.49106e-05
7.49104e-05
7.49103e-05
7.49101e-05
7.491e-05
7.49099e-05
7.49097e-05
7.49096e-05
7.49094e-05
7.49093e-05
7.49091e-05
7.4909e-05
7.49088e-05
7.49087e-05
7.49085e-05
7.49084e-05
7.49082e-05
7.49081e-05
7.49079e-05
7.49078e-05
7.49076e-05
7.49075e-05
7.49073e-05
7.49072e-05
7.49071e-05
7.49069e-05
7.49068e-05
7.49066e-05
7.49065e-05
7.49063e-05
7.49062e-05
7.49061e-05
7.49059e-05
7.49058e-05
7.49057e-05
7.49055e-05
7.49054e-05
7.49053e-05
7.49051e-05
7.4905e-05
7.49049e-05
7.49048e-05
7.49047e-05
7.49046e-05
7.49044e-05
7.49043e-05
7.49042e-05
7.49041e-05
7.4904e-05
7.49039e-05
7.49038e-05
7.49037e-05
7.49036e-05
7.49036e-05
7.49035e-05
7.49034e-05
7.49033e-05
7.49032e-05
7.49032e-05
7.49031e-05
7.4903e-05
7.4903e-05
7.49029e-05
7.49029e-05
7.49028e-05
7.49028e-05
7.49028e-05
7.49027e-05
7.49027e-05
7.49027e-05
7.49027e-05
7.49027e-05
7.49027e-05
7.49027e-05
7.49027e-05
7.49027e-05
7.49027e-05
7.49026e-05
7.49026e-05
7.49026e-05
7.49026e-05
)
;

boundaryField
{
    boundary
    {
        type            empty;
    }
    inlet
    {
        type            fixedValue;
        value           nonuniform 0();
    }
    outlet
    {
        type            zeroGradient;
    }
    procBoundary0to1
    {
        type            processor;
        value           uniform 7.4941e-05;
    }
}


// ************************************************************************* //
