/*--------------------------------*- C++ -*----------------------------------*\
  =========                 |
  \\      /  F ield         | OpenFOAM: The Open Source CFD Toolbox
   \\    /   O peration     | Website:  https://openfoam.org
    \\  /    A nd           | Version:  7
     \\/     M anipulation  |
\*---------------------------------------------------------------------------*/
FoamFile
{
    version     2.0;
    format      ascii;
    class       volScalarField;
    location    "6e-05";
    object      H2;
}
// * * * * * * * * * * * * * * * * * * * * * * * * * * * * * * * * * * * * * //

dimensions      [0 0 0 0 0 0 0];

internalField   nonuniform List<scalar> 
124
(
0.00122058
0.00122054
0.00122051
0.00122048
0.00122046
0.00122045
0.00122044
0.00122043
0.00122043
0.00122042
0.00122042
0.00122042
0.00122042
0.00122042
0.00122042
0.00122042
0.00122042
0.00122043
0.00122043
0.00122043
0.00122043
0.00122043
0.00122044
0.00122044
0.00122044
0.00122044
0.00122045
0.00122045
0.00122045
0.00122045
0.00122045
0.00122046
0.00122046
0.00122046
0.00122046
0.00122046
0.00122046
0.00122047
0.00122047
0.00122047
0.00122047
0.00122047
0.00122047
0.00122047
0.00122048
0.00122048
0.00122048
0.00122048
0.00122048
0.00122048
0.00122048
0.00122048
0.00122049
0.00122049
0.00122049
0.00122049
0.00122049
0.00122049
0.00122049
0.00122049
0.00122049
0.0012205
0.0012205
0.0012205
0.0012205
0.0012205
0.0012205
0.0012205
0.0012205
0.0012205
0.0012205
0.0012205
0.00122051
0.00122051
0.00122051
0.00122051
0.00122051
0.00122051
0.00122051
0.00122051
0.00122051
0.00122051
0.00122051
0.00122051
0.00122051
0.00122051
0.00122051
0.00122051
0.00122052
0.00122052
0.00122052
0.00122052
0.00122052
0.00122052
0.00122052
0.00122052
0.00122052
0.00122052
0.00122052
0.00122052
0.00122052
0.00122052
0.00122052
0.00122052
0.00122052
0.00122052
0.00122052
0.00122052
0.00122052
0.00122052
0.00122052
0.00122051
0.00122051
0.00122051
0.00122051
0.00122051
0.00122051
0.00122051
0.00122051
0.00122051
0.00122051
0.00122051
0.00122051
0.00122051
)
;

boundaryField
{
    boundary
    {
        type            empty;
    }
    inlet
    {
        type            fixedValue;
        value           nonuniform 0();
    }
    outlet
    {
        type            zeroGradient;
    }
    procBoundary0to1
    {
        type            processor;
        value           uniform 0.00122071;
    }
}


// ************************************************************************* //
