/*--------------------------------*- C++ -*----------------------------------*\
  =========                 |
  \\      /  F ield         | OpenFOAM: The Open Source CFD Toolbox
   \\    /   O peration     | Website:  https://openfoam.org
    \\  /    A nd           | Version:  7
     \\/     M anipulation  |
\*---------------------------------------------------------------------------*/
FoamFile
{
    version     2.0;
    format      ascii;
    class       volScalarField;
    location    "6e-05";
    object      H2O2;
}
// * * * * * * * * * * * * * * * * * * * * * * * * * * * * * * * * * * * * * //

dimensions      [0 0 0 0 0 0 0];

internalField   nonuniform List<scalar> 
124
(
1.89354e-07
1.89348e-07
1.89345e-07
1.89342e-07
1.89339e-07
1.89336e-07
1.89333e-07
1.8933e-07
1.89326e-07
1.89323e-07
1.89319e-07
1.89315e-07
1.89312e-07
1.89308e-07
1.89304e-07
1.893e-07
1.89297e-07
1.89293e-07
1.89289e-07
1.89286e-07
1.89282e-07
1.89278e-07
1.89275e-07
1.89271e-07
1.89267e-07
1.89263e-07
1.8926e-07
1.89256e-07
1.89252e-07
1.89248e-07
1.89245e-07
1.89241e-07
1.89237e-07
1.89233e-07
1.89229e-07
1.89226e-07
1.89222e-07
1.89218e-07
1.89214e-07
1.8921e-07
1.89207e-07
1.89203e-07
1.89199e-07
1.89195e-07
1.89192e-07
1.89188e-07
1.89184e-07
1.8918e-07
1.89177e-07
1.89173e-07
1.89169e-07
1.89165e-07
1.89162e-07
1.89158e-07
1.89154e-07
1.89151e-07
1.89147e-07
1.89143e-07
1.8914e-07
1.89136e-07
1.89132e-07
1.89129e-07
1.89126e-07
1.89122e-07
1.89119e-07
1.89115e-07
1.89112e-07
1.89108e-07
1.89105e-07
1.89102e-07
1.89099e-07
1.89095e-07
1.89092e-07
1.89089e-07
1.89086e-07
1.89083e-07
1.8908e-07
1.89077e-07
1.89074e-07
1.89071e-07
1.89068e-07
1.89066e-07
1.89063e-07
1.8906e-07
1.89058e-07
1.89055e-07
1.89053e-07
1.8905e-07
1.89048e-07
1.89046e-07
1.89044e-07
1.89041e-07
1.89039e-07
1.89037e-07
1.89035e-07
1.89033e-07
1.89032e-07
1.8903e-07
1.89028e-07
1.89026e-07
1.89025e-07
1.89023e-07
1.89022e-07
1.8902e-07
1.89019e-07
1.89018e-07
1.89017e-07
1.89016e-07
1.89014e-07
1.89013e-07
1.89012e-07
1.89012e-07
1.89011e-07
1.8901e-07
1.89009e-07
1.89008e-07
1.89008e-07
1.89007e-07
1.89007e-07
1.89006e-07
1.89005e-07
1.89005e-07
1.89004e-07
1.89002e-07
)
;

boundaryField
{
    boundary
    {
        type            empty;
    }
    inlet
    {
        type            fixedValue;
        value           nonuniform 0();
    }
    outlet
    {
        type            zeroGradient;
    }
    procBoundary0to1
    {
        type            processor;
        value           uniform 1.89376e-07;
    }
}


// ************************************************************************* //
