/*--------------------------------*- C++ -*----------------------------------*\
  =========                 |
  \\      /  F ield         | OpenFOAM: The Open Source CFD Toolbox
   \\    /   O peration     | Website:  https://openfoam.org
    \\  /    A nd           | Version:  7
     \\/     M anipulation  |
\*---------------------------------------------------------------------------*/
FoamFile
{
    version     2.0;
    format      ascii;
    class       volScalarField;
    location    "6e-05";
    object      HO2;
}
// * * * * * * * * * * * * * * * * * * * * * * * * * * * * * * * * * * * * * //

dimensions      [0 0 0 0 0 0 0];

internalField   nonuniform List<scalar> 
124
(
1.72961e-06
1.72974e-06
1.72981e-06
1.72985e-06
1.72988e-06
1.7299e-06
1.72993e-06
1.72995e-06
1.72998e-06
1.73e-06
1.73003e-06
1.73006e-06
1.73008e-06
1.73011e-06
1.73014e-06
1.73016e-06
1.73019e-06
1.73021e-06
1.73024e-06
1.73027e-06
1.73029e-06
1.73032e-06
1.73034e-06
1.73037e-06
1.7304e-06
1.73042e-06
1.73045e-06
1.73047e-06
1.7305e-06
1.73052e-06
1.73055e-06
1.73058e-06
1.7306e-06
1.73062e-06
1.73065e-06
1.73067e-06
1.7307e-06
1.73073e-06
1.73075e-06
1.73078e-06
1.7308e-06
1.73083e-06
1.73085e-06
1.73088e-06
1.7309e-06
1.73093e-06
1.73095e-06
1.73098e-06
1.731e-06
1.73103e-06
1.73105e-06
1.73108e-06
1.7311e-06
1.73112e-06
1.73115e-06
1.73117e-06
1.73119e-06
1.73122e-06
1.73124e-06
1.73126e-06
1.73128e-06
1.73131e-06
1.73133e-06
1.73135e-06
1.73137e-06
1.73139e-06
1.73141e-06
1.73143e-06
1.73145e-06
1.73147e-06
1.73149e-06
1.73151e-06
1.73152e-06
1.73154e-06
1.73155e-06
1.73157e-06
1.73158e-06
1.7316e-06
1.73161e-06
1.73163e-06
1.73164e-06
1.73165e-06
1.73166e-06
1.73167e-06
1.73168e-06
1.73169e-06
1.7317e-06
1.73171e-06
1.73172e-06
1.73173e-06
1.73173e-06
1.73174e-06
1.73174e-06
1.73175e-06
1.73175e-06
1.73175e-06
1.73175e-06
1.73176e-06
1.73176e-06
1.73176e-06
1.73175e-06
1.73175e-06
1.73175e-06
1.73175e-06
1.73175e-06
1.73174e-06
1.73174e-06
1.73173e-06
1.73172e-06
1.73172e-06
1.73171e-06
1.7317e-06
1.73169e-06
1.73167e-06
1.73166e-06
1.73164e-06
1.73163e-06
1.73162e-06
1.7316e-06
1.73159e-06
1.73157e-06
1.73156e-06
1.73155e-06
1.73154e-06
)
;

boundaryField
{
    boundary
    {
        type            empty;
    }
    inlet
    {
        type            fixedValue;
        value           nonuniform 0();
    }
    outlet
    {
        type            zeroGradient;
    }
    procBoundary0to1
    {
        type            processor;
        value           uniform 1.72961e-06;
    }
}


// ************************************************************************* //
