/*--------------------------------*- C++ -*----------------------------------*\
  =========                 |
  \\      /  F ield         | OpenFOAM: The Open Source CFD Toolbox
   \\    /   O peration     | Website:  https://openfoam.org
    \\  /    A nd           | Version:  7
     \\/     M anipulation  |
\*---------------------------------------------------------------------------*/
FoamFile
{
    version     2.0;
    format      ascii;
    class       volScalarField;
    location    "6e-05";
    object      O;
}
// * * * * * * * * * * * * * * * * * * * * * * * * * * * * * * * * * * * * * //

dimensions      [0 0 0 0 0 0 0];

internalField   nonuniform List<scalar> 
124
(
0.000392049
0.000392047
0.000392048
0.000392051
0.000392053
0.000392054
0.000392056
0.000392057
0.000392058
0.000392059
0.00039206
0.00039206
0.000392061
0.000392062
0.000392063
0.000392063
0.000392064
0.000392065
0.000392066
0.000392066
0.000392067
0.000392068
0.000392068
0.000392069
0.00039207
0.00039207
0.000392071
0.000392071
0.000392072
0.000392072
0.000392073
0.000392073
0.000392073
0.000392074
0.000392074
0.000392075
0.000392075
0.000392075
0.000392075
0.000392076
0.000392076
0.000392076
0.000392077
0.000392077
0.000392077
0.000392077
0.000392078
0.000392078
0.000392078
0.000392078
0.000392078
0.000392078
0.000392079
0.000392079
0.000392079
0.000392079
0.000392079
0.000392079
0.000392079
0.000392079
0.000392079
0.000392079
0.000392079
0.000392079
0.000392079
0.000392079
0.000392079
0.000392079
0.000392079
0.000392079
0.000392078
0.000392078
0.000392078
0.000392078
0.000392078
0.000392077
0.000392077
0.000392077
0.000392077
0.000392076
0.000392076
0.000392076
0.000392076
0.000392075
0.000392075
0.000392075
0.000392074
0.000392074
0.000392074
0.000392073
0.000392073
0.000392072
0.000392072
0.000392071
0.000392071
0.00039207
0.00039207
0.000392069
0.000392069
0.000392068
0.000392068
0.000392067
0.000392067
0.000392066
0.000392065
0.000392065
0.000392064
0.000392064
0.000392063
0.000392062
0.000392062
0.000392061
0.00039206
0.00039206
0.000392059
0.000392059
0.000392058
0.000392057
0.000392057
0.000392056
0.000392055
0.000392054
0.000392054
0.000392053
)
;

boundaryField
{
    boundary
    {
        type            empty;
    }
    inlet
    {
        type            fixedValue;
        value           nonuniform 0();
    }
    outlet
    {
        type            zeroGradient;
    }
    procBoundary0to1
    {
        type            processor;
        value           uniform 0.000392087;
    }
}


// ************************************************************************* //
