/*--------------------------------*- C++ -*----------------------------------*\
  =========                 |
  \\      /  F ield         | OpenFOAM: The Open Source CFD Toolbox
   \\    /   O peration     | Website:  https://openfoam.org
    \\  /    A nd           | Version:  7
     \\/     M anipulation  |
\*---------------------------------------------------------------------------*/
FoamFile
{
    version     2.0;
    format      ascii;
    class       volScalarField;
    location    "6e-05";
    object      O2;
}
// * * * * * * * * * * * * * * * * * * * * * * * * * * * * * * * * * * * * * //

dimensions      [0 0 0 0 0 0 0];

internalField   nonuniform List<scalar> 
124
(
0.00720141
0.00720141
0.00720141
0.00720141
0.00720141
0.00720141
0.0072014
0.0072014
0.00720139
0.00720138
0.00720138
0.00720137
0.00720137
0.00720137
0.00720136
0.00720136
0.00720136
0.00720135
0.00720135
0.00720134
0.00720134
0.00720133
0.00720133
0.00720132
0.00720132
0.00720131
0.00720131
0.0072013
0.0072013
0.00720129
0.00720129
0.00720128
0.00720128
0.00720128
0.00720127
0.00720127
0.00720127
0.00720126
0.00720126
0.00720126
0.00720125
0.00720125
0.00720125
0.00720125
0.00720124
0.00720124
0.00720124
0.00720123
0.00720123
0.00720123
0.00720122
0.00720122
0.00720122
0.00720122
0.00720121
0.00720121
0.00720121
0.00720121
0.0072012
0.0072012
0.0072012
0.0072012
0.00720119
0.00720119
0.00720119
0.00720119
0.00720118
0.00720118
0.00720118
0.00720118
0.00720118
0.00720117
0.00720117
0.00720117
0.00720117
0.00720117
0.00720117
0.00720117
0.00720117
0.00720116
0.00720116
0.00720116
0.00720116
0.00720116
0.00720116
0.00720116
0.00720116
0.00720116
0.00720116
0.00720116
0.00720116
0.00720116
0.00720116
0.00720116
0.00720116
0.00720116
0.00720116
0.00720116
0.00720116
0.00720117
0.00720117
0.00720117
0.00720117
0.00720117
0.00720117
0.00720117
0.00720118
0.00720118
0.00720118
0.00720118
0.00720119
0.00720119
0.00720119
0.00720119
0.0072012
0.0072012
0.0072012
0.00720121
0.00720121
0.00720121
0.00720122
0.00720122
0.00720122
0.00720122
)
;

boundaryField
{
    boundary
    {
        type            empty;
    }
    inlet
    {
        type            fixedValue;
        value           nonuniform 0();
    }
    outlet
    {
        type            zeroGradient;
    }
    procBoundary0to1
    {
        type            processor;
        value           uniform 0.0072013;
    }
}


// ************************************************************************* //
