/*--------------------------------*- C++ -*----------------------------------*\
  =========                 |
  \\      /  F ield         | OpenFOAM: The Open Source CFD Toolbox
   \\    /   O peration     | Website:  https://openfoam.org
    \\  /    A nd           | Version:  7
     \\/     M anipulation  |
\*---------------------------------------------------------------------------*/
FoamFile
{
    version     2.0;
    format      ascii;
    class       volScalarField;
    location    "6e-05";
    object      p;
}
// * * * * * * * * * * * * * * * * * * * * * * * * * * * * * * * * * * * * * //

dimensions      [1 -1 -2 0 0 0 0];

internalField   nonuniform List<scalar> 
124
(
102567
102567
102566
102566
102565
102564
102564
102563
102563
102562
102562
102561
102561
102560
102560
102560
102559
102559
102558
102558
102557
102557
102556
102556
102555
102555
102554
102554
102553
102553
102552
102552
102551
102551
102550
102550
102549
102549
102548
102548
102547
102547
102546
102546
102545
102545
102544
102544
102543
102543
102542
102542
102541
102541
102540
102540
102539
102539
102538
102538
102537
102537
102536
102535
102535
102534
102534
102533
102533
102532
102532
102531
102531
102530
102530
102529
102529
102528
102527
102527
102526
102526
102525
102525
102524
102524
102523
102522
102522
102521
102521
102520
102519
102519
102518
102518
102517
102517
102516
102515
102515
102514
102513
102513
102512
102512
102511
102510
102510
102509
102508
102508
102507
102506
102506
102505
102504
102503
102503
102502
102501
102501
102500
102499
)
;

boundaryField
{
    boundary
    {
        type            empty;
    }
    inlet
    {
        type            zeroGradient;
    }
    outlet
    {
        type            waveTransmissive;
        gamma           1.4;
        value           uniform 102499;
    }
    procBoundary0to1
    {
        type            processor;
        value           uniform 102567;
    }
}


// ************************************************************************* //
