/*--------------------------------*- C++ -*----------------------------------*\
  =========                 |
  \\      /  F ield         | OpenFOAM: The Open Source CFD Toolbox
   \\    /   O peration     | Website:  https://openfoam.org
    \\  /    A nd           | Version:  7
     \\/     M anipulation  |
\*---------------------------------------------------------------------------*/
FoamFile
{
    version     2.0;
    format      ascii;
    class       surfaceScalarField;
    location    "6e-05";
    object      phi;
}
// * * * * * * * * * * * * * * * * * * * * * * * * * * * * * * * * * * * * * //

dimensions      [1 0 -1 0 0 0 0];

internalField   nonuniform List<scalar> 
123
(
5.09386e-06
5.09226e-06
5.09066e-06
5.08905e-06
5.08744e-06
5.08581e-06
5.08418e-06
5.08255e-06
5.08091e-06
5.07927e-06
5.07762e-06
5.07596e-06
5.0743e-06
5.07263e-06
5.07096e-06
5.06928e-06
5.0676e-06
5.06591e-06
5.06422e-06
5.06252e-06
5.06081e-06
5.0591e-06
5.05738e-06
5.05566e-06
5.05393e-06
5.0522e-06
5.05046e-06
5.04871e-06
5.04696e-06
5.04521e-06
5.04344e-06
5.04168e-06
5.0399e-06
5.03812e-06
5.03634e-06
5.03455e-06
5.03276e-06
5.03096e-06
5.02915e-06
5.02734e-06
5.02553e-06
5.02371e-06
5.02189e-06
5.02006e-06
5.01822e-06
5.01639e-06
5.01454e-06
5.0127e-06
5.01084e-06
5.00899e-06
5.00713e-06
5.00526e-06
5.00339e-06
5.00152e-06
4.99964e-06
4.99776e-06
4.99588e-06
4.99399e-06
4.99209e-06
4.9902e-06
4.9883e-06
4.98639e-06
4.98448e-06
4.98257e-06
4.98066e-06
4.97873e-06
4.97681e-06
4.97488e-06
4.97295e-06
4.97101e-06
4.96907e-06
4.96713e-06
4.96518e-06
4.96323e-06
4.96127e-06
4.9593e-06
4.95733e-06
4.95536e-06
4.95338e-06
4.9514e-06
4.94941e-06
4.94741e-06
4.94541e-06
4.9434e-06
4.94139e-06
4.93936e-06
4.93733e-06
4.9353e-06
4.93325e-06
4.9312e-06
4.92914e-06
4.92706e-06
4.92498e-06
4.92289e-06
4.92079e-06
4.91868e-06
4.91656e-06
4.91442e-06
4.91228e-06
4.91012e-06
4.90794e-06
4.90576e-06
4.90356e-06
4.90134e-06
4.89911e-06
4.89686e-06
4.8946e-06
4.89232e-06
4.89002e-06
4.88771e-06
4.88537e-06
4.88302e-06
4.88064e-06
4.87825e-06
4.87583e-06
4.87339e-06
4.87093e-06
4.86844e-06
4.86593e-06
4.8634e-06
4.86084e-06
4.85825e-06
4.85563e-06
)
;

boundaryField
{
    boundary
    {
        type            empty;
        value           nonuniform 0();
    }
    inlet
    {
        type            calculated;
        value           nonuniform 0();
    }
    outlet
    {
        type            calculated;
        value           uniform 4.85299e-06;
    }
    procBoundary0to1
    {
        type            processor;
        value           uniform -5.09544e-06;
    }
}


// ************************************************************************* //
