/*--------------------------------*- C++ -*----------------------------------*\
  =========                 |
  \\      /  F ield         | OpenFOAM: The Open Source CFD Toolbox
   \\    /   O peration     | Website:  https://openfoam.org
    \\  /    A nd           | Version:  7
     \\/     M anipulation  |
\*---------------------------------------------------------------------------*/
FoamFile
{
    version     2.0;
    format      ascii;
    class       volScalarField;
    location    "6e-05";
    object      Qdot;
}
// * * * * * * * * * * * * * * * * * * * * * * * * * * * * * * * * * * * * * //

dimensions      [1 -1 -3 0 0 0 0];

internalField   nonuniform List<scalar> 
124
(
-637370
-619682
-610528
-605198
-602224
-600703
-600104
-600077
-600382
-600895
-601547
-602313
-603099
-604006
-604825
-605652
-606488
-607334
-608190
-609055
-609930
-610813
-611704
-612601
-613504
-614410
-615315
-616227
-617146
-618069
-618992
-619921
-620536
-621482
-622428
-623374
-624321
-625270
-626222
-627173
-628122
-629075
-630030
-630979
-631891
-632842
-633810
-634787
-635769
-636752
-637720
-638706
-639706
-640743
-641753
-642755
-643754
-644752
-645749
-646743
-647737
-649053
-650038
-651008
-651982
-652960
-653936
-654911
-655882
-656849
-658003
-658961
-659616
-660563
-661500
-662430
-663352
-664265
-665171
-666068
-666956
-667833
-668690
-669529
-670301
-671109
-671921
-672718
-673500
-674275
-675046
-675834
-676658
-677780
-678641
-679386
-680070
-680717
-681335
-681926
-682485
-682996
-683844
-684019
-684258
-684658
-685091
-685524
-685938
-686329
-686703
-687058
-687396
-686812
-687123
-687415
-687692
-687954
-688206
-688456
-688719
-689020
-689394
-689824
)
;

boundaryField
{
    boundary
    {
        type            empty;
    }
    inlet
    {
        type            calculated;
        value           nonuniform 0();
    }
    outlet
    {
        type            calculated;
        value           uniform 0;
    }
    procBoundary0to1
    {
        type            processor;
        value           uniform 0;
    }
}


// ************************************************************************* //
