/*--------------------------------*- C++ -*----------------------------------*\
  =========                 |
  \\      /  F ield         | OpenFOAM: The Open Source CFD Toolbox
   \\    /   O peration     | Website:  https://openfoam.org
    \\  /    A nd           | Version:  7
     \\/     M anipulation  |
\*---------------------------------------------------------------------------*/
FoamFile
{
    version     2.0;
    format      ascii;
    class       volScalarField;
    location    "6e-05";
    object      T;
}
// * * * * * * * * * * * * * * * * * * * * * * * * * * * * * * * * * * * * * //

dimensions      [0 0 0 1 0 0 0];

internalField   nonuniform List<scalar> 
124
(
2392.6
2392.61
2392.61
2392.62
2392.62
2392.63
2392.63
2392.64
2392.65
2392.65
2392.66
2392.66
2392.67
2392.68
2392.68
2392.69
2392.7
2392.7
2392.71
2392.72
2392.72
2392.73
2392.73
2392.74
2392.75
2392.75
2392.76
2392.76
2392.77
2392.78
2392.78
2392.79
2392.8
2392.8
2392.81
2392.81
2392.82
2392.83
2392.83
2392.84
2392.84
2392.85
2392.86
2392.86
2392.87
2392.87
2392.88
2392.88
2392.89
2392.9
2392.9
2392.91
2392.91
2392.92
2392.92
2392.93
2392.94
2392.94
2392.95
2392.95
2392.96
2392.96
2392.97
2392.97
2392.98
2392.98
2392.99
2392.99
2393
2393
2393.01
2393.01
2393.01
2393.02
2393.02
2393.03
2393.03
2393.04
2393.04
2393.04
2393.05
2393.05
2393.05
2393.06
2393.06
2393.06
2393.06
2393.07
2393.07
2393.07
2393.07
2393.08
2393.08
2393.08
2393.08
2393.08
2393.08
2393.09
2393.09
2393.09
2393.09
2393.09
2393.09
2393.09
2393.09
2393.09
2393.09
2393.09
2393.09
2393.09
2393.09
2393.09
2393.09
2393.08
2393.08
2393.08
2393.08
2393.08
2393.08
2393.07
2393.07
2393.07
2393.07
2393.07
)
;

boundaryField
{
    boundary
    {
        type            empty;
    }
    inlet
    {
        type            fixedValue;
        value           nonuniform 0();
    }
    outlet
    {
        type            zeroGradient;
    }
    procBoundary0to1
    {
        type            processor;
        value           uniform 2392.59;
    }
}


// ************************************************************************* //
