/*--------------------------------*- C++ -*----------------------------------*\
  =========                 |
  \\      /  F ield         | OpenFOAM: The Open Source CFD Toolbox
   \\    /   O peration     | Website:  https://openfoam.org
    \\  /    A nd           | Version:  7
     \\/     M anipulation  |
\*---------------------------------------------------------------------------*/
FoamFile
{
    version     2.0;
    format      ascii;
    class       volVectorField;
    location    "6e-05";
    object      U;
}
// * * * * * * * * * * * * * * * * * * * * * * * * * * * * * * * * * * * * * //

dimensions      [0 1 -1 0 0 0 0];

internalField   nonuniform List<vector> 
124
(
(11.9334 0 0)
(11.9268 0 0)
(11.9225 0 0)
(11.9209 0 0)
(11.9175 0 0)
(11.9138 0 0)
(11.9099 0 0)
(11.9061 0 0)
(11.9023 0 0)
(11.8985 0 0)
(11.8947 0 0)
(11.8908 0 0)
(11.887 0 0)
(11.8831 0 0)
(11.8793 0 0)
(11.8754 0 0)
(11.8715 0 0)
(11.8676 0 0)
(11.8637 0 0)
(11.8598 0 0)
(11.8559 0 0)
(11.8519 0 0)
(11.848 0 0)
(11.844 0 0)
(11.8401 0 0)
(11.8361 0 0)
(11.8321 0 0)
(11.8281 0 0)
(11.824 0 0)
(11.82 0 0)
(11.816 0 0)
(11.8119 0 0)
(11.8078 0 0)
(11.8038 0 0)
(11.7997 0 0)
(11.7956 0 0)
(11.7914 0 0)
(11.7873 0 0)
(11.7832 0 0)
(11.779 0 0)
(11.7749 0 0)
(11.7707 0 0)
(11.7665 0 0)
(11.7623 0 0)
(11.7581 0 0)
(11.7539 0 0)
(11.7496 0 0)
(11.7454 0 0)
(11.7412 0 0)
(11.7369 0 0)
(11.7326 0 0)
(11.7283 0 0)
(11.7241 0 0)
(11.7198 0 0)
(11.7155 0 0)
(11.7111 0 0)
(11.7068 0 0)
(11.7025 0 0)
(11.6981 0 0)
(11.6938 0 0)
(11.6894 0 0)
(11.685 0 0)
(11.6807 0 0)
(11.6763 0 0)
(11.6719 0 0)
(11.6674 0 0)
(11.663 0 0)
(11.6586 0 0)
(11.6542 0 0)
(11.6497 0 0)
(11.6453 0 0)
(11.6408 0 0)
(11.6363 0 0)
(11.6318 0 0)
(11.6273 0 0)
(11.6228 0 0)
(11.6183 0 0)
(11.6137 0 0)
(11.6092 0 0)
(11.6046 0 0)
(11.6 0 0)
(11.5954 0 0)
(11.5908 0 0)
(11.5862 0 0)
(11.5816 0 0)
(11.5769 0 0)
(11.5723 0 0)
(11.5676 0 0)
(11.5629 0 0)
(11.5581 0 0)
(11.5534 0 0)
(11.5486 0 0)
(11.5438 0 0)
(11.539 0 0)
(11.5342 0 0)
(11.5293 0 0)
(11.5244 0 0)
(11.5195 0 0)
(11.5146 0 0)
(11.5096 0 0)
(11.5046 0 0)
(11.4995 0 0)
(11.4945 0 0)
(11.4894 0 0)
(11.4842 0 0)
(11.4791 0 0)
(11.4738 0 0)
(11.4686 0 0)
(11.4633 0 0)
(11.458 0 0)
(11.4526 0 0)
(11.4472 0 0)
(11.4417 0 0)
(11.4362 0 0)
(11.4306 0 0)
(11.425 0 0)
(11.4193 0 0)
(11.4136 0 0)
(11.4078 0 0)
(11.4019 0 0)
(11.3961 0 0)
(11.3901 0 0)
(11.3834 0 0)
(11.3752 0 0)
)
;

boundaryField
{
    boundary
    {
        type            empty;
    }
    inlet
    {
        type            fixedValue;
        value           nonuniform 0();
    }
    outlet
    {
        type            zeroGradient;
    }
    procBoundary0to1
    {
        type            processor;
        value           uniform (11.9373 0 0);
    }
}


// ************************************************************************* //
