/*--------------------------------*- C++ -*----------------------------------*\
  =========                 |
  \\      /  F ield         | OpenFOAM: The Open Source CFD Toolbox
   \\    /   O peration     | Website:  https://openfoam.org
    \\  /    A nd           | Version:  7
     \\/     M anipulation  |
\*---------------------------------------------------------------------------*/
FoamFile
{
    version     2.0;
    format      ascii;
    class       volScalarField;
    location    "5e-05";
    object      H;
}
// * * * * * * * * * * * * * * * * * * * * * * * * * * * * * * * * * * * * * //

dimensions      [0 0 0 0 0 0 0];

internalField   nonuniform List<scalar> 
125
(
1.62761e-41
2.35249e-41
2.64459e-41
2.8133e-41
2.92085e-41
2.986e-41
3.02205e-41
3.04027e-41
3.04875e-41
3.0524e-41
3.05387e-41
3.05439e-41
3.05455e-41
3.05455e-41
3.0545e-41
3.05443e-41
3.05435e-41
3.05426e-41
3.05416e-41
3.05405e-41
3.05394e-41
3.05383e-41
3.05371e-41
3.05358e-41
3.05345e-41
3.05331e-41
3.05316e-41
3.05301e-41
3.05286e-41
3.05269e-41
3.05253e-41
3.05235e-41
3.05218e-41
3.05199e-41
3.0518e-41
3.05161e-41
3.05141e-41
3.0512e-41
3.05099e-41
3.05078e-41
3.05056e-41
3.05033e-41
3.0501e-41
3.04987e-41
3.04963e-41
3.04938e-41
3.04913e-41
3.04888e-41
3.04862e-41
3.04836e-41
3.04809e-41
3.04782e-41
3.04755e-41
3.04727e-41
3.04699e-41
3.0467e-41
3.04641e-41
3.04612e-41
3.04583e-41
3.04553e-41
3.04523e-41
3.04493e-41
3.04462e-41
3.04431e-41
3.044e-41
3.04369e-41
3.04338e-41
3.04307e-41
3.04275e-41
3.04244e-41
3.04212e-41
3.0418e-41
3.04149e-41
3.04117e-41
3.04085e-41
3.04053e-41
3.04022e-41
3.0399e-41
3.03959e-41
3.03927e-41
3.03896e-41
3.03865e-41
3.03835e-41
3.03804e-41
3.03774e-41
3.03744e-41
3.03714e-41
3.03685e-41
3.03656e-41
3.03627e-41
3.03599e-41
3.03571e-41
3.03543e-41
3.03516e-41
3.0349e-41
3.03464e-41
3.03439e-41
3.03414e-41
3.0339e-41
3.03366e-41
3.03343e-41
3.0332e-41
3.03298e-41
3.03277e-41
3.03257e-41
3.03237e-41
3.03218e-41
3.032e-41
3.03182e-41
3.03165e-41
3.03149e-41
3.03133e-41
3.03119e-41
3.03105e-41
3.03092e-41
3.03079e-41
3.03068e-41
3.03057e-41
3.03047e-41
3.03037e-41
3.03028e-41
3.03019e-41
3.03003e-41
3.02949e-41
3.02671e-41
)
;

boundaryField
{
    boundary
    {
        type            empty;
    }
    inlet
    {
        type            fixedValue;
        value           uniform 0;
    }
    outlet
    {
        type            zeroGradient;
    }
    procBoundary2to3
    {
        type            processor;
        value           uniform 3.02535e-41;
    }
}


// ************************************************************************* //
