/*--------------------------------*- C++ -*----------------------------------*\
  =========                 |
  \\      /  F ield         | OpenFOAM: The Open Source CFD Toolbox
   \\    /   O peration     | Website:  https://openfoam.org
    \\  /    A nd           | Version:  7
     \\/     M anipulation  |
\*---------------------------------------------------------------------------*/
FoamFile
{
    version     2.0;
    format      ascii;
    class       volScalarField;
    location    "5e-05";
    object      H2O;
}
// * * * * * * * * * * * * * * * * * * * * * * * * * * * * * * * * * * * * * //

dimensions      [0 0 0 0 0 0 0];

internalField   nonuniform List<scalar> 
125
(
7.5742e-48
2.03557e-47
3.32115e-47
4.41055e-47
5.21896e-47
5.75631e-47
6.08147e-47
6.26282e-47
6.35697e-47
6.40281e-47
6.42389e-47
6.43312e-47
6.43699e-47
6.43858e-47
6.43924e-47
6.43954e-47
6.43972e-47
6.43986e-47
6.43998e-47
6.44011e-47
6.44025e-47
6.44039e-47
6.44053e-47
6.44069e-47
6.44085e-47
6.44103e-47
6.44121e-47
6.4414e-47
6.4416e-47
6.4418e-47
6.44202e-47
6.44224e-47
6.44248e-47
6.44272e-47
6.44298e-47
6.44324e-47
6.44352e-47
6.4438e-47
6.4441e-47
6.44441e-47
6.44473e-47
6.44506e-47
6.4454e-47
6.44575e-47
6.44611e-47
6.44649e-47
6.44688e-47
6.44728e-47
6.44769e-47
6.44812e-47
6.44856e-47
6.44901e-47
6.44948e-47
6.44995e-47
6.45045e-47
6.45095e-47
6.45147e-47
6.452e-47
6.45255e-47
6.45311e-47
6.45369e-47
6.45428e-47
6.45488e-47
6.4555e-47
6.45614e-47
6.45678e-47
6.45745e-47
6.45813e-47
6.45882e-47
6.45953e-47
6.46025e-47
6.46099e-47
6.46175e-47
6.46252e-47
6.4633e-47
6.46411e-47
6.46492e-47
6.46576e-47
6.46661e-47
6.46747e-47
6.46835e-47
6.46925e-47
6.47016e-47
6.47109e-47
6.47203e-47
6.47299e-47
6.47397e-47
6.47496e-47
6.47597e-47
6.477e-47
6.47804e-47
6.4791e-47
6.48017e-47
6.48126e-47
6.48237e-47
6.48349e-47
6.48463e-47
6.48578e-47
6.48695e-47
6.48814e-47
6.48934e-47
6.49056e-47
6.49179e-47
6.49304e-47
6.49431e-47
6.49559e-47
6.49689e-47
6.4982e-47
6.49953e-47
6.50087e-47
6.50222e-47
6.5036e-47
6.50498e-47
6.50638e-47
6.5078e-47
6.50923e-47
6.51067e-47
6.51212e-47
6.51358e-47
6.51497e-47
6.51602e-47
6.51548e-47
6.50818e-47
6.47439e-47
6.34815e-47
)
;

boundaryField
{
    boundary
    {
        type            empty;
    }
    inlet
    {
        type            fixedValue;
        value           uniform 0;
    }
    outlet
    {
        type            zeroGradient;
    }
    procBoundary2to3
    {
        type            processor;
        value           uniform 6.1756e-47;
    }
}


// ************************************************************************* //
