/*--------------------------------*- C++ -*----------------------------------*\
  =========                 |
  \\      /  F ield         | OpenFOAM: The Open Source CFD Toolbox
   \\    /   O peration     | Website:  https://openfoam.org
    \\  /    A nd           | Version:  7
     \\/     M anipulation  |
\*---------------------------------------------------------------------------*/
FoamFile
{
    version     2.0;
    format      ascii;
    class       volScalarField;
    location    "5e-05";
    object      H2O2;
}
// * * * * * * * * * * * * * * * * * * * * * * * * * * * * * * * * * * * * * //

dimensions      [0 0 0 0 0 0 0];

internalField   nonuniform List<scalar> 
125
(
1.64639e-52
4.66101e-52
7.90541e-52
1.07787e-51
1.29656e-51
1.44346e-51
1.53226e-51
1.5813e-51
1.60633e-51
1.61825e-51
1.62359e-51
1.62586e-51
1.62679e-51
1.62716e-51
1.62731e-51
1.62738e-51
1.62743e-51
1.62747e-51
1.6275e-51
1.62754e-51
1.62758e-51
1.62762e-51
1.62766e-51
1.62771e-51
1.62776e-51
1.62781e-51
1.62786e-51
1.62792e-51
1.62797e-51
1.62803e-51
1.62809e-51
1.62816e-51
1.62823e-51
1.6283e-51
1.62837e-51
1.62844e-51
1.62852e-51
1.6286e-51
1.62869e-51
1.62877e-51
1.62886e-51
1.62895e-51
1.62905e-51
1.62915e-51
1.62925e-51
1.62935e-51
1.62946e-51
1.62957e-51
1.62969e-51
1.6298e-51
1.62992e-51
1.63005e-51
1.63018e-51
1.63031e-51
1.63044e-51
1.63058e-51
1.63072e-51
1.63087e-51
1.63101e-51
1.63117e-51
1.63132e-51
1.63148e-51
1.63164e-51
1.63181e-51
1.63198e-51
1.63216e-51
1.63234e-51
1.63252e-51
1.6327e-51
1.63289e-51
1.63309e-51
1.63329e-51
1.63349e-51
1.6337e-51
1.63391e-51
1.63412e-51
1.63434e-51
1.63456e-51
1.63479e-51
1.63502e-51
1.63526e-51
1.63549e-51
1.63574e-51
1.63599e-51
1.63624e-51
1.63649e-51
1.63675e-51
1.63702e-51
1.63729e-51
1.63756e-51
1.63784e-51
1.63812e-51
1.63841e-51
1.6387e-51
1.63899e-51
1.63929e-51
1.6396e-51
1.6399e-51
1.64022e-51
1.64053e-51
1.64085e-51
1.64118e-51
1.64151e-51
1.64184e-51
1.64218e-51
1.64252e-51
1.64286e-51
1.64321e-51
1.64357e-51
1.64393e-51
1.64429e-51
1.64465e-51
1.64502e-51
1.6454e-51
1.64578e-51
1.64616e-51
1.64654e-51
1.64693e-51
1.64732e-51
1.6477e-51
1.64803e-51
1.64804e-51
1.64645e-51
1.63759e-51
1.60011e-51
)
;

boundaryField
{
    boundary
    {
        type            empty;
    }
    inlet
    {
        type            fixedValue;
        value           uniform 0;
    }
    outlet
    {
        type            zeroGradient;
    }
    procBoundary2to3
    {
        type            processor;
        value           uniform 1.5434e-51;
    }
}


// ************************************************************************* //
