/*--------------------------------*- C++ -*----------------------------------*\
  =========                 |
  \\      /  F ield         | OpenFOAM: The Open Source CFD Toolbox
   \\    /   O peration     | Website:  https://openfoam.org
    \\  /    A nd           | Version:  7
     \\/     M anipulation  |
\*---------------------------------------------------------------------------*/
FoamFile
{
    version     2.0;
    format      ascii;
    class       volScalarField;
    location    "5e-05";
    object      HO2;
}
// * * * * * * * * * * * * * * * * * * * * * * * * * * * * * * * * * * * * * //

dimensions      [0 0 0 0 0 0 0];

internalField   nonuniform List<scalar> 
125
(
5.58593e-38
1.22891e-37
1.80365e-37
2.24576e-37
2.55174e-37
2.74376e-37
2.85409e-37
2.91268e-37
2.94166e-37
2.95512e-37
2.96103e-37
2.96349e-37
2.96447e-37
2.96486e-37
2.96501e-37
2.96508e-37
2.96512e-37
2.96515e-37
2.96518e-37
2.96521e-37
2.96524e-37
2.96527e-37
2.96531e-37
2.96534e-37
2.96538e-37
2.96542e-37
2.96546e-37
2.96551e-37
2.96555e-37
2.9656e-37
2.96565e-37
2.9657e-37
2.96576e-37
2.96582e-37
2.96588e-37
2.96594e-37
2.966e-37
2.96607e-37
2.96614e-37
2.96621e-37
2.96629e-37
2.96637e-37
2.96645e-37
2.96653e-37
2.96662e-37
2.96671e-37
2.9668e-37
2.9669e-37
2.967e-37
2.9671e-37
2.96721e-37
2.96732e-37
2.96743e-37
2.96755e-37
2.96767e-37
2.96779e-37
2.96792e-37
2.96805e-37
2.96819e-37
2.96832e-37
2.96847e-37
2.96861e-37
2.96876e-37
2.96892e-37
2.96908e-37
2.96924e-37
2.96941e-37
2.96958e-37
2.96975e-37
2.96993e-37
2.97011e-37
2.9703e-37
2.97049e-37
2.97069e-37
2.97089e-37
2.97109e-37
2.9713e-37
2.97152e-37
2.97173e-37
2.97196e-37
2.97218e-37
2.97241e-37
2.97265e-37
2.97289e-37
2.97314e-37
2.97338e-37
2.97364e-37
2.9739e-37
2.97416e-37
2.97443e-37
2.9747e-37
2.97498e-37
2.97526e-37
2.97554e-37
2.97584e-37
2.97613e-37
2.97643e-37
2.97673e-37
2.97704e-37
2.97736e-37
2.97767e-37
2.978e-37
2.97832e-37
2.97865e-37
2.97899e-37
2.97933e-37
2.97967e-37
2.98002e-37
2.98037e-37
2.98073e-37
2.98109e-37
2.98146e-37
2.98182e-37
2.9822e-37
2.98257e-37
2.98295e-37
2.98333e-37
2.98372e-37
2.98411e-37
2.98449e-37
2.98481e-37
2.98481e-37
2.9832e-37
2.97421e-37
2.93591e-37
)
;

boundaryField
{
    boundary
    {
        type            empty;
    }
    inlet
    {
        type            fixedValue;
        value           uniform 0;
    }
    outlet
    {
        type            zeroGradient;
    }
    procBoundary2to3
    {
        type            processor;
        value           uniform 2.87869e-37;
    }
}


// ************************************************************************* //
