/*--------------------------------*- C++ -*----------------------------------*\
  =========                 |
  \\      /  F ield         | OpenFOAM: The Open Source CFD Toolbox
   \\    /   O peration     | Website:  https://openfoam.org
    \\  /    A nd           | Version:  7
     \\/     M anipulation  |
\*---------------------------------------------------------------------------*/
FoamFile
{
    version     2.0;
    format      ascii;
    class       volScalarField;
    location    "5e-05";
    object      O;
}
// * * * * * * * * * * * * * * * * * * * * * * * * * * * * * * * * * * * * * //

dimensions      [0 0 0 0 0 0 0];

internalField   nonuniform List<scalar> 
125
(
1.60004e-47
3.71016e-47
5.56012e-47
7.02475e-47
8.0755e-47
8.76361e-47
9.17881e-47
9.41179e-47
9.53434e-47
9.59517e-47
9.62383e-47
9.63671e-47
9.64226e-47
9.64459e-47
9.64555e-47
9.64596e-47
9.64617e-47
9.64629e-47
9.6464e-47
9.6465e-47
9.6466e-47
9.64671e-47
9.64682e-47
9.64694e-47
9.64706e-47
9.64719e-47
9.64733e-47
9.64748e-47
9.64763e-47
9.64779e-47
9.64796e-47
9.64814e-47
9.64833e-47
9.64852e-47
9.64873e-47
9.64894e-47
9.64917e-47
9.6494e-47
9.64965e-47
9.64991e-47
9.65017e-47
9.65045e-47
9.65074e-47
9.65104e-47
9.65136e-47
9.65169e-47
9.65203e-47
9.65238e-47
9.65274e-47
9.65312e-47
9.65352e-47
9.65392e-47
9.65435e-47
9.65478e-47
9.65523e-47
9.6557e-47
9.65618e-47
9.65668e-47
9.65719e-47
9.65772e-47
9.65826e-47
9.65882e-47
9.6594e-47
9.65999e-47
9.6606e-47
9.66123e-47
9.66188e-47
9.66254e-47
9.66322e-47
9.66391e-47
9.66463e-47
9.66536e-47
9.66611e-47
9.66688e-47
9.66766e-47
9.66847e-47
9.66929e-47
9.67013e-47
9.67099e-47
9.67187e-47
9.67276e-47
9.67368e-47
9.67461e-47
9.67557e-47
9.67654e-47
9.67753e-47
9.67854e-47
9.67957e-47
9.68061e-47
9.68168e-47
9.68276e-47
9.68387e-47
9.68499e-47
9.68613e-47
9.6873e-47
9.68847e-47
9.68967e-47
9.69089e-47
9.69213e-47
9.69338e-47
9.69465e-47
9.69595e-47
9.69726e-47
9.69858e-47
9.69993e-47
9.70129e-47
9.70267e-47
9.70407e-47
9.70548e-47
9.70692e-47
9.70836e-47
9.70983e-47
9.71131e-47
9.7128e-47
9.71431e-47
9.71584e-47
9.71738e-47
9.71892e-47
9.72045e-47
9.72184e-47
9.72266e-47
9.72106e-47
9.70999e-47
9.66488e-47
9.51339e-47
)
;

boundaryField
{
    boundary
    {
        type            empty;
    }
    inlet
    {
        type            fixedValue;
        value           uniform 0;
    }
    outlet
    {
        type            zeroGradient;
    }
    procBoundary2to3
    {
        type            processor;
        value           uniform 9.35049e-47;
    }
}


// ************************************************************************* //
