/*--------------------------------*- C++ -*----------------------------------*\
  =========                 |
  \\      /  F ield         | OpenFOAM: The Open Source CFD Toolbox
   \\    /   O peration     | Website:  https://openfoam.org
    \\  /    A nd           | Version:  7
     \\/     M anipulation  |
\*---------------------------------------------------------------------------*/
FoamFile
{
    version     2.0;
    format      ascii;
    class       volScalarField;
    location    "5e-05";
    object      OH;
}
// * * * * * * * * * * * * * * * * * * * * * * * * * * * * * * * * * * * * * //

dimensions      [0 0 0 0 0 0 0];

internalField   nonuniform List<scalar> 
125
(
1.01902e-47
2.07815e-47
2.8615e-47
3.40906e-47
3.76504e-47
3.97903e-47
4.09829e-47
4.16031e-47
4.19065e-47
4.2047e-47
4.2109e-47
4.21351e-47
4.21457e-47
4.21498e-47
4.21513e-47
4.21517e-47
4.21518e-47
4.21517e-47
4.21516e-47
4.21514e-47
4.21512e-47
4.21511e-47
4.21509e-47
4.21507e-47
4.21505e-47
4.21502e-47
4.215e-47
4.21498e-47
4.21496e-47
4.21494e-47
4.21491e-47
4.21489e-47
4.21487e-47
4.21485e-47
4.21483e-47
4.21481e-47
4.21479e-47
4.21478e-47
4.21476e-47
4.21474e-47
4.21473e-47
4.21472e-47
4.21471e-47
4.2147e-47
4.21469e-47
4.21469e-47
4.21469e-47
4.21468e-47
4.21469e-47
4.21469e-47
4.2147e-47
4.21471e-47
4.21472e-47
4.21474e-47
4.21476e-47
4.21478e-47
4.21481e-47
4.21483e-47
4.21487e-47
4.2149e-47
4.21494e-47
4.21499e-47
4.21503e-47
4.21508e-47
4.21514e-47
4.2152e-47
4.21526e-47
4.21533e-47
4.2154e-47
4.21548e-47
4.21556e-47
4.21565e-47
4.21574e-47
4.21583e-47
4.21593e-47
4.21604e-47
4.21614e-47
4.21626e-47
4.21638e-47
4.2165e-47
4.21663e-47
4.21676e-47
4.2169e-47
4.21705e-47
4.21719e-47
4.21735e-47
4.21751e-47
4.21767e-47
4.21784e-47
4.21801e-47
4.21819e-47
4.21837e-47
4.21856e-47
4.21876e-47
4.21896e-47
4.21916e-47
4.21937e-47
4.21958e-47
4.2198e-47
4.22002e-47
4.22025e-47
4.22048e-47
4.22072e-47
4.22096e-47
4.22121e-47
4.22145e-47
4.22171e-47
4.22197e-47
4.22223e-47
4.22249e-47
4.22276e-47
4.22303e-47
4.22331e-47
4.22359e-47
4.22387e-47
4.22415e-47
4.22443e-47
4.22472e-47
4.225e-47
4.22527e-47
4.22544e-47
4.22525e-47
4.22365e-47
4.2175e-47
4.19816e-47
)
;

boundaryField
{
    boundary
    {
        type            empty;
    }
    inlet
    {
        type            fixedValue;
        value           uniform 0;
    }
    outlet
    {
        type            zeroGradient;
    }
    procBoundary2to3
    {
        type            processor;
        value           uniform 4.1779e-47;
    }
}


// ************************************************************************* //
