/*--------------------------------*- C++ -*----------------------------------*\
  =========                 |
  \\      /  F ield         | OpenFOAM: The Open Source CFD Toolbox
   \\    /   O peration     | Website:  https://openfoam.org
    \\  /    A nd           | Version:  7
     \\/     M anipulation  |
\*---------------------------------------------------------------------------*/
FoamFile
{
    version     2.0;
    format      ascii;
    class       volScalarField;
    location    "5e-05";
    object      p;
}
// * * * * * * * * * * * * * * * * * * * * * * * * * * * * * * * * * * * * * //

dimensions      [1 -1 -2 0 0 0 0];

internalField   nonuniform List<scalar> 
125
(
102704
102704
102704
102704
102704
102704
102704
102704
102704
102704
102704
102704
102704
102704
102704
102704
102704
102704
102704
102704
102704
102703
102703
102703
102703
102703
102703
102703
102703
102703
102703
102702
102702
102702
102702
102702
102702
102702
102701
102701
102701
102701
102701
102701
102700
102700
102700
102700
102699
102699
102699
102699
102699
102698
102698
102698
102697
102697
102697
102697
102696
102696
102696
102695
102695
102694
102694
102694
102693
102693
102693
102692
102692
102691
102691
102690
102690
102689
102689
102688
102688
102687
102687
102686
102686
102685
102685
102684
102684
102683
102682
102682
102681
102681
102680
102679
102679
102678
102677
102677
102676
102675
102675
102674
102673
102672
102672
102671
102670
102669
102669
102668
102667
102666
102665
102665
102664
102663
102662
102661
102660
102660
102659
102658
102657
)
;

boundaryField
{
    boundary
    {
        type            empty;
    }
    inlet
    {
        type            zeroGradient;
    }
    outlet
    {
        type            waveTransmissive;
        gamma           1.4;
        value           nonuniform 0();
    }
    procBoundary2to3
    {
        type            processor;
        value           uniform 102656;
    }
}


// ************************************************************************* //
