/*--------------------------------*- C++ -*----------------------------------*\
  =========                 |
  \\      /  F ield         | OpenFOAM: The Open Source CFD Toolbox
   \\    /   O peration     | Website:  https://openfoam.org
    \\  /    A nd           | Version:  7
     \\/     M anipulation  |
\*---------------------------------------------------------------------------*/
FoamFile
{
    version     2.0;
    format      ascii;
    class       surfaceScalarField;
    location    "5e-05";
    object      phi;
}
// * * * * * * * * * * * * * * * * * * * * * * * * * * * * * * * * * * * * * //

dimensions      [1 0 -1 0 0 0 0];

internalField   nonuniform List<scalar> 
124
(
6.87977e-06
6.85823e-06
6.83759e-06
6.81825e-06
6.80032e-06
6.78364e-06
6.76785e-06
6.7526e-06
6.73763e-06
6.72281e-06
6.70805e-06
6.6933e-06
6.67856e-06
6.66382e-06
6.64907e-06
6.63431e-06
6.61955e-06
6.60477e-06
6.58999e-06
6.57519e-06
6.56039e-06
6.54557e-06
6.53074e-06
6.5159e-06
6.50104e-06
6.48617e-06
6.47129e-06
6.45639e-06
6.44147e-06
6.42654e-06
6.41159e-06
6.39663e-06
6.38165e-06
6.36664e-06
6.35162e-06
6.33659e-06
6.32153e-06
6.30645e-06
6.29135e-06
6.27623e-06
6.26108e-06
6.24592e-06
6.23073e-06
6.21552e-06
6.20028e-06
6.18502e-06
6.16974e-06
6.15443e-06
6.1391e-06
6.12374e-06
6.10836e-06
6.09295e-06
6.07751e-06
6.06205e-06
6.04656e-06
6.03105e-06
6.01551e-06
5.99994e-06
5.98434e-06
5.96872e-06
5.95307e-06
5.93739e-06
5.92169e-06
5.90596e-06
5.8902e-06
5.87442e-06
5.85861e-06
5.84278e-06
5.82692e-06
5.81103e-06
5.79512e-06
5.77919e-06
5.76324e-06
5.74726e-06
5.73126e-06
5.71523e-06
5.69919e-06
5.68313e-06
5.66705e-06
5.65095e-06
5.63483e-06
5.6187e-06
5.60256e-06
5.5864e-06
5.57023e-06
5.55405e-06
5.53786e-06
5.52166e-06
5.50546e-06
5.48925e-06
5.47304e-06
5.45683e-06
5.44062e-06
5.42442e-06
5.40821e-06
5.39202e-06
5.37583e-06
5.35966e-06
5.3435e-06
5.32735e-06
5.31123e-06
5.29512e-06
5.27904e-06
5.26298e-06
5.24695e-06
5.23095e-06
5.21498e-06
5.19906e-06
5.18317e-06
5.16732e-06
5.15152e-06
5.13576e-06
5.12006e-06
5.10441e-06
5.08882e-06
5.07329e-06
5.05783e-06
5.04243e-06
5.0271e-06
5.01185e-06
4.99667e-06
4.98157e-06
4.96656e-06
4.95163e-06
)
;

boundaryField
{
    boundary
    {
        type            empty;
        value           nonuniform 0();
    }
    inlet
    {
        type            calculated;
        value           uniform -6.90163e-06;
    }
    outlet
    {
        type            calculated;
        value           nonuniform 0();
    }
    procBoundary2to3
    {
        type            processor;
        value           uniform 4.93679e-06;
    }
}


// ************************************************************************* //
