/*--------------------------------*- C++ -*----------------------------------*\
  =========                 |
  \\      /  F ield         | OpenFOAM: The Open Source CFD Toolbox
   \\    /   O peration     | Website:  https://openfoam.org
    \\  /    A nd           | Version:  7
     \\/     M anipulation  |
\*---------------------------------------------------------------------------*/
FoamFile
{
    version     2.0;
    format      ascii;
    class       volScalarField;
    location    "5e-05";
    object      Qdot;
}
// * * * * * * * * * * * * * * * * * * * * * * * * * * * * * * * * * * * * * //

dimensions      [1 -1 -3 0 0 0 0];

internalField   nonuniform List<scalar> 
125
(
-2.59823e-27
-2.1517e-27
-2.15941e-27
-2.23923e-27
-2.30648e-27
-2.34834e-27
-2.37046e-27
-2.38084e-27
-2.38527e-27
-2.38702e-27
-2.38766e-27
-2.38787e-27
-2.38793e-27
-2.38793e-27
-2.38792e-27
-2.3879e-27
-2.38788e-27
-2.38785e-27
-2.38782e-27
-2.38779e-27
-2.38776e-27
-2.38773e-27
-2.38769e-27
-2.38765e-27
-2.38761e-27
-2.38756e-27
-2.38752e-27
-2.38747e-27
-2.38741e-27
-2.38736e-27
-2.3873e-27
-2.38723e-27
-2.38717e-27
-2.3871e-27
-2.38703e-27
-2.38695e-27
-2.38687e-27
-2.38679e-27
-2.3867e-27
-2.3866e-27
-2.38651e-27
-2.38641e-27
-2.3863e-27
-2.38619e-27
-2.38608e-27
-2.38596e-27
-2.38584e-27
-2.38571e-27
-2.38557e-27
-2.38544e-27
-2.38529e-27
-2.38514e-27
-2.38499e-27
-2.38483e-27
-2.38466e-27
-2.38449e-27
-2.38431e-27
-2.38413e-27
-2.38394e-27
-2.38375e-27
-2.38355e-27
-2.38334e-27
-2.38313e-27
-2.38291e-27
-2.38268e-27
-2.38245e-27
-2.38221e-27
-2.38197e-27
-2.38172e-27
-2.38146e-27
-2.3812e-27
-2.38093e-27
-2.38066e-27
-2.38037e-27
-2.38009e-27
-2.37979e-27
-2.37949e-27
-2.37918e-27
-2.37887e-27
-2.37855e-27
-2.37822e-27
-2.37789e-27
-2.37755e-27
-2.37721e-27
-2.37686e-27
-2.37651e-27
-2.37614e-27
-2.37578e-27
-2.37541e-27
-2.37503e-27
-2.37465e-27
-2.37426e-27
-2.37386e-27
-2.37347e-27
-2.37306e-27
-2.37266e-27
-2.37225e-27
-2.37183e-27
-2.37141e-27
-2.37099e-27
-2.37056e-27
-2.37013e-27
-2.36969e-27
-2.36925e-27
-2.36881e-27
-2.36837e-27
-2.36792e-27
-2.36747e-27
-2.36702e-27
-2.36657e-27
-2.36611e-27
-2.36565e-27
-2.36519e-27
-2.36473e-27
-2.36427e-27
-2.3638e-27
-2.36334e-27
-2.36287e-27
-2.36241e-27
-2.36194e-27
-2.36148e-27
-2.36101e-27
-2.36059e-27
-2.36042e-27
-2.36226e-27
)
;

boundaryField
{
    boundary
    {
        type            empty;
    }
    inlet
    {
        type            calculated;
        value           uniform 0;
    }
    outlet
    {
        type            calculated;
        value           nonuniform 0();
    }
    procBoundary2to3
    {
        type            processor;
        value           uniform 0;
    }
}


// ************************************************************************* //
