/*--------------------------------*- C++ -*----------------------------------*\
  =========                 |
  \\      /  F ield         | OpenFOAM: The Open Source CFD Toolbox
   \\    /   O peration     | Website:  https://openfoam.org
    \\  /    A nd           | Version:  7
     \\/     M anipulation  |
\*---------------------------------------------------------------------------*/
FoamFile
{
    version     2.0;
    format      ascii;
    class       volScalarField;
    location    "5e-05";
    object      T;
}
// * * * * * * * * * * * * * * * * * * * * * * * * * * * * * * * * * * * * * //

dimensions      [0 0 0 1 0 0 0];

internalField   nonuniform List<scalar> 
125
(
300.215
300.486
300.712
300.883
300.997
301.065
301.102
301.121
301.129
301.132
301.134
301.134
301.134
301.134
301.134
301.134
301.134
301.134
301.134
301.134
301.134
301.134
301.134
301.134
301.133
301.133
301.133
301.133
301.133
301.133
301.133
301.133
301.132
301.132
301.132
301.132
301.132
301.132
301.132
301.131
301.131
301.131
301.131
301.131
301.13
301.13
301.13
301.13
301.13
301.129
301.129
301.129
301.129
301.129
301.128
301.128
301.128
301.128
301.127
301.127
301.127
301.126
301.126
301.126
301.126
301.125
301.125
301.125
301.124
301.124
301.124
301.123
301.123
301.123
301.122
301.122
301.122
301.121
301.121
301.121
301.12
301.12
301.12
301.119
301.119
301.119
301.118
301.118
301.118
301.117
301.117
301.117
301.116
301.116
301.115
301.115
301.115
301.114
301.114
301.114
301.113
301.113
301.112
301.112
301.112
301.111
301.111
301.111
301.11
301.11
301.11
301.109
301.109
301.108
301.108
301.108
301.107
301.107
301.107
301.106
301.106
301.106
301.105
301.105
301.104
)
;

boundaryField
{
    boundary
    {
        type            empty;
    }
    inlet
    {
        type            fixedValue;
        value           uniform 300;
    }
    outlet
    {
        type            zeroGradient;
    }
    procBoundary2to3
    {
        type            processor;
        value           uniform 301.103;
    }
}


// ************************************************************************* //
