/*--------------------------------*- C++ -*----------------------------------*\
  =========                 |
  \\      /  F ield         | OpenFOAM: The Open Source CFD Toolbox
   \\    /   O peration     | Website:  https://openfoam.org
    \\  /    A nd           | Version:  7
     \\/     M anipulation  |
\*---------------------------------------------------------------------------*/
FoamFile
{
    version     2.0;
    format      ascii;
    class       volVectorField;
    location    "5e-05";
    object      U;
}
// * * * * * * * * * * * * * * * * * * * * * * * * * * * * * * * * * * * * * //

dimensions      [0 1 -1 0 0 0 0];

internalField   nonuniform List<vector> 
125
(
(2.34796 0 0)
(2.34282 0 0)
(2.33623 0 0)
(2.33026 0 0)
(2.32501 0 0)
(2.31976 0 0)
(2.31452 0 0)
(2.30937 0 0)
(2.30432 0 0)
(2.29921 0 0)
(2.29422 0 0)
(2.28917 0 0)
(2.28412 0 0)
(2.27909 0 0)
(2.27406 0 0)
(2.26903 0 0)
(2.26396 0 0)
(2.25894 0 0)
(2.2539 0 0)
(2.24885 0 0)
(2.24377 0 0)
(2.23871 0 0)
(2.23366 0 0)
(2.22859 0 0)
(2.22352 0 0)
(2.21844 0 0)
(2.21333 0 0)
(2.20831 0 0)
(2.20323 0 0)
(2.19805 0 0)
(2.19295 0 0)
(2.18787 0 0)
(2.18276 0 0)
(2.17764 0 0)
(2.17251 0 0)
(2.16738 0 0)
(2.16224 0 0)
(2.15709 0 0)
(2.15194 0 0)
(2.14678 0 0)
(2.14161 0 0)
(2.13644 0 0)
(2.13126 0 0)
(2.12607 0 0)
(2.12087 0 0)
(2.11566 0 0)
(2.11045 0 0)
(2.10522 0 0)
(2.09999 0 0)
(2.09475 0 0)
(2.08951 0 0)
(2.08425 0 0)
(2.07898 0 0)
(2.07371 0 0)
(2.06843 0 0)
(2.06313 0 0)
(2.05783 0 0)
(2.05252 0 0)
(2.0472 0 0)
(2.04187 0 0)
(2.03654 0 0)
(2.03119 0 0)
(2.02583 0 0)
(2.02047 0 0)
(2.01509 0 0)
(2.00971 0 0)
(2.00432 0 0)
(1.99892 0 0)
(1.99351 0 0)
(1.98809 0 0)
(1.98267 0 0)
(1.97723 0 0)
(1.97179 0 0)
(1.96634 0 0)
(1.96089 0 0)
(1.95542 0 0)
(1.94995 0 0)
(1.94447 0 0)
(1.93899 0 0)
(1.9335 0 0)
(1.928 0 0)
(1.9225 0 0)
(1.91699 0 0)
(1.91148 0 0)
(1.90597 0 0)
(1.90045 0 0)
(1.89493 0 0)
(1.88939 0 0)
(1.88388 0 0)
(1.87835 0 0)
(1.87281 0 0)
(1.86729 0 0)
(1.86176 0 0)
(1.85623 0 0)
(1.85069 0 0)
(1.84517 0 0)
(1.83966 0 0)
(1.83414 0 0)
(1.82862 0 0)
(1.82311 0 0)
(1.8176 0 0)
(1.81211 0 0)
(1.80662 0 0)
(1.80114 0 0)
(1.79566 0 0)
(1.79021 0 0)
(1.78475 0 0)
(1.7793 0 0)
(1.7739 0 0)
(1.76848 0 0)
(1.76307 0 0)
(1.75769 0 0)
(1.75233 0 0)
(1.74699 0 0)
(1.74166 0 0)
(1.73635 0 0)
(1.73107 0 0)
(1.72581 0 0)
(1.72056 0 0)
(1.71536 0 0)
(1.71016 0 0)
(1.70499 0 0)
(1.69988 0 0)
(1.69476 0 0)
(1.68962 0 0)
)
;

boundaryField
{
    boundary
    {
        type            empty;
    }
    inlet
    {
        type            fixedValue;
        value           uniform (2.34893 0 0);
    }
    outlet
    {
        type            zeroGradient;
    }
    procBoundary2to3
    {
        type            processor;
        value           uniform (1.68461 0 0);
    }
}


// ************************************************************************* //
