/*--------------------------------*- C++ -*----------------------------------*\
  =========                 |
  \\      /  F ield         | OpenFOAM: The Open Source CFD Toolbox
   \\    /   O peration     | Website:  https://openfoam.org
    \\  /    A nd           | Version:  7
     \\/     M anipulation  |
\*---------------------------------------------------------------------------*/
FoamFile
{
    version     2.0;
    format      ascii;
    class       surfaceScalarField;
    location    "0.00042";
    object      phi;
}
// * * * * * * * * * * * * * * * * * * * * * * * * * * * * * * * * * * * * * //

dimensions      [1 0 -1 0 0 0 0];

internalField   nonuniform List<scalar> 
123
(
7.21273e-06
7.21263e-06
7.21254e-06
7.21245e-06
7.21237e-06
7.21229e-06
7.21223e-06
7.21217e-06
7.21213e-06
7.2121e-06
7.21208e-06
7.21208e-06
7.21211e-06
7.21215e-06
7.21222e-06
7.21232e-06
7.21244e-06
7.21259e-06
7.21278e-06
7.21299e-06
7.21324e-06
7.21352e-06
7.21384e-06
7.21418e-06
7.21456e-06
7.21497e-06
7.21541e-06
7.21588e-06
7.21636e-06
7.21687e-06
7.21739e-06
7.21792e-06
7.21846e-06
7.21899e-06
7.21951e-06
7.22001e-06
7.22048e-06
7.22092e-06
7.2213e-06
7.22162e-06
7.22186e-06
7.22201e-06
7.22206e-06
7.22198e-06
7.22177e-06
7.2214e-06
7.22087e-06
7.22014e-06
7.21921e-06
7.21805e-06
7.21665e-06
7.215e-06
7.21307e-06
7.21084e-06
7.20832e-06
7.20548e-06
7.20231e-06
7.19881e-06
7.19496e-06
7.19077e-06
7.18622e-06
7.18133e-06
7.17609e-06
7.1705e-06
7.16459e-06
7.15836e-06
7.15182e-06
7.14499e-06
7.1379e-06
7.13056e-06
7.123e-06
7.11526e-06
7.10735e-06
7.0993e-06
7.09117e-06
7.08296e-06
7.07473e-06
7.0665e-06
7.05832e-06
7.05021e-06
7.04221e-06
7.03435e-06
7.02667e-06
7.0192e-06
7.01197e-06
7.00499e-06
6.99831e-06
6.99193e-06
6.98589e-06
6.98019e-06
6.97486e-06
6.96989e-06
6.96531e-06
6.96111e-06
6.95731e-06
6.95389e-06
6.95086e-06
6.94821e-06
6.94594e-06
6.94402e-06
6.94246e-06
6.94124e-06
6.94034e-06
6.93975e-06
6.93945e-06
6.93941e-06
6.93962e-06
6.94006e-06
6.94071e-06
6.94154e-06
6.94254e-06
6.94369e-06
6.94497e-06
6.94635e-06
6.94782e-06
6.94937e-06
6.95097e-06
6.95262e-06
6.9543e-06
6.956e-06
6.95771e-06
6.95943e-06
6.96115e-06
)
;

boundaryField
{
    boundary
    {
        type            empty;
        value           nonuniform 0();
    }
    inlet
    {
        type            calculated;
        value           nonuniform 0();
    }
    outlet
    {
        type            calculated;
        value           uniform 6.96288e-06;
    }
    procBoundary0to1
    {
        type            processor;
        value           uniform -7.21282e-06;
    }
}


// ************************************************************************* //
