/*--------------------------------*- C++ -*----------------------------------*\
  =========                 |
  \\      /  F ield         | OpenFOAM: The Open Source CFD Toolbox
   \\    /   O peration     | Website:  https://openfoam.org
    \\  /    A nd           | Version:  7
     \\/     M anipulation  |
\*---------------------------------------------------------------------------*/
FoamFile
{
    version     2.0;
    format      ascii;
    class       volScalarField;
    location    "0.00061";
    object      H;
}
// * * * * * * * * * * * * * * * * * * * * * * * * * * * * * * * * * * * * * //

dimensions      [0 0 0 0 0 0 0];

internalField   nonuniform List<scalar> 
125
(
1.4818e-41
2.00266e-41
2.11124e-41
2.13174e-41
2.13408e-41
2.13335e-41
2.13272e-41
2.13281e-41
2.13364e-41
2.13511e-41
2.1371e-41
2.13951e-41
2.14227e-41
2.14532e-41
2.14864e-41
2.15225e-41
2.15619e-41
2.16051e-41
2.16531e-41
2.17069e-41
2.17679e-41
2.18376e-41
2.19176e-41
2.20099e-41
2.21163e-41
2.22391e-41
2.23804e-41
2.25423e-41
2.27271e-41
2.29366e-41
2.31727e-41
2.34368e-41
2.37301e-41
2.40532e-41
2.44064e-41
2.47891e-41
2.52002e-41
2.56379e-41
2.60997e-41
2.65825e-41
2.70824e-41
2.75951e-41
2.81156e-41
2.86388e-41
2.91594e-41
2.96721e-41
3.01718e-41
3.06536e-41
3.11133e-41
3.15473e-41
3.19526e-41
3.23272e-41
3.26697e-41
3.29795e-41
3.3257e-41
3.35028e-41
3.37184e-41
3.39056e-41
3.40665e-41
3.42034e-41
3.43189e-41
3.44153e-41
3.4495e-41
3.45603e-41
3.46134e-41
3.46561e-41
3.46902e-41
3.47172e-41
3.47383e-41
3.47548e-41
3.47675e-41
3.47772e-41
3.47846e-41
3.47903e-41
3.47945e-41
3.47977e-41
3.48e-41
3.48018e-41
3.48032e-41
3.48042e-41
3.4805e-41
3.48056e-41
3.48062e-41
3.48066e-41
3.4807e-41
3.48074e-41
3.48077e-41
3.48081e-41
3.48084e-41
3.48088e-41
3.48092e-41
3.48095e-41
3.48099e-41
3.48103e-41
3.48108e-41
3.48112e-41
3.48117e-41
3.48122e-41
3.48127e-41
3.48133e-41
3.48138e-41
3.48144e-41
3.4815e-41
3.48157e-41
3.48163e-41
3.4817e-41
3.48178e-41
3.48185e-41
3.48193e-41
3.48201e-41
3.48209e-41
3.48218e-41
3.48227e-41
3.48237e-41
3.48246e-41
3.48257e-41
3.48267e-41
3.48278e-41
3.48289e-41
3.48301e-41
3.48313e-41
3.48327e-41
3.48345e-41
3.48375e-41
3.48436e-41
)
;

boundaryField
{
    boundary
    {
        type            empty;
    }
    inlet
    {
        type            fixedValue;
        value           uniform 0;
    }
    outlet
    {
        type            zeroGradient;
    }
    procBoundary2to3
    {
        type            processor;
        value           uniform 3.485e-41;
    }
}


// ************************************************************************* //
