/*--------------------------------*- C++ -*----------------------------------*\
  =========                 |
  \\      /  F ield         | OpenFOAM: The Open Source CFD Toolbox
   \\    /   O peration     | Website:  https://openfoam.org
    \\  /    A nd           | Version:  7
     \\/     M anipulation  |
\*---------------------------------------------------------------------------*/
FoamFile
{
    version     2.0;
    format      ascii;
    class       volScalarField;
    location    "0.00061";
    object      T;
}
// * * * * * * * * * * * * * * * * * * * * * * * * * * * * * * * * * * * * * //

dimensions      [0 0 0 1 0 0 0];

internalField   nonuniform List<scalar> 
125
(
299.993
299.985
299.977
299.971
299.967
299.964
299.963
299.963
299.964
299.966
299.969
299.973
299.977
299.982
299.987
299.992
299.998
300.004
300.011
300.019
300.028
300.038
300.05
300.063
300.079
300.097
300.117
300.14
300.166
300.195
300.228
300.264
300.304
300.348
300.394
300.444
300.497
300.552
300.61
300.669
300.729
300.789
300.849
300.909
300.967
301.023
301.077
301.128
301.176
301.221
301.262
301.299
301.333
301.364
301.391
301.415
301.435
301.453
301.469
301.481
301.492
301.501
301.509
301.515
301.52
301.524
301.527
301.529
301.531
301.533
301.534
301.535
301.536
301.536
301.537
301.537
301.537
301.537
301.537
301.537
301.538
301.538
301.538
301.538
301.538
301.538
301.538
301.538
301.538
301.538
301.538
301.538
301.538
301.538
301.538
301.538
301.538
301.538
301.538
301.538
301.538
301.538
301.538
301.539
301.539
301.539
301.539
301.539
301.539
301.539
301.539
301.539
301.539
301.539
301.539
301.539
301.54
301.54
301.54
301.54
301.54
301.54
301.54
301.541
301.541
)
;

boundaryField
{
    boundary
    {
        type            empty;
    }
    inlet
    {
        type            fixedValue;
        value           uniform 300;
    }
    outlet
    {
        type            zeroGradient;
    }
    procBoundary2to3
    {
        type            processor;
        value           uniform 301.542;
    }
}


// ************************************************************************* //
