/*--------------------------------*- C++ -*----------------------------------*\
  =========                 |
  \\      /  F ield         | OpenFOAM: The Open Source CFD Toolbox
   \\    /   O peration     | Website:  https://openfoam.org
    \\  /    A nd           | Version:  7
     \\/     M anipulation  |
\*---------------------------------------------------------------------------*/
FoamFile
{
    version     2.0;
    format      ascii;
    class       volScalarField;
    location    "0.00081";
    object      T;
}
// * * * * * * * * * * * * * * * * * * * * * * * * * * * * * * * * * * * * * //

dimensions      [0 0 0 1 0 0 0];

internalField   nonuniform List<scalar> 
124
(
2213.87
2215.56
2217.23
2218.88
2220.51
2222.12
2223.7
2225.27
2226.82
2228.34
2229.85
2231.34
2232.82
2234.27
2235.71
2237.13
2238.53
2239.92
2241.29
2242.64
2243.98
2245.31
2246.62
2247.91
2249.19
2250.46
2251.71
2252.95
2254.18
2255.39
2256.59
2257.78
2258.95
2260.12
2261.27
2262.4
2263.53
2264.64
2265.75
2266.84
2267.92
2268.99
2270.05
2271.1
2272.14
2273.17
2274.19
2275.2
2276.2
2277.2
2278.18
2279.15
2280.12
2281.07
2282.02
2282.96
2283.89
2284.81
2285.72
2286.63
2287.52
2288.41
2289.3
2290.17
2291.04
2291.9
2292.75
2293.59
2294.43
2295.26
2296.09
2296.9
2297.71
2298.52
2299.32
2300.11
2300.89
2301.67
2302.44
2303.2
2303.96
2304.71
2305.46
2306.2
2306.93
2307.66
2308.38
2309.09
2309.8
2310.51
2311.2
2311.9
2312.58
2313.26
2313.93
2314.6
2315.27
2315.92
2316.57
2317.22
2317.85
2318.49
2319.11
2319.73
2320.35
2320.95
2321.55
2322.14
2322.73
2323.3
2323.87
2324.43
2324.99
2325.53
2326.07
2326.59
2327.11
2327.61
2328.11
2328.6
2329.07
2329.51
2329.91
2330.16
)
;

boundaryField
{
    boundary
    {
        type            empty;
    }
    inlet
    {
        type            fixedValue;
        value           nonuniform 0();
    }
    outlet
    {
        type            zeroGradient;
    }
    procBoundary0to1
    {
        type            processor;
        value           uniform 2212.16;
    }
}


// ************************************************************************* //
