/*--------------------------------*- C++ -*----------------------------------*\
  =========                 |
  \\      /  F ield         | OpenFOAM: The Open Source CFD Toolbox
   \\    /   O peration     | Website:  https://openfoam.org
    \\  /    A nd           | Version:  7
     \\/     M anipulation  |
\*---------------------------------------------------------------------------*/
FoamFile
{
    version     2.0;
    format      ascii;
    class       volScalarField;
    location    "0.0005";
    object      H;
}
// * * * * * * * * * * * * * * * * * * * * * * * * * * * * * * * * * * * * * //

dimensions      [0 0 0 0 0 0 0];

internalField   nonuniform List<scalar> 
125
(
1.48696e-41
2.01628e-41
2.13285e-41
2.16045e-41
2.16885e-41
2.1731e-41
2.17651e-41
2.17981e-41
2.18321e-41
2.18681e-41
2.19071e-41
2.195e-41
2.19981e-41
2.20531e-41
2.21166e-41
2.21909e-41
2.22782e-41
2.23811e-41
2.25023e-41
2.26449e-41
2.28117e-41
2.30057e-41
2.32297e-41
2.34862e-41
2.37775e-41
2.41051e-41
2.44699e-41
2.4872e-41
2.53107e-41
2.57839e-41
2.62888e-41
2.68215e-41
2.73769e-41
2.79491e-41
2.85317e-41
2.91173e-41
2.96988e-41
3.02689e-41
3.08206e-41
3.13476e-41
3.18445e-41
3.2307e-41
3.27319e-41
3.31172e-41
3.3462e-41
3.37668e-41
3.40328e-41
3.42621e-41
3.44573e-41
3.46215e-41
3.4758e-41
3.48701e-41
3.49612e-41
3.50344e-41
3.50925e-41
3.51382e-41
3.51737e-41
3.5201e-41
3.52218e-41
3.52375e-41
3.52492e-41
3.52578e-41
3.52642e-41
3.52688e-41
3.52721e-41
3.52745e-41
3.52763e-41
3.52775e-41
3.52784e-41
3.5279e-41
3.52795e-41
3.52799e-41
3.52802e-41
3.52805e-41
3.52807e-41
3.52809e-41
3.52811e-41
3.52814e-41
3.52816e-41
3.52818e-41
3.52821e-41
3.52824e-41
3.52826e-41
3.52829e-41
3.52833e-41
3.52836e-41
3.52839e-41
3.52843e-41
3.52847e-41
3.52851e-41
3.52856e-41
3.5286e-41
3.52865e-41
3.5287e-41
3.52875e-41
3.52881e-41
3.52887e-41
3.52893e-41
3.52899e-41
3.52906e-41
3.52913e-41
3.5292e-41
3.52928e-41
3.52936e-41
3.52944e-41
3.52952e-41
3.52961e-41
3.5297e-41
3.5298e-41
3.5299e-41
3.53e-41
3.53011e-41
3.53022e-41
3.53033e-41
3.53045e-41
3.53057e-41
3.53069e-41
3.53082e-41
3.53095e-41
3.53109e-41
3.53123e-41
3.53136e-41
3.53149e-41
3.53156e-41
3.53155e-41
)
;

boundaryField
{
    boundary
    {
        type            empty;
    }
    inlet
    {
        type            fixedValue;
        value           uniform 0;
    }
    outlet
    {
        type            zeroGradient;
    }
    procBoundary2to3
    {
        type            processor;
        value           uniform 3.5315e-41;
    }
}


// ************************************************************************* //
