/*--------------------------------*- C++ -*----------------------------------*\
  =========                 |
  \\      /  F ield         | OpenFOAM: The Open Source CFD Toolbox
   \\    /   O peration     | Website:  https://openfoam.org
    \\  /    A nd           | Version:  7
     \\/     M anipulation  |
\*---------------------------------------------------------------------------*/
FoamFile
{
    version     2.0;
    format      ascii;
    class       volScalarField;
    location    "0.0005";
    object      O;
}
// * * * * * * * * * * * * * * * * * * * * * * * * * * * * * * * * * * * * * //

dimensions      [0 0 0 0 0 0 0];

internalField   nonuniform List<scalar> 
125
(
1.58114e-47
3.77576e-47
5.98648e-47
8.20218e-47
1.04207e-46
1.26422e-46
1.48673e-46
1.70971e-46
1.93332e-46
2.15777e-46
2.38335e-46
2.61043e-46
2.83946e-46
3.07103e-46
3.30579e-46
3.54456e-46
3.78823e-46
4.0378e-46
4.29435e-46
4.55901e-46
4.83288e-46
5.11706e-46
5.4125e-46
5.71995e-46
6.03994e-46
6.37262e-46
6.71778e-46
7.07473e-46
7.44229e-46
7.81878e-46
8.20203e-46
8.58942e-46
8.97796e-46
9.36434e-46
9.74512e-46
1.01168e-45
1.0476e-45
1.08195e-45
1.11445e-45
1.14487e-45
1.17302e-45
1.19878e-45
1.22208e-45
1.24292e-45
1.26134e-45
1.27744e-45
1.29134e-45
1.3032e-45
1.31322e-45
1.32158e-45
1.32847e-45
1.33409e-45
1.33862e-45
1.34224e-45
1.34509e-45
1.34732e-45
1.34904e-45
1.35035e-45
1.35134e-45
1.35209e-45
1.35264e-45
1.35304e-45
1.35334e-45
1.35355e-45
1.3537e-45
1.35381e-45
1.35389e-45
1.35394e-45
1.35398e-45
1.35401e-45
1.35403e-45
1.35404e-45
1.35406e-45
1.35407e-45
1.35408e-45
1.35409e-45
1.35409e-45
1.3541e-45
1.35411e-45
1.35412e-45
1.35413e-45
1.35415e-45
1.35416e-45
1.35417e-45
1.35418e-45
1.3542e-45
1.35421e-45
1.35423e-45
1.35425e-45
1.35427e-45
1.35429e-45
1.35431e-45
1.35433e-45
1.35435e-45
1.35437e-45
1.3544e-45
1.35443e-45
1.35445e-45
1.35448e-45
1.35451e-45
1.35454e-45
1.35458e-45
1.35461e-45
1.35465e-45
1.35468e-45
1.35472e-45
1.35476e-45
1.35481e-45
1.35485e-45
1.3549e-45
1.35494e-45
1.35499e-45
1.35504e-45
1.35509e-45
1.35515e-45
1.3552e-45
1.35526e-45
1.35532e-45
1.35538e-45
1.35544e-45
1.35549e-45
1.35549e-45
1.35536e-45
1.35482e-45
1.35305e-45
)
;

boundaryField
{
    boundary
    {
        type            empty;
    }
    inlet
    {
        type            fixedValue;
        value           uniform 0;
    }
    outlet
    {
        type            zeroGradient;
    }
    procBoundary2to3
    {
        type            processor;
        value           uniform 1.35048e-45;
    }
}


// ************************************************************************* //
