/*--------------------------------*- C++ -*----------------------------------*\
  =========                 |
  \\      /  F ield         | OpenFOAM: The Open Source CFD Toolbox
   \\    /   O peration     | Website:  https://openfoam.org
    \\  /    A nd           | Version:  7
     \\/     M anipulation  |
\*---------------------------------------------------------------------------*/
FoamFile
{
    version     2.0;
    format      ascii;
    class       volScalarField;
    location    "0.00019";
    object      p;
}
// * * * * * * * * * * * * * * * * * * * * * * * * * * * * * * * * * * * * * //

dimensions      [1 -1 -2 0 0 0 0];

internalField   nonuniform List<scalar> 
125
(
103080
103080
103080
103080
103080
103080
103080
103080
103080
103080
103080
103080
103080
103081
103081
103081
103081
103081
103081
103081
103081
103081
103081
103081
103081
103081
103081
103081
103080
103079
103077
103074
103072
103069
103067
103066
103064
103063
103062
103061
103061
103060
103060
103059
103059
103059
103058
103058
103058
103058
103057
103057
103057
103057
103057
103057
103056
103056
103056
103056
103056
103056
103056
103056
103056
103056
103055
103055
103055
103055
103055
103055
103055
103055
103055
103055
103055
103055
103055
103055
103055
103055
103055
103054
103054
103054
103054
103054
103054
103054
103054
103054
103054
103054
103054
103054
103054
103054
103054
103054
103054
103054
103054
103054
103054
103054
103054
103054
103054
103054
103054
103054
103054
103054
103054
103054
103054
103053
103053
103053
103053
103053
103053
103053
103053
)
;

boundaryField
{
    boundary
    {
        type            empty;
    }
    inlet
    {
        type            zeroGradient;
    }
    outlet
    {
        type            waveTransmissive;
        gamma           1.4;
        value           nonuniform 0();
    }
    procBoundary1to0
    {
        type            processor;
        value           uniform 103053;
    }
    procBoundary1to3
    {
        type            processor;
        value           uniform 103080;
    }
}


// ************************************************************************* //
