/*--------------------------------*- C++ -*----------------------------------*\
  =========                 |
  \\      /  F ield         | OpenFOAM: The Open Source CFD Toolbox
   \\    /   O peration     | Website:  https://openfoam.org
    \\  /    A nd           | Version:  7
     \\/     M anipulation  |
\*---------------------------------------------------------------------------*/
FoamFile
{
    version     2.0;
    format      ascii;
    class       volVectorField;
    location    "0.00019";
    object      U;
}
// * * * * * * * * * * * * * * * * * * * * * * * * * * * * * * * * * * * * * //

dimensions      [0 1 -1 0 0 0 0];

internalField   nonuniform List<vector> 
125
(
(2.31082 0 0)
(2.31066 0 0)
(2.3105 0 0)
(2.31035 0 0)
(2.31018 0 0)
(2.31002 0 0)
(2.30987 0 0)
(2.30971 0 0)
(2.30955 0 0)
(2.3094 0 0)
(2.30924 0 0)
(2.30909 0 0)
(2.30894 0 0)
(2.30878 0 0)
(2.30863 0 0)
(2.30848 0 0)
(2.30832 0 0)
(2.30817 0 0)
(2.30803 0 0)
(2.30789 0 0)
(2.3079 0 0)
(2.30822 0 0)
(2.30977 0 0)
(2.31506 0 0)
(2.33076 0 0)
(2.37227 0 0)
(2.47287 0 0)
(2.70442 0 0)
(3.19793 0 0)
(4.10319 0 0)
(5.29078 0 0)
(6.526 0 0)
(7.66361 0 0)
(8.6647 0 0)
(9.52193 0 0)
(10.2338 0 0)
(10.8115 0 0)
(11.2749 0 0)
(11.6488 0 0)
(11.9574 0 0)
(12.2186 0 0)
(12.4438 0 0)
(12.6409 0 0)
(12.8153 0 0)
(12.9714 0 0)
(13.1122 0 0)
(13.2401 0 0)
(13.3572 0 0)
(13.4648 0 0)
(13.5642 0 0)
(13.6565 0 0)
(13.7424 0 0)
(13.8228 0 0)
(13.8981 0 0)
(13.969 0 0)
(14.0357 0 0)
(14.0988 0 0)
(14.1585 0 0)
(14.2151 0 0)
(14.2688 0 0)
(14.3198 0 0)
(14.367 0 0)
(14.4111 0 0)
(14.4536 0 0)
(14.4946 0 0)
(14.5341 0 0)
(14.5722 0 0)
(14.6089 0 0)
(14.6444 0 0)
(14.6788 0 0)
(14.712 0 0)
(14.7441 0 0)
(14.7753 0 0)
(14.8056 0 0)
(14.835 0 0)
(14.8635 0 0)
(14.8913 0 0)
(14.9183 0 0)
(14.9446 0 0)
(14.9703 0 0)
(14.9953 0 0)
(15.0198 0 0)
(15.0437 0 0)
(15.0671 0 0)
(15.0901 0 0)
(15.1125 0 0)
(15.1345 0 0)
(15.1561 0 0)
(15.1773 0 0)
(15.1981 0 0)
(15.2185 0 0)
(15.2385 0 0)
(15.2582 0 0)
(15.2775 0 0)
(15.2963 0 0)
(15.3148 0 0)
(15.3329 0 0)
(15.3505 0 0)
(15.3677 0 0)
(15.3844 0 0)
(15.4007 0 0)
(15.4164 0 0)
(15.4315 0 0)
(15.4461 0 0)
(15.4601 0 0)
(15.4734 0 0)
(15.4861 0 0)
(15.4981 0 0)
(15.5094 0 0)
(15.5199 0 0)
(15.5298 0 0)
(15.5388 0 0)
(15.5472 0 0)
(15.5548 0 0)
(15.5616 0 0)
(15.5677 0 0)
(15.573 0 0)
(15.5777 0 0)
(15.5817 0 0)
(15.585 0 0)
(15.5877 0 0)
(15.5898 0 0)
(15.5913 0 0)
(15.5924 0 0)
(15.5932 0 0)
)
;

boundaryField
{
    boundary
    {
        type            empty;
    }
    inlet
    {
        type            fixedValue;
        value           nonuniform 0();
    }
    outlet
    {
        type            zeroGradient;
    }
    procBoundary1to0
    {
        type            processor;
        value           uniform (15.5934 0 0);
    }
    procBoundary1to3
    {
        type            processor;
        value           uniform (2.31098 0 0);
    }
}


// ************************************************************************* //
