/*--------------------------------*- C++ -*----------------------------------*\
  =========                 |
  \\      /  F ield         | OpenFOAM: The Open Source CFD Toolbox
   \\    /   O peration     | Website:  https://openfoam.org
    \\  /    A nd           | Version:  7
     \\/     M anipulation  |
\*---------------------------------------------------------------------------*/
FoamFile
{
    version     2.0;
    format      ascii;
    class       volScalarField;
    location    "0.00063";
    object      cellCpuTimes;
}
// * * * * * * * * * * * * * * * * * * * * * * * * * * * * * * * * * * * * * //

dimensions      [0 0 0 0 0 0 0];

internalField   nonuniform List<scalar> 
125
(
4.6e-05
4.5e-05
4.6e-05
5e-05
4.6e-05
4.5e-05
4.6e-05
4.6e-05
4.7e-05
4.7e-05
4.6e-05
4.7e-05
4.5e-05
4.7e-05
4.6e-05
4.6e-05
4.6e-05
4.6e-05
4.6e-05
5e-05
6.5e-05
7.2e-05
8.6e-05
0.00013
0.000138
0.000171
0.000162
0.000165
0.000166
0.000202
0.00025
0.000267
0.000293
0.000251
0.00024
0.000245
0.000222
0.000206
0.00021
0.000198
0.000174
0.000172
0.000163
0.000203
0.000155
0.000146
0.000146
0.000148
0.000147
0.000147
0.000143
0.000139
0.000138
0.000146
0.000145
0.000146
0.00014
0.000139
0.000136
0.000127
0.000128
0.000128
0.000127
0.000123
0.000124
0.000124
0.00013
0.000133
0.000127
0.000127
0.000127
0.000124
0.000122
0.000122
0.000122
0.000122
0.000122
0.000119
0.000127
0.000122
0.000122
0.000121
0.000123
0.000123
0.000123
0.000119
0.000119
0.000119
0.00012
0.000119
0.000129
0.000118
0.000117
0.000117
0.000117
0.000116
0.000114
0.000115
0.000113
0.000112
0.000113
0.000113
0.000112
0.000111
0.000113
0.000113
0.000112
0.000111
0.000113
0.000111
0.000114
0.000114
0.000114
0.000114
0.000112
0.000112
0.000112
0.000111
0.000112
0.000112
0.000112
0.000112
0.000112
0.000112
0.000112
)
;

boundaryField
{
    boundary
    {
        type            empty;
    }
    inlet
    {
        type            calculated;
        value           nonuniform 0();
    }
    outlet
    {
        type            calculated;
        value           nonuniform 0();
    }
    procBoundary1to0
    {
        type            processor;
        value           uniform 0;
    }
    procBoundary1to3
    {
        type            processor;
        value           uniform 0;
    }
}


// ************************************************************************* //
