/*--------------------------------*- C++ -*----------------------------------*\
  =========                 |
  \\      /  F ield         | OpenFOAM: The Open Source CFD Toolbox
   \\    /   O peration     | Website:  https://openfoam.org
    \\  /    A nd           | Version:  7
     \\/     M anipulation  |
\*---------------------------------------------------------------------------*/
FoamFile
{
    version     2.0;
    format      ascii;
    class       surfaceScalarField;
    location    "0.00063";
    object      phi;
}
// * * * * * * * * * * * * * * * * * * * * * * * * * * * * * * * * * * * * * //

dimensions      [1 0 -1 0 0 0 0];

internalField   nonuniform List<scalar> 
124
(
7.0091e-06
7.00959e-06
7.01008e-06
7.01057e-06
7.01106e-06
7.01156e-06
7.01205e-06
7.01255e-06
7.01305e-06
7.01354e-06
7.01404e-06
7.01454e-06
7.01503e-06
7.01553e-06
7.01603e-06
7.01653e-06
7.01703e-06
7.01753e-06
7.01806e-06
7.01865e-06
7.01943e-06
7.02074e-06
7.02359e-06
7.03066e-06
7.04797e-06
7.08226e-06
7.1266e-06
7.16371e-06
7.18848e-06
7.20481e-06
7.21621e-06
7.22443e-06
7.23035e-06
7.23463e-06
7.23775e-06
7.24008e-06
7.24189e-06
7.24336e-06
7.24457e-06
7.2456e-06
7.24649e-06
7.24727e-06
7.24797e-06
7.2486e-06
7.24917e-06
7.24969e-06
7.25017e-06
7.25061e-06
7.25102e-06
7.25141e-06
7.25177e-06
7.25211e-06
7.25243e-06
7.25274e-06
7.25302e-06
7.2533e-06
7.25356e-06
7.25381e-06
7.25405e-06
7.25428e-06
7.2545e-06
7.2547e-06
7.25489e-06
7.25508e-06
7.25526e-06
7.25543e-06
7.25561e-06
7.25577e-06
7.25594e-06
7.25609e-06
7.25625e-06
7.2564e-06
7.25655e-06
7.25669e-06
7.25683e-06
7.25697e-06
7.25711e-06
7.25724e-06
7.25738e-06
7.2575e-06
7.25763e-06
7.25776e-06
7.25788e-06
7.25801e-06
7.25813e-06
7.25825e-06
7.25837e-06
7.25849e-06
7.25861e-06
7.25872e-06
7.25884e-06
7.25896e-06
7.25907e-06
7.25919e-06
7.2593e-06
7.25942e-06
7.25953e-06
7.25964e-06
7.25976e-06
7.25987e-06
7.25998e-06
7.26009e-06
7.26021e-06
7.26032e-06
7.26043e-06
7.26054e-06
7.26065e-06
7.26076e-06
7.26087e-06
7.26098e-06
7.26109e-06
7.26119e-06
7.2613e-06
7.26141e-06
7.26151e-06
7.26161e-06
7.26171e-06
7.26181e-06
7.26191e-06
7.26201e-06
7.26211e-06
7.2622e-06
7.2623e-06
7.26239e-06
)
;

boundaryField
{
    boundary
    {
        type            empty;
        value           nonuniform 0();
    }
    inlet
    {
        type            calculated;
        value           nonuniform 0();
    }
    outlet
    {
        type            calculated;
        value           nonuniform 0();
    }
    procBoundary1to0
    {
        type            processor;
        value           uniform 7.26248e-06;
    }
    procBoundary1to3
    {
        type            processor;
        value           uniform -7.00861e-06;
    }
}


// ************************************************************************* //
