/*--------------------------------*- C++ -*----------------------------------*\
  =========                 |
  \\      /  F ield         | OpenFOAM: The Open Source CFD Toolbox
   \\    /   O peration     | Website:  https://openfoam.org
    \\  /    A nd           | Version:  7
     \\/     M anipulation  |
\*---------------------------------------------------------------------------*/
FoamFile
{
    version     2.0;
    format      ascii;
    class       volScalarField;
    location    "0.00034";
    object      H;
}
// * * * * * * * * * * * * * * * * * * * * * * * * * * * * * * * * * * * * * //

dimensions      [0 0 0 0 0 0 0];

internalField   nonuniform List<scalar> 
500
(
1.48742e-41
2.01735e-41
2.13463e-41
2.16338e-41
2.17362e-41
2.18064e-41
2.18799e-41
2.19675e-41
2.20749e-41
2.22071e-41
2.23694e-41
2.25671e-41
2.28053e-41
2.30891e-41
2.34228e-41
2.38094e-41
2.42509e-41
2.4747e-41
2.52956e-41
2.58921e-41
2.65298e-41
2.71997e-41
2.78907e-41
2.85907e-41
2.92865e-41
2.99653e-41
3.06149e-41
3.12246e-41
3.17859e-41
3.22928e-41
3.27418e-41
3.31321e-41
3.34651e-41
3.37441e-41
3.39736e-41
3.41591e-41
3.43066e-41
3.44218e-41
3.45104e-41
3.45774e-41
3.46274e-41
3.46641e-41
3.46906e-41
3.47095e-41
3.47228e-41
3.4732e-41
3.47384e-41
3.47427e-41
3.47455e-41
3.47475e-41
3.47487e-41
3.47496e-41
3.47502e-41
3.47506e-41
3.47509e-41
3.47511e-41
3.47513e-41
3.47515e-41
3.47517e-41
3.47518e-41
3.4752e-41
3.47522e-41
3.47524e-41
3.47526e-41
3.47528e-41
3.4753e-41
3.47533e-41
3.47535e-41
3.47538e-41
3.47541e-41
3.47544e-41
3.47547e-41
3.4755e-41
3.47554e-41
3.47558e-41
3.47562e-41
3.47566e-41
3.4757e-41
3.47575e-41
3.4758e-41
3.47585e-41
3.4759e-41
3.47595e-41
3.47601e-41
3.47607e-41
3.47613e-41
3.4762e-41
3.47627e-41
3.47634e-41
3.47641e-41
3.47649e-41
3.47657e-41
3.47666e-41
3.47674e-41
3.47683e-41
3.47693e-41
3.47702e-41
3.47712e-41
3.47723e-41
3.47734e-41
3.47745e-41
3.47756e-41
3.47768e-41
3.47781e-41
3.47793e-41
3.47806e-41
3.4782e-41
3.47834e-41
3.47848e-41
3.47863e-41
3.47878e-41
3.47893e-41
3.47909e-41
3.47925e-41
3.47942e-41
3.47959e-41
3.47977e-41
3.47995e-41
3.48013e-41
3.48032e-41
3.48051e-41
3.48071e-41
3.48091e-41
3.48111e-41
3.4813e-41
3.48149e-41
3.48172e-41
3.48193e-41
3.48215e-41
3.48237e-41
3.48259e-41
3.4828e-41
3.48302e-41
3.48324e-41
3.48346e-41
3.48367e-41
3.48389e-41
3.48411e-41
3.48433e-41
3.48455e-41
3.48477e-41
3.485e-41
3.48524e-41
3.48548e-41
3.48573e-41
3.48599e-41
3.48625e-41
3.48653e-41
3.4868e-41
3.48708e-41
3.48736e-41
3.48765e-41
3.48793e-41
3.4882e-41
3.48848e-41
3.48874e-41
3.489e-41
3.48925e-41
3.4895e-41
3.48973e-41
3.48995e-41
3.49017e-41
3.49037e-41
3.49056e-41
3.49074e-41
3.49091e-41
3.49107e-41
3.49121e-41
3.49134e-41
3.49146e-41
3.49156e-41
3.49165e-41
3.49172e-41
3.49177e-41
3.49181e-41
3.49182e-41
3.49182e-41
3.49179e-41
3.49174e-41
3.49167e-41
3.49157e-41
3.49145e-41
3.4913e-41
3.49113e-41
3.49092e-41
3.49068e-41
3.49041e-41
3.49011e-41
3.48978e-41
3.48941e-41
3.489e-41
3.48856e-41
3.48807e-41
3.48755e-41
3.48698e-41
3.48638e-41
3.48572e-41
3.48503e-41
3.48428e-41
3.48349e-41
3.48265e-41
3.48176e-41
3.48082e-41
3.47983e-41
3.47878e-41
3.47768e-41
3.47653e-41
3.47532e-41
3.47405e-41
3.47272e-41
3.47134e-41
3.4699e-41
3.4684e-41
3.46683e-41
3.46521e-41
3.46353e-41
3.46178e-41
3.45999e-41
3.45818e-41
3.45654e-41
3.45596e-41
3.46075e-41
3.49135e-41
3.6439e-41
4.36547e-41
7.71193e-41
2.30305e-40
9.23346e-40
4.02289e-39
1.7726e-38
7.76068e-38
3.3623e-37
1.44012e-36
6.09642e-36
2.5505e-35
1.05449e-34
4.30851e-34
1.73984e-33
6.94449e-33
2.74029e-32
1.06929e-31
4.12773e-31
1.57716e-30
5.96912e-30
2.23999e-29
8.34557e-29
3.0923e-28
1.14201e-27
4.215e-27
1.55985e-26
5.80966e-26
2.19489e-25
8.40082e-25
3.27563e-24
1.30485e-23
5.31651e-23
2.21474e-22
9.41678e-22
4.07614e-21
1.79111e-20
7.96831e-20
3.58144e-19
1.62412e-18
7.42823e-18
3.42917e-17
1.60125e-16
7.59189e-16
3.6762e-15
1.83288e-14
9.50831e-14
5.21715e-13
3.3037e-12
2.49247e-11
2.61964e-10
2.45342e-09
2.30442e-08
2.11552e-07
1.80084e-06
1.27949e-05
6.49745e-05
0.000206156
0.000443402
0.000758934
0.00111958
0.00146186
0.00171981
0.00186855
0.00192452
0.00191324
0.00186451
0.00179696
0.00172208
0.0016464
0.00157334
0.00150451
0.00144048
0.00138129
0.00132672
0.0012764
0.00122995
0.00118699
0.00114716
0.00111014
0.00107565
0.00104343
0.00101326
0.000984952
0.000958327
0.000933238
0.000909551
0.00088715
0.00086593
0.000846388
0.000828215
0.000810804
0.000794107
0.000778081
0.000762684
0.000747879
0.000733632
0.00071991
0.000706683
0.000693925
0.000681611
0.000669717
0.000658221
0.000647103
0.000636345
0.000625929
0.000615839
0.00060606
0.000596577
0.000587377
0.000578448
0.000569778
0.000561356
0.000553172
0.000545215
0.000537478
0.000529951
0.000522627
0.000515497
0.000508554
0.000501792
0.000495203
0.000488783
0.000482524
0.000476421
0.00047047
0.000464665
0.000459001
0.000453473
0.000448078
0.000442812
0.000437669
0.000432646
0.00042774
0.000422948
0.000418265
0.000413688
0.000409215
0.000404842
0.000400566
0.000396384
0.000392295
0.000388294
0.00038438
0.000380549
0.0003768
0.000373129
0.000369535
0.000366013
0.000362563
0.000359179
0.000355859
0.000352598
0.000349388
0.000346232
0.000343129
0.000340076
0.00033707
0.000334109
0.00033119
0.000328309
0.000325465
0.000322654
0.000319874
0.000317122
0.000314396
0.000311691
0.000309006
0.000306338
0.000303683
0.00030104
0.000298404
0.000295775
0.000293148
0.000290522
0.000287893
0.00028526
0.00028262
0.000279971
0.000277311
0.000274637
0.000271949
0.000269244
0.00026652
0.000263777
0.000261014
0.000258228
0.000255421
0.000252589
0.000249735
0.000246856
0.000243953
0.000241027
0.000238076
0.000235103
0.000232107
0.000229089
0.000226051
0.000222993
0.000219916
0.000216823
0.000213714
0.000210592
0.000207457
0.000204313
0.000201161
0.000198003
0.000194842
0.00019168
0.000188519
0.000185362
0.000182212
0.00017907
0.00017594
0.000172825
0.000169728
0.00016665
0.000163596
0.000160567
0.000157567
0.000154599
0.000151665
0.000148769
0.000145912
0.000143099
0.000140331
0.000137611
0.000134941
0.000132324
0.000129762
0.000127258
0.000124812
0.000122428
0.000120107
0.000117849
0.000115658
0.000113533
0.000111475
0.000109487
0.000107567
0.000105716
0.000103936
0.000102225
0.000100583
9.90112e-05
9.75077e-05
9.60721e-05
9.47036e-05
9.34012e-05
9.21638e-05
9.09901e-05
8.98786e-05
8.88278e-05
8.78362e-05
8.69019e-05
8.60233e-05
8.51983e-05
8.44252e-05
8.37019e-05
8.30266e-05
8.2397e-05
8.18114e-05
8.12675e-05
8.07635e-05
8.02975e-05
7.98675e-05
7.94718e-05
7.91086e-05
7.87766e-05
7.84745e-05
7.82015e-05
7.79574e-05
7.77426e-05
7.75588e-05
7.74092e-05
7.72994e-05
7.72383e-05
)
;

boundaryField
{
    boundary
    {
        type            empty;
    }
    inlet
    {
        type            fixedValue;
        value           uniform 0;
    }
    outlet
    {
        type            zeroGradient;
    }
}


// ************************************************************************* //
