/*--------------------------------*- C++ -*----------------------------------*\
  =========                 |
  \\      /  F ield         | OpenFOAM: The Open Source CFD Toolbox
   \\    /   O peration     | Website:  https://openfoam.org
    \\  /    A nd           | Version:  7
     \\/     M anipulation  |
\*---------------------------------------------------------------------------*/
FoamFile
{
    version     2.0;
    format      ascii;
    class       volScalarField;
    location    "0.00034";
    object      HO2;
}
// * * * * * * * * * * * * * * * * * * * * * * * * * * * * * * * * * * * * * //

dimensions      [0 0 0 0 0 0 0];

internalField   nonuniform List<scalar> 
500
(
5.60298e-38
1.27652e-37
1.99726e-37
2.72113e-37
3.44863e-37
4.18094e-37
4.91974e-37
5.66719e-37
6.42586e-37
7.19873e-37
7.98903e-37
8.80007e-37
9.63494e-37
1.04961e-36
1.13851e-36
1.23018e-36
1.32445e-36
1.42092e-36
1.51896e-36
1.61773e-36
1.7162e-36
1.81321e-36
1.90752e-36
1.99788e-36
2.08314e-36
2.16231e-36
2.2346e-36
2.2995e-36
2.35676e-36
2.4064e-36
2.44867e-36
2.48404e-36
2.51313e-36
2.53662e-36
2.55527e-36
2.56983e-36
2.58101e-36
2.58944e-36
2.5957e-36
2.60028e-36
2.60356e-36
2.60589e-36
2.60752e-36
2.60864e-36
2.60939e-36
2.6099e-36
2.61023e-36
2.61044e-36
2.61058e-36
2.61067e-36
2.61073e-36
2.61076e-36
2.61078e-36
2.6108e-36
2.61081e-36
2.61082e-36
2.61082e-36
2.61083e-36
2.61083e-36
2.61084e-36
2.61085e-36
2.61085e-36
2.61086e-36
2.61087e-36
2.61088e-36
2.61089e-36
2.6109e-36
2.61091e-36
2.61092e-36
2.61094e-36
2.61095e-36
2.61097e-36
2.61098e-36
2.611e-36
2.61102e-36
2.61104e-36
2.61106e-36
2.61109e-36
2.61111e-36
2.61114e-36
2.61117e-36
2.6112e-36
2.61123e-36
2.61126e-36
2.6113e-36
2.61133e-36
2.61137e-36
2.61141e-36
2.61145e-36
2.6115e-36
2.61154e-36
2.61159e-36
2.61164e-36
2.6117e-36
2.61175e-36
2.61181e-36
2.61187e-36
2.61193e-36
2.612e-36
2.61206e-36
2.61213e-36
2.6122e-36
2.61228e-36
2.61236e-36
2.61244e-36
2.61252e-36
2.61261e-36
2.61269e-36
2.61279e-36
2.61288e-36
2.61298e-36
2.61308e-36
2.61318e-36
2.61328e-36
2.61339e-36
2.6135e-36
2.61362e-36
2.61373e-36
2.61385e-36
2.61397e-36
2.6141e-36
2.61423e-36
2.61437e-36
2.61449e-36
2.61391e-36
2.6123e-36
2.61481e-36
2.61584e-36
2.616e-36
2.61563e-36
2.61492e-36
2.61397e-36
2.61284e-36
2.61161e-36
2.61036e-36
2.60918e-36
2.60814e-36
2.60732e-36
2.60675e-36
2.60646e-36
2.60644e-36
2.60666e-36
2.60711e-36
2.60775e-36
2.60853e-36
2.60943e-36
2.6104e-36
2.61141e-36
2.61243e-36
2.61343e-36
2.61439e-36
2.61529e-36
2.61612e-36
2.61686e-36
2.61753e-36
2.61811e-36
2.61861e-36
2.61904e-36
2.61941e-36
2.61973e-36
2.61999e-36
2.62022e-36
2.62042e-36
2.62059e-36
2.62074e-36
2.62087e-36
2.62098e-36
2.62108e-36
2.62117e-36
2.62124e-36
2.6213e-36
2.62135e-36
2.62139e-36
2.62142e-36
2.62143e-36
2.62143e-36
2.62141e-36
2.62138e-36
2.62134e-36
2.62127e-36
2.62119e-36
2.62109e-36
2.62097e-36
2.62084e-36
2.62068e-36
2.6205e-36
2.62029e-36
2.62007e-36
2.61982e-36
2.61954e-36
2.61924e-36
2.61891e-36
2.61855e-36
2.61817e-36
2.61775e-36
2.61731e-36
2.61683e-36
2.61632e-36
2.61578e-36
2.6152e-36
2.61459e-36
2.61394e-36
2.61326e-36
2.61254e-36
2.61178e-36
2.61098e-36
2.61014e-36
2.60926e-36
2.60834e-36
2.60738e-36
2.60638e-36
2.60533e-36
2.60424e-36
2.60311e-36
2.60193e-36
2.60071e-36
2.59945e-36
2.59814e-36
2.59679e-36
2.59539e-36
2.59397e-36
2.5926e-36
2.59162e-36
2.59278e-36
2.6044e-36
2.66623e-36
2.96603e-36
4.3828e-36
1.09958e-35
4.15857e-35
1.82014e-34
8.22588e-34
3.73024e-33
1.68867e-32
7.63527e-32
3.45479e-31
1.56809e-30
7.15688e-30
3.29167e-29
1.52804e-28
7.16468e-28
3.39239e-27
1.62013e-26
7.78912e-26
3.76065e-25
1.81857e-24
8.78504e-24
4.22884e-23
2.02376e-22
9.60891e-22
4.51803e-21
2.12619e-20
9.88574e-20
4.5491e-19
2.07435e-18
9.37588e-18
4.20228e-17
1.86864e-16
8.24889e-16
3.61722e-15
1.57672e-14
6.8363e-14
2.95015e-13
1.26786e-12
5.42909e-12
2.31739e-11
9.86389e-11
4.18793e-10
1.77398e-09
7.49826e-09
3.16256e-08
1.33007e-07
5.56775e-07
2.30238e-06
9.31009e-06
3.579e-05
0.00012274
0.000324322
0.000507682
0.00049753
0.00039777
0.000288139
0.00020267
0.000141893
9.91051e-05
6.961e-05
5.02503e-05
3.53751e-05
2.72424e-05
2.19889e-05
1.8498e-05
1.60907e-05
1.43589e-05
1.30585e-05
1.20428e-05
1.12217e-05
1.0539e-05
9.95826e-06
9.45533e-06
9.01352e-06
8.62097e-06
8.26899e-06
7.95099e-06
7.66188e-06
7.39764e-06
7.15501e-06
6.93133e-06
6.72441e-06
6.53238e-06
6.35372e-06
6.18713e-06
6.0316e-06
5.8906e-06
5.75975e-06
5.63574e-06
5.51803e-06
5.40616e-06
5.29969e-06
5.19824e-06
5.10147e-06
5.00905e-06
4.92069e-06
4.83615e-06
4.75518e-06
4.67755e-06
4.60308e-06
4.53156e-06
4.46284e-06
4.39676e-06
4.33316e-06
4.27192e-06
4.2129e-06
4.15599e-06
4.10107e-06
4.04805e-06
3.99683e-06
3.94732e-06
3.89943e-06
3.85308e-06
3.8082e-06
3.76471e-06
3.72255e-06
3.68165e-06
3.64194e-06
3.60337e-06
3.56588e-06
3.52941e-06
3.49392e-06
3.45935e-06
3.42564e-06
3.39276e-06
3.36066e-06
3.32929e-06
3.2986e-06
3.26856e-06
3.23912e-06
3.21024e-06
3.18188e-06
3.154e-06
3.12656e-06
3.09952e-06
3.07285e-06
3.0465e-06
3.02045e-06
2.99465e-06
2.96907e-06
2.94368e-06
2.91844e-06
2.89331e-06
2.86827e-06
2.84326e-06
2.81826e-06
2.7932e-06
2.768e-06
2.74246e-06
2.71607e-06
2.6897e-06
2.66526e-06
2.64035e-06
2.61505e-06
2.58946e-06
2.56361e-06
2.53752e-06
2.5112e-06
2.48467e-06
2.45794e-06
2.43101e-06
2.40389e-06
2.3766e-06
2.34916e-06
2.32157e-06
2.29388e-06
2.2661e-06
2.23826e-06
2.2104e-06
2.18255e-06
2.15476e-06
2.12706e-06
2.09951e-06
2.07215e-06
2.04503e-06
2.01821e-06
1.99174e-06
1.96568e-06
1.94009e-06
1.91502e-06
1.89053e-06
1.86667e-06
1.84352e-06
1.82111e-06
1.7995e-06
1.77874e-06
1.75889e-06
1.73997e-06
1.72204e-06
1.70513e-06
1.68927e-06
1.67448e-06
1.66078e-06
1.6482e-06
1.63673e-06
1.62637e-06
1.61713e-06
1.609e-06
1.60194e-06
1.59595e-06
1.591e-06
1.58703e-06
1.58403e-06
1.58193e-06
1.58069e-06
1.58026e-06
1.58057e-06
1.58158e-06
1.58321e-06
1.58541e-06
1.58811e-06
1.59125e-06
1.59477e-06
1.59861e-06
1.60271e-06
1.60702e-06
1.6115e-06
1.61608e-06
1.62073e-06
1.62542e-06
1.6301e-06
1.63475e-06
1.63935e-06
1.64387e-06
1.64829e-06
1.65261e-06
1.6568e-06
1.66088e-06
1.66482e-06
1.66863e-06
1.67232e-06
1.67587e-06
1.6793e-06
1.6826e-06
1.68579e-06
1.68886e-06
1.69182e-06
1.69468e-06
1.69744e-06
1.70011e-06
1.70268e-06
1.70517e-06
1.70757e-06
1.70988e-06
1.71212e-06
1.71427e-06
1.71635e-06
1.71835e-06
1.72028e-06
1.72212e-06
1.7239e-06
1.72559e-06
1.72721e-06
1.72876e-06
1.73023e-06
1.73163e-06
1.73296e-06
1.73422e-06
1.7354e-06
1.73652e-06
1.73757e-06
1.73855e-06
1.73947e-06
1.74033e-06
1.74112e-06
1.74187e-06
1.74255e-06
1.74318e-06
1.74376e-06
1.74429e-06
1.74477e-06
1.74518e-06
1.74552e-06
1.74575e-06
)
;

boundaryField
{
    boundary
    {
        type            empty;
    }
    inlet
    {
        type            fixedValue;
        value           uniform 0;
    }
    outlet
    {
        type            zeroGradient;
    }
}


// ************************************************************************* //
