/*--------------------------------*- C++ -*----------------------------------*\
  =========                 |
  \\      /  F ield         | OpenFOAM: The Open Source CFD Toolbox
   \\    /   O peration     | Website:  https://openfoam.org
    \\  /    A nd           | Version:  7
     \\/     M anipulation  |
\*---------------------------------------------------------------------------*/
FoamFile
{
    version     2.0;
    format      ascii;
    class       volScalarField;
    location    "0.00034";
    object      N2;
}
// * * * * * * * * * * * * * * * * * * * * * * * * * * * * * * * * * * * * * //

dimensions      [0 0 0 0 0 0 0];

internalField   nonuniform List<scalar> 
500
(
0.745219
0.745219
0.745219
0.745219
0.745219
0.745219
0.745219
0.745219
0.745219
0.745219
0.745219
0.745219
0.745219
0.745219
0.745219
0.745219
0.745219
0.745219
0.745219
0.745219
0.745219
0.745219
0.74522
0.74522
0.74522
0.74522
0.74522
0.74522
0.74522
0.74522
0.74522
0.74522
0.74522
0.74522
0.74522
0.74522
0.74522
0.74522
0.74522
0.74522
0.74522
0.74522
0.74522
0.74522
0.74522
0.74522
0.74522
0.74522
0.74522
0.74522
0.74522
0.74522
0.74522
0.74522
0.74522
0.74522
0.74522
0.74522
0.74522
0.74522
0.74522
0.74522
0.74522
0.74522
0.74522
0.74522
0.74522
0.74522
0.74522
0.74522
0.74522
0.74522
0.74522
0.74522
0.74522
0.74522
0.74522
0.74522
0.74522
0.74522
0.74522
0.74522
0.74522
0.74522
0.74522
0.74522
0.74522
0.74522
0.74522
0.74522
0.74522
0.74522
0.74522
0.74522
0.74522
0.74522
0.74522
0.74522
0.74522
0.74522
0.74522
0.74522
0.74522
0.74522
0.74522
0.74522
0.74522
0.74522
0.74522
0.74522
0.74522
0.74522
0.74522
0.74522
0.74522
0.74522
0.74522
0.74522
0.74522
0.74522
0.74522
0.74522
0.74522
0.74522
0.74522
0.74522
0.74522
0.74522
0.74522
0.74522
0.74522
0.74522
0.74522
0.74522
0.74522
0.74522
0.74522
0.74522
0.74522
0.74522
0.74522
0.74522
0.74522
0.74522
0.74522
0.74522
0.74522
0.74522
0.74522
0.74522
0.74522
0.74522
0.74522
0.74522
0.74522
0.74522
0.74522
0.74522
0.74522
0.74522
0.74522
0.74522
0.74522
0.74522
0.74522
0.74522
0.74522
0.74522
0.74522
0.74522
0.74522
0.74522
0.74522
0.74522
0.74522
0.74522
0.74522
0.74522
0.74522
0.74522
0.74522
0.74522
0.74522
0.74522
0.74522
0.74522
0.74522
0.74522
0.74522
0.74522
0.74522
0.74522
0.74522
0.74522
0.74522
0.74522
0.74522
0.74522
0.74522
0.74522
0.74522
0.74522
0.74522
0.74522
0.74522
0.74522
0.74522
0.74522
0.74522
0.74522
0.74522
0.74522
0.74522
0.74522
0.74522
0.74522
0.74522
0.74522
0.74522
0.74522
0.74522
0.74522
0.74522
0.74522
0.74522
0.74522
0.74522
0.74522
0.74522
0.74522
0.74522
0.74522
0.74522
0.74522
0.74522
0.74522
0.74522
0.74522
0.74522
0.74522
0.74522
0.74522
0.74522
0.74522
0.74522
0.74522
0.74522
0.74522
0.74522
0.74522
0.74522
0.74522
0.74522
0.74522
0.74522
0.74522
0.74522
0.74522
0.74522
0.74522
0.74522
0.74522
0.74522
0.74522
0.74522
0.74522
0.74522
0.74522
0.745221
0.745222
0.745225
0.745231
0.745243
0.745268
0.745315
0.745399
0.745522
0.745624
0.745551
0.745257
0.744822
0.744265
0.743774
0.743609
0.743803
0.744134
0.744307
0.744849
0.745033
0.745159
0.745239
0.745287
0.745315
0.745331
0.745339
0.745342
0.745343
0.745341
0.745339
0.745336
0.745333
0.74533
0.745327
0.745324
0.745321
0.745318
0.745315
0.745313
0.74531
0.745308
0.745305
0.745303
0.745301
0.745299
0.745297
0.745295
0.745294
0.745292
0.74529
0.745289
0.745287
0.745286
0.745284
0.745283
0.745281
0.74528
0.745278
0.745277
0.745275
0.745274
0.745272
0.745271
0.745269
0.745267
0.745265
0.745263
0.745261
0.745258
0.745256
0.745253
0.745251
0.745248
0.745245
0.745242
0.745238
0.745235
0.745231
0.745228
0.745224
0.74522
0.745216
0.745212
0.745207
0.745203
0.745199
0.745194
0.74519
0.745185
0.745181
0.745176
0.745172
0.745167
0.745163
0.745159
0.745155
0.745151
0.745147
0.745144
0.745141
0.745138
0.745135
0.745133
0.745132
0.745131
0.745131
0.745132
0.745138
0.745138
0.745139
0.74514
0.745143
0.745147
0.745153
0.74516
0.745167
0.745177
0.745187
0.745198
0.745211
0.745224
0.745239
0.745255
0.745272
0.745289
0.745308
0.745327
0.745347
0.745368
0.745389
0.74541
0.745432
0.745453
0.745475
0.745496
0.745517
0.745537
0.745556
0.745575
0.745592
0.745608
0.745622
0.745635
0.745646
0.745656
0.745663
0.745668
0.745671
0.745671
0.745669
0.745665
0.745659
0.74565
0.745639
0.745626
0.74561
0.745593
0.745573
0.745552
0.745529
0.745505
0.745479
0.745453
0.745425
0.745397
0.745368
0.745338
0.745309
0.74528
0.745251
0.745223
0.745195
0.745169
0.745143
0.745119
0.745096
0.745074
0.745054
0.745035
0.745018
0.745003
0.744989
0.744978
0.744968
0.74496
0.744953
0.744948
0.744945
0.744943
0.744943
0.744944
0.744946
0.74495
0.744955
0.74496
0.744967
0.744974
0.744981
0.74499
0.744999
0.745008
0.745017
0.745027
0.745036
0.745046
0.745056
0.745065
0.745075
0.745084
0.745093
0.745102
0.74511
0.745118
0.745126
0.745133
0.74514
0.745147
0.745153
0.745158
0.745164
0.745169
0.745174
0.745178
0.745182
0.745186
0.745189
0.745192
0.745194
0.745196
0.745198
0.745199
)
;

boundaryField
{
    boundary
    {
        type            empty;
    }
    inlet
    {
        type            fixedValue;
        value           uniform 0.74522;
    }
    outlet
    {
        type            zeroGradient;
    }
}


// ************************************************************************* //
