/*--------------------------------*- C++ -*----------------------------------*\
  =========                 |
  \\      /  F ield         | OpenFOAM: The Open Source CFD Toolbox
   \\    /   O peration     | Website:  https://openfoam.org
    \\  /    A nd           | Version:  7
     \\/     M anipulation  |
\*---------------------------------------------------------------------------*/
FoamFile
{
    version     2.0;
    format      ascii;
    class       volScalarField;
    location    "0.00034";
    object      O;
}
// * * * * * * * * * * * * * * * * * * * * * * * * * * * * * * * * * * * * * //

dimensions      [0 0 0 0 0 0 0];

internalField   nonuniform List<scalar> 
500
(
1.58228e-47
3.78161e-47
6.00225e-47
8.2361e-47
1.04851e-46
1.27544e-46
1.50513e-46
1.73848e-46
1.97656e-46
2.22055e-46
2.47175e-46
2.73144e-46
3.00086e-46
3.28102e-46
3.57262e-46
3.87588e-46
4.19042e-46
4.51519e-46
4.84837e-46
5.18743e-46
5.52912e-46
5.86966e-46
6.20489e-46
6.5305e-46
6.84229e-46
7.13641e-46
7.40956e-46
7.65921e-46
7.88369e-46
8.08219e-46
8.25482e-46
8.40245e-46
8.52659e-46
8.62926e-46
8.71276e-46
8.77956e-46
8.83215e-46
8.87288e-46
8.90393e-46
8.92723e-46
8.94446e-46
8.957e-46
8.96599e-46
8.97235e-46
8.97678e-46
8.97982e-46
8.98188e-46
8.98325e-46
8.98416e-46
8.98475e-46
8.98513e-46
8.98538e-46
8.98553e-46
8.98563e-46
8.9857e-46
8.98574e-46
8.98577e-46
8.9858e-46
8.98583e-46
8.98585e-46
8.98587e-46
8.9859e-46
8.98593e-46
8.98596e-46
8.986e-46
8.98604e-46
8.98608e-46
8.98613e-46
8.98618e-46
8.98624e-46
8.9863e-46
8.98636e-46
8.98643e-46
8.98651e-46
8.98659e-46
8.98668e-46
8.98677e-46
8.98687e-46
8.98698e-46
8.98709e-46
8.98721e-46
8.98734e-46
8.98747e-46
8.98762e-46
8.98777e-46
8.98793e-46
8.98809e-46
8.98827e-46
8.98845e-46
8.98865e-46
8.98885e-46
8.98906e-46
8.98928e-46
8.98951e-46
8.98975e-46
8.99001e-46
8.99027e-46
8.99054e-46
8.99083e-46
8.99112e-46
8.99143e-46
8.99175e-46
8.99208e-46
8.99242e-46
8.99277e-46
8.99313e-46
8.99351e-46
8.9939e-46
8.9943e-46
8.99472e-46
8.99514e-46
8.99558e-46
8.99604e-46
8.9965e-46
8.99698e-46
8.99747e-46
8.99797e-46
8.99848e-46
8.99901e-46
8.99955e-46
9.00009e-46
9.00062e-46
9.0011e-46
9.00143e-46
9.00126e-46
9.00055e-46
9.00119e-46
9.00182e-46
9.00241e-46
9.00293e-46
9.00339e-46
9.00377e-46
9.00405e-46
9.00423e-46
9.0043e-46
9.00428e-46
9.00415e-46
9.00396e-46
9.00372e-46
9.00347e-46
9.00326e-46
9.00315e-46
9.00318e-46
9.00339e-46
9.00383e-46
9.0045e-46
9.00543e-46
9.00659e-46
9.00796e-46
9.00951e-46
9.01119e-46
9.01294e-46
9.01473e-46
9.01649e-46
9.01821e-46
9.01984e-46
9.02136e-46
9.02276e-46
9.02403e-46
9.02519e-46
9.02622e-46
9.02714e-46
9.02796e-46
9.02869e-46
9.02934e-46
9.02991e-46
9.03041e-46
9.03086e-46
9.03124e-46
9.03157e-46
9.03184e-46
9.03205e-46
9.03221e-46
9.03231e-46
9.03235e-46
9.03233e-46
9.03224e-46
9.03209e-46
9.03186e-46
9.03155e-46
9.03117e-46
9.03071e-46
9.03016e-46
9.02952e-46
9.02879e-46
9.02796e-46
9.02703e-46
9.02599e-46
9.02485e-46
9.02359e-46
9.02222e-46
9.02073e-46
9.01911e-46
9.01736e-46
9.01548e-46
9.01346e-46
9.0113e-46
9.009e-46
9.00655e-46
9.00394e-46
9.00118e-46
8.99826e-46
8.99518e-46
8.99194e-46
8.98858e-46
8.98532e-46
8.98347e-46
8.9904e-46
9.04723e-46
9.38112e-46
1.12353e-45
2.1347e-45
7.58692e-45
3.66869e-44
1.90445e-43
9.94674e-43
5.15821e-42
2.64903e-41
1.34643e-40
6.77171e-40
3.36949e-39
1.65854e-38
8.07473e-38
3.88789e-37
1.85109e-36
8.71396e-36
4.05528e-35
1.86548e-34
8.48143e-34
3.8107e-33
1.69178e-32
7.42061e-32
3.21544e-31
1.37626e-30
5.81807e-30
2.42903e-29
1.00144e-28
4.07683e-28
1.63871e-27
6.5034e-27
2.54815e-26
9.85714e-26
3.76463e-25
1.41957e-24
5.28544e-24
1.94329e-23
7.05649e-23
2.53109e-22
8.96994e-22
3.14161e-21
1.08776e-20
3.72715e-20
1.26297e-19
4.2352e-19
1.40639e-18
4.62758e-18
1.50965e-17
4.88586e-17
1.56975e-16
5.00986e-16
1.58933e-15
5.01505e-15
1.57501e-14
4.92605e-14
1.53522e-13
4.77008e-13
1.47833e-12
4.57193e-12
1.41148e-11
4.35167e-11
1.34024e-10
4.12494e-10
1.2695e-09
3.91479e-09
1.21941e-08
3.95886e-08
1.47667e-07
7.47004e-07
5.07966e-06
3.1747e-05
0.000146129
0.000536563
0.00141894
0.00270999
0.00405472
0.00514098
0.00586836
0.00627684
0.00642907
0.00643876
0.00636272
0.006238
0.00608798
0.00592692
0.00576324
0.00560174
0.00544507
0.00529456
0.00515079
0.00501387
0.00488367
0.00475995
0.00464236
0.00453056
0.00442419
0.0043229
0.00422637
0.00413428
0.00404635
0.00396233
0.00388198
0.00380512
0.00373381
0.00366652
0.00360157
0.0035388
0.00347812
0.00341941
0.00336256
0.0033075
0.00325414
0.00320239
0.00315218
0.00310346
0.00305614
0.00301017
0.00296549
0.00292205
0.0028798
0.00283868
0.00279865
0.00275967
0.0027217
0.00268469
0.00264861
0.00261342
0.00257909
0.00254558
0.00251287
0.00248091
0.00244969
0.00241917
0.00238932
0.00236012
0.00233154
0.00230356
0.00227614
0.00224927
0.00222292
0.00219707
0.00217169
0.00214676
0.00212226
0.00209817
0.00207447
0.00205112
0.00202813
0.00200545
0.00198308
0.00196099
0.00193917
0.0019176
0.00189625
0.00187511
0.00185416
0.00183339
0.00181277
0.0017923
0.00177195
0.00175171
0.00173156
0.00171148
0.00169144
0.00167143
0.00165141
0.00163136
0.00161137
0.00159154
0.00157177
0.00155201
0.00153225
0.00151247
0.00149268
0.00147289
0.00145308
0.00143328
0.00141347
0.00139368
0.00137391
0.00135416
0.00133445
0.00131479
0.00129519
0.00127567
0.00125623
0.0012369
0.00121769
0.00119862
0.0011797
0.00116095
0.00114238
0.00112403
0.00110589
0.00108798
0.00107033
0.00105294
0.00103582
0.001019
0.00100248
0.000986264
0.000970366
0.000954791
0.000939543
0.000924626
0.00091004
0.000895787
0.000881864
0.000868268
0.000854995
0.000842041
0.000829397
0.000817058
0.000805015
0.000793258
0.000781778
0.000770566
0.00075961
0.000748902
0.000738429
0.000728183
0.000718153
0.00070833
0.000698703
0.000689265
0.000680008
0.000670923
0.000662004
0.000653245
0.00064464
0.000636186
0.000627878
0.000619713
0.000611688
0.000603804
0.000596057
0.000588449
0.000580979
0.000573648
0.000566457
0.000559409
0.000552505
0.000545746
0.000539137
0.000532678
0.000526373
0.000520225
0.000514236
0.000508408
0.000502743
0.000497244
0.000491913
0.000486752
0.000481761
0.000476942
0.000472295
0.00046782
0.000463518
0.000459389
0.000455431
0.000451643
0.000448023
0.000444571
0.000441283
0.000438157
0.00043519
0.000432378
0.000429719
0.000427209
0.000424843
0.000422617
0.000420526
0.000418567
0.000416734
0.000415023
0.000413428
0.000411945
0.000410569
0.000409294
0.000408116
0.00040703
0.000406033
0.00040512
0.000404287
0.000403533
0.000402856
0.000402256
0.000401737
0.000401307
0.00040098
0.000400784
)
;

boundaryField
{
    boundary
    {
        type            empty;
    }
    inlet
    {
        type            fixedValue;
        value           uniform 0;
    }
    outlet
    {
        type            zeroGradient;
    }
}


// ************************************************************************* //
