/*--------------------------------*- C++ -*----------------------------------*\
  =========                 |
  \\      /  F ield         | OpenFOAM: The Open Source CFD Toolbox
   \\    /   O peration     | Website:  https://openfoam.org
    \\  /    A nd           | Version:  7
     \\/     M anipulation  |
\*---------------------------------------------------------------------------*/
FoamFile
{
    version     2.0;
    format      ascii;
    class       volScalarField;
    location    "0.00034";
    object      O2;
}
// * * * * * * * * * * * * * * * * * * * * * * * * * * * * * * * * * * * * * //

dimensions      [0 0 0 0 0 0 0];

internalField   nonuniform List<scalar> 
500
(
0.226269
0.226269
0.226269
0.226269
0.226269
0.226269
0.226269
0.226269
0.226269
0.226269
0.226269
0.226269
0.226269
0.226269
0.226269
0.226269
0.226269
0.226269
0.226269
0.226269
0.226269
0.226269
0.226269
0.226269
0.226269
0.226269
0.226269
0.226269
0.226269
0.226269
0.226269
0.226269
0.226269
0.226269
0.226269
0.226269
0.226269
0.226269
0.226269
0.226269
0.226269
0.226269
0.226269
0.226269
0.226269
0.226269
0.226269
0.226269
0.226269
0.226269
0.226269
0.226269
0.226269
0.226269
0.226269
0.226269
0.226269
0.226269
0.226269
0.226269
0.226269
0.226269
0.226269
0.226269
0.226269
0.226269
0.226269
0.226269
0.226269
0.226269
0.226269
0.226269
0.226269
0.226269
0.226269
0.226269
0.226269
0.226269
0.226269
0.226269
0.226269
0.226269
0.226269
0.226269
0.226269
0.226269
0.226269
0.226269
0.226269
0.226269
0.226269
0.226269
0.226269
0.226269
0.226269
0.226269
0.226269
0.226269
0.226269
0.226269
0.226269
0.226269
0.226269
0.226269
0.226269
0.226269
0.226269
0.226269
0.226269
0.226269
0.226269
0.226269
0.226269
0.226269
0.226269
0.226269
0.226269
0.226269
0.226269
0.226269
0.226269
0.226269
0.226269
0.226269
0.226269
0.226269
0.226269
0.226269
0.226269
0.226269
0.226269
0.226269
0.226269
0.226269
0.226269
0.226269
0.226269
0.226269
0.226269
0.226269
0.226269
0.226269
0.226269
0.226269
0.226269
0.226269
0.226269
0.226269
0.226269
0.226269
0.226269
0.226269
0.226269
0.226269
0.226269
0.226269
0.226269
0.226269
0.226269
0.226269
0.226269
0.226269
0.226269
0.226269
0.226269
0.226269
0.226269
0.226269
0.226269
0.226269
0.226269
0.226269
0.226269
0.226269
0.226269
0.226269
0.226269
0.226269
0.226269
0.226269
0.226269
0.226269
0.226269
0.226269
0.226269
0.226269
0.226269
0.226269
0.226269
0.226269
0.226269
0.226269
0.226269
0.226269
0.226269
0.226269
0.226269
0.226269
0.226269
0.226269
0.226269
0.226269
0.226269
0.226269
0.226269
0.226269
0.226269
0.226269
0.226269
0.226269
0.226269
0.226269
0.226269
0.226269
0.226269
0.226269
0.226269
0.226269
0.226269
0.226269
0.226269
0.226269
0.226269
0.226269
0.226269
0.226269
0.226269
0.226269
0.226269
0.226269
0.226269
0.226269
0.226269
0.226269
0.226269
0.226269
0.226269
0.226269
0.226269
0.226269
0.226269
0.226269
0.226269
0.226269
0.226269
0.226269
0.226269
0.226269
0.226269
0.226269
0.226269
0.226269
0.226269
0.226269
0.226269
0.226269
0.226269
0.226269
0.226269
0.226269
0.226269
0.226269
0.226269
0.226269
0.226269
0.226269
0.226269
0.226269
0.226269
0.22627
0.226271
0.226272
0.226275
0.226278
0.226271
0.226206
0.225893
0.224739
0.221402
0.213881
0.20201
0.186872
0.167526
0.14352
0.117579
0.09422
0.0764573
0.0606729
0.0515586
0.0454051
0.0412155
0.0382935
0.0361823
0.0345919
0.033341
0.0323163
0.0314471
0.0306884
0.0300114
0.0293972
0.0288329
0.0283098
0.0278213
0.0273627
0.0269304
0.0265214
0.0261335
0.0257645
0.0254131
0.0250777
0.0247573
0.0244512
0.0241676
0.0238986
0.0236384
0.0233865
0.0231425
0.0229059
0.0226763
0.0224534
0.0222367
0.0220259
0.0218209
0.0216212
0.0214267
0.0212371
0.0210521
0.0208717
0.0206955
0.0205233
0.0203551
0.0201907
0.0200298
0.0198723
0.019718
0.0195669
0.0194188
0.0192736
0.019131
0.018991
0.0188534
0.0187181
0.018585
0.018454
0.0183248
0.0181974
0.0180717
0.0179474
0.0178245
0.0177029
0.0175823
0.0174627
0.0173438
0.0172257
0.017108
0.0169908
0.0168737
0.0167567
0.0166397
0.0165225
0.0164049
0.0162868
0.0161681
0.0160486
0.0159281
0.0158066
0.0156839
0.0155598
0.0154342
0.015307
0.0151781
0.0150471
0.0149139
0.0147781
0.0146388
0.014495
0.0143512
0.0142093
0.014066
0.0139202
0.0137719
0.0136211
0.0134679
0.0133124
0.0131549
0.0129954
0.0128342
0.0126712
0.0125068
0.0123411
0.0121742
0.0120064
0.011838
0.0116691
0.0114999
0.0113308
0.011162
0.0109938
0.0108265
0.0106603
0.0104955
0.0103324
0.0101713
0.0100124
0.00985599
0.00970234
0.00955168
0.00940422
0.00926018
0.00911974
0.00898308
0.00885035
0.00872169
0.00859721
0.00847701
0.00836118
0.00824976
0.00814279
0.00804031
0.00794232
0.0078488
0.00775973
0.00767508
0.00759479
0.0075188
0.00744705
0.00737944
0.0073159
0.00725632
0.00720062
0.00714868
0.00710039
0.00705566
0.00701437
0.0069764
0.00694165
0.00691001
0.00688137
0.00685561
0.00683263
0.00681233
0.0067946
0.00677934
0.00676645
0.00675583
0.00674739
0.00674102
0.00673664
0.00673414
0.00673345
0.00673445
0.00673706
0.00674119
0.00674674
0.00675362
0.00676173
0.00677098
0.00678127
0.0067925
0.00680457
0.0068174
0.00683088
0.00684491
0.00685941
0.00687428
0.00688942
0.00690476
0.0069202
0.00693566
0.00695107
0.00696636
0.00698144
0.00699628
0.0070108
0.00702495
0.0070387
0.007052
0.00706481
0.00707712
0.00708889
0.00710012
0.00711079
0.0071209
0.00713044
0.00713943
0.00714785
0.00715573
0.00716308
0.00716991
0.00717624
0.00718208
0.00718746
0.0071924
0.0071969
0.00720099
0.00720467
0.00720793
0.00721075
0.00721302
0.00721449
)
;

boundaryField
{
    boundary
    {
        type            empty;
    }
    inlet
    {
        type            fixedValue;
        value           uniform 0.226269;
    }
    outlet
    {
        type            zeroGradient;
    }
}


// ************************************************************************* //
