/*--------------------------------*- C++ -*----------------------------------*\
  =========                 |
  \\      /  F ield         | OpenFOAM: The Open Source CFD Toolbox
   \\    /   O peration     | Website:  https://openfoam.org
    \\  /    A nd           | Version:  7
     \\/     M anipulation  |
\*---------------------------------------------------------------------------*/
FoamFile
{
    version     2.0;
    format      ascii;
    class       surfaceScalarField;
    location    "0.00034";
    object      phi;
}
// * * * * * * * * * * * * * * * * * * * * * * * * * * * * * * * * * * * * * //

dimensions      [1 0 -1 0 0 0 0];

internalField   nonuniform List<scalar> 
499
(
6.93174e-06
6.93143e-06
6.93111e-06
6.93077e-06
6.93042e-06
6.93004e-06
6.92963e-06
6.92917e-06
6.92866e-06
6.92808e-06
6.9274e-06
6.92663e-06
6.92573e-06
6.92471e-06
6.92353e-06
6.92221e-06
6.92073e-06
6.91911e-06
6.91734e-06
6.91546e-06
6.91349e-06
6.91144e-06
6.90937e-06
6.9073e-06
6.90526e-06
6.9033e-06
6.90143e-06
6.89968e-06
6.89807e-06
6.89661e-06
6.8953e-06
6.89414e-06
6.89313e-06
6.89224e-06
6.89148e-06
6.89083e-06
6.89027e-06
6.88978e-06
6.88936e-06
6.889e-06
6.88867e-06
6.88838e-06
6.88811e-06
6.88786e-06
6.88762e-06
6.8874e-06
6.88718e-06
6.88696e-06
6.88675e-06
6.88655e-06
6.88634e-06
6.88613e-06
6.88593e-06
6.88572e-06
6.88552e-06
6.88532e-06
6.88511e-06
6.88491e-06
6.8847e-06
6.8845e-06
6.8843e-06
6.88409e-06
6.88389e-06
6.88368e-06
6.88348e-06
6.88328e-06
6.88307e-06
6.88287e-06
6.88266e-06
6.88246e-06
6.88225e-06
6.88205e-06
6.88184e-06
6.88164e-06
6.88144e-06
6.88123e-06
6.88102e-06
6.88082e-06
6.88061e-06
6.88041e-06
6.8802e-06
6.88e-06
6.87979e-06
6.87959e-06
6.87938e-06
6.87918e-06
6.87897e-06
6.87876e-06
6.87856e-06
6.87835e-06
6.87814e-06
6.87794e-06
6.87773e-06
6.87752e-06
6.87732e-06
6.87711e-06
6.8769e-06
6.8767e-06
6.87649e-06
6.87628e-06
6.87607e-06
6.87586e-06
6.87566e-06
6.87545e-06
6.87524e-06
6.87503e-06
6.87482e-06
6.87461e-06
6.8744e-06
6.8742e-06
6.87399e-06
6.87378e-06
6.87357e-06
6.87336e-06
6.87315e-06
6.87294e-06
6.87273e-06
6.87252e-06
6.87231e-06
6.8721e-06
6.87189e-06
6.87167e-06
6.87146e-06
6.87125e-06
6.87104e-06
6.87083e-06
6.87062e-06
6.87041e-06
6.87019e-06
6.86998e-06
6.86977e-06
6.86956e-06
6.86935e-06
6.86913e-06
6.86892e-06
6.86871e-06
6.8685e-06
6.86828e-06
6.86807e-06
6.86786e-06
6.86764e-06
6.86743e-06
6.86722e-06
6.867e-06
6.86679e-06
6.86657e-06
6.86636e-06
6.86615e-06
6.86593e-06
6.86572e-06
6.8655e-06
6.86529e-06
6.86507e-06
6.86485e-06
6.86464e-06
6.86442e-06
6.86421e-06
6.86399e-06
6.86378e-06
6.86356e-06
6.86335e-06
6.86313e-06
6.86292e-06
6.8627e-06
6.86249e-06
6.86227e-06
6.86206e-06
6.86185e-06
6.86163e-06
6.86142e-06
6.8612e-06
6.86099e-06
6.86078e-06
6.86057e-06
6.86035e-06
6.86014e-06
6.85993e-06
6.85972e-06
6.85951e-06
6.85929e-06
6.85908e-06
6.85887e-06
6.85866e-06
6.85845e-06
6.85825e-06
6.85804e-06
6.85783e-06
6.85762e-06
6.85742e-06
6.85721e-06
6.857e-06
6.8568e-06
6.85659e-06
6.85639e-06
6.85619e-06
6.85599e-06
6.85579e-06
6.85559e-06
6.85539e-06
6.85519e-06
6.85499e-06
6.85479e-06
6.8546e-06
6.8544e-06
6.85421e-06
6.85402e-06
6.85382e-06
6.85363e-06
6.85344e-06
6.85325e-06
6.85307e-06
6.85288e-06
6.85269e-06
6.85251e-06
6.85233e-06
6.85214e-06
6.85196e-06
6.85178e-06
6.85161e-06
6.85143e-06
6.85125e-06
6.85108e-06
6.8509e-06
6.85073e-06
6.85056e-06
6.85039e-06
6.85022e-06
6.85005e-06
6.84988e-06
6.84972e-06
6.84955e-06
6.84939e-06
6.84923e-06
6.84906e-06
6.8489e-06
6.84874e-06
6.84858e-06
6.84843e-06
6.84827e-06
6.84811e-06
6.84795e-06
6.8478e-06
6.84764e-06
6.84749e-06
6.84734e-06
6.84718e-06
6.84703e-06
6.84688e-06
6.84673e-06
6.84658e-06
6.84642e-06
6.84627e-06
6.84612e-06
6.84597e-06
6.84582e-06
6.84567e-06
6.84553e-06
6.84538e-06
6.84523e-06
6.84508e-06
6.84493e-06
6.84478e-06
6.84464e-06
6.84449e-06
6.84434e-06
6.8442e-06
6.84405e-06
6.84391e-06
6.84376e-06
6.84363e-06
6.84351e-06
6.84348e-06
6.84368e-06
6.8446e-06
6.84759e-06
6.85647e-06
6.88025e-06
6.93112e-06
7.00248e-06
7.06541e-06
7.10783e-06
7.13537e-06
7.15428e-06
7.16779e-06
7.17743e-06
7.18432e-06
7.18926e-06
7.19286e-06
7.19559e-06
7.19775e-06
7.1995e-06
7.20095e-06
7.20217e-06
7.20322e-06
7.20414e-06
7.20494e-06
7.20565e-06
7.20628e-06
7.20685e-06
7.20737e-06
7.20784e-06
7.20826e-06
7.20865e-06
7.20901e-06
7.20935e-06
7.20965e-06
7.20994e-06
7.2102e-06
7.21045e-06
7.21068e-06
7.2109e-06
7.2111e-06
7.21128e-06
7.21144e-06
7.21161e-06
7.21176e-06
7.2119e-06
7.21204e-06
7.21217e-06
7.21229e-06
7.2124e-06
7.21251e-06
7.21261e-06
7.21271e-06
7.2128e-06
7.21288e-06
7.21296e-06
7.21303e-06
7.2131e-06
7.21316e-06
7.21321e-06
7.21326e-06
7.2133e-06
7.21333e-06
7.21336e-06
7.21339e-06
7.2134e-06
7.21341e-06
7.21342e-06
7.21342e-06
7.21342e-06
7.21341e-06
7.21339e-06
7.21338e-06
7.21336e-06
7.21333e-06
7.21331e-06
7.21328e-06
7.21326e-06
7.21323e-06
7.21321e-06
7.2132e-06
7.21318e-06
7.21318e-06
7.21318e-06
7.21319e-06
7.21322e-06
7.21326e-06
7.21331e-06
7.21338e-06
7.21347e-06
7.21358e-06
7.21371e-06
7.21387e-06
7.21406e-06
7.21427e-06
7.21451e-06
7.21479e-06
7.2151e-06
7.21545e-06
7.21583e-06
7.21625e-06
7.2167e-06
7.21719e-06
7.21771e-06
7.21826e-06
7.21885e-06
7.21946e-06
7.22011e-06
7.22078e-06
7.22146e-06
7.22215e-06
7.22285e-06
7.22355e-06
7.22423e-06
7.22488e-06
7.2255e-06
7.22606e-06
7.22656e-06
7.22698e-06
7.22729e-06
7.22749e-06
7.22755e-06
7.22745e-06
7.22717e-06
7.2267e-06
7.22599e-06
7.22504e-06
7.22382e-06
7.22231e-06
7.22048e-06
7.21832e-06
7.2158e-06
7.21291e-06
7.20962e-06
7.20593e-06
7.20181e-06
7.19727e-06
7.19229e-06
7.18687e-06
7.181e-06
7.1747e-06
7.16797e-06
7.16081e-06
7.15325e-06
7.1453e-06
7.13698e-06
7.12832e-06
7.11935e-06
7.11009e-06
7.10058e-06
7.09087e-06
7.08098e-06
7.07097e-06
7.06087e-06
7.05072e-06
7.04057e-06
7.03047e-06
7.02045e-06
7.01056e-06
7.00085e-06
6.99134e-06
6.98209e-06
6.97312e-06
6.96447e-06
6.95617e-06
6.94825e-06
6.94072e-06
6.93362e-06
6.92695e-06
6.92074e-06
6.91498e-06
6.90969e-06
6.90487e-06
6.90052e-06
6.89664e-06
6.89321e-06
6.89023e-06
6.88769e-06
6.88557e-06
6.88385e-06
6.88252e-06
6.88155e-06
6.88093e-06
6.88062e-06
6.88062e-06
6.88088e-06
6.88139e-06
6.88212e-06
6.88305e-06
6.88416e-06
6.88541e-06
6.88679e-06
6.88828e-06
6.88985e-06
6.89149e-06
6.89317e-06
6.89489e-06
6.89662e-06
6.89836e-06
6.90008e-06
6.90177e-06
6.90344e-06
6.90506e-06
6.90664e-06
6.90815e-06
6.90961e-06
6.91101e-06
6.91233e-06
6.91359e-06
6.91478e-06
6.91589e-06
6.91693e-06
6.91791e-06
6.91881e-06
6.91965e-06
6.92042e-06
6.92112e-06
6.92177e-06
6.92235e-06
6.92288e-06
6.92336e-06
6.92379e-06
6.92417e-06
6.92451e-06
6.92482e-06
6.92508e-06
6.92532e-06
6.92554e-06
)
;

boundaryField
{
    boundary
    {
        type            empty;
        value           nonuniform 0();
    }
    inlet
    {
        type            calculated;
        value           uniform -6.93203e-06;
    }
    outlet
    {
        type            calculated;
        value           uniform 6.92574e-06;
    }
}


// ************************************************************************* //
