/*--------------------------------*- C++ -*----------------------------------*\
  =========                 |
  \\      /  F ield         | OpenFOAM: The Open Source CFD Toolbox
   \\    /   O peration     | Website:  https://openfoam.org
    \\  /    A nd           | Version:  7
     \\/     M anipulation  |
\*---------------------------------------------------------------------------*/
FoamFile
{
    version     2.0;
    format      ascii;
    class       volScalarField;
    location    "0.00034";
    object      Qdot;
}
// * * * * * * * * * * * * * * * * * * * * * * * * * * * * * * * * * * * * * //

dimensions      [1 -1 -3 0 0 0 0];

internalField   nonuniform List<scalar> 
500
(
-2.45439e-27
-1.86706e-27
-1.74273e-27
-1.71853e-27
-1.71635e-27
-1.71949e-27
-1.72456e-27
-1.73105e-27
-1.73912e-27
-1.74911e-27
-1.76139e-27
-1.77636e-27
-1.79444e-27
-1.81599e-27
-1.84134e-27
-1.87073e-27
-1.9043e-27
-1.94201e-27
-1.9837e-27
-2.02901e-27
-2.0774e-27
-2.12817e-27
-2.18047e-27
-2.23335e-27
-2.28581e-27
-2.33687e-27
-2.38559e-27
-2.43118e-27
-2.47301e-27
-2.51065e-27
-2.54385e-27
-2.57259e-27
-2.597e-27
-2.61735e-27
-2.63402e-27
-2.64742e-27
-2.65801e-27
-2.66625e-27
-2.67255e-27
-2.67729e-27
-2.6808e-27
-2.68337e-27
-2.68521e-27
-2.68652e-27
-2.68743e-27
-2.68806e-27
-2.68849e-27
-2.68878e-27
-2.68897e-27
-2.6891e-27
-2.68918e-27
-2.68924e-27
-2.68928e-27
-2.68931e-27
-2.68933e-27
-2.68934e-27
-2.68936e-27
-2.68937e-27
-2.68938e-27
-2.6894e-27
-2.68941e-27
-2.68942e-27
-2.68944e-27
-2.68945e-27
-2.68947e-27
-2.68948e-27
-2.6895e-27
-2.68952e-27
-2.68954e-27
-2.68956e-27
-2.68959e-27
-2.68961e-27
-2.68963e-27
-2.68966e-27
-2.68969e-27
-2.68972e-27
-2.68975e-27
-2.68978e-27
-2.68982e-27
-2.68985e-27
-2.68989e-27
-2.68993e-27
-2.68997e-27
-2.69001e-27
-2.69006e-27
-2.6901e-27
-2.69015e-27
-2.6902e-27
-2.69026e-27
-2.69031e-27
-2.69037e-27
-2.69043e-27
-2.69049e-27
-2.69056e-27
-2.69062e-27
-2.69069e-27
-2.69077e-27
-2.69084e-27
-2.69092e-27
-2.691e-27
-2.69108e-27
-2.69117e-27
-2.69126e-27
-2.69135e-27
-2.69144e-27
-2.69154e-27
-2.69164e-27
-2.69174e-27
-2.69185e-27
-2.69196e-27
-2.69207e-27
-2.69219e-27
-2.69231e-27
-2.69243e-27
-2.69255e-27
-2.69268e-27
-2.69281e-27
-2.69294e-27
-2.69308e-27
-2.69322e-27
-2.69336e-27
-2.69351e-27
-2.69366e-27
-2.69381e-27
-2.69397e-27
-2.69412e-27
-2.69427e-27
-2.69442e-27
-2.69458e-27
-2.69474e-27
-2.69491e-27
-2.69507e-27
-2.69523e-27
-2.69539e-27
-2.69555e-27
-2.69572e-27
-2.69588e-27
-2.69604e-27
-2.6962e-27
-2.69637e-27
-2.69653e-27
-2.6967e-27
-2.69688e-27
-2.69706e-27
-2.69725e-27
-2.69744e-27
-2.69763e-27
-2.69784e-27
-2.69804e-27
-2.69825e-27
-2.69846e-27
-2.69867e-27
-2.69888e-27
-2.69909e-27
-2.69929e-27
-2.69949e-27
-2.69968e-27
-2.69987e-27
-2.70005e-27
-2.70022e-27
-2.70039e-27
-2.70054e-27
-2.7007e-27
-2.70084e-27
-2.70097e-27
-2.7011e-27
-2.70121e-27
-2.70132e-27
-2.70142e-27
-2.7015e-27
-2.70158e-27
-2.70164e-27
-2.7017e-27
-2.70173e-27
-2.70176e-27
-2.70177e-27
-2.70177e-27
-2.70175e-27
-2.70171e-27
-2.70165e-27
-2.70158e-27
-2.70149e-27
-2.70138e-27
-2.70125e-27
-2.70109e-27
-2.70091e-27
-2.70071e-27
-2.70049e-27
-2.70024e-27
-2.69996e-27
-2.69966e-27
-2.69933e-27
-2.69897e-27
-2.69858e-27
-2.69815e-27
-2.6977e-27
-2.69721e-27
-2.69669e-27
-2.69614e-27
-2.69555e-27
-2.69492e-27
-2.69426e-27
-2.69356e-27
-2.69282e-27
-2.69204e-27
-2.69122e-27
-2.69036e-27
-2.68946e-27
-2.68851e-27
-2.68752e-27
-2.68649e-27
-2.68542e-27
-2.6843e-27
-2.68313e-27
-2.68192e-27
-2.68067e-27
-2.67936e-27
-2.67797e-27
-2.67635e-27
-2.67376e-27
-2.66658e-27
-2.63714e-27
-2.50027e-27
-1.84998e-27
1.22736e-27
1.56487e-26
8.24884e-26
3.88749e-25
1.77584e-24
7.9848e-24
3.54503e-23
1.55503e-22
6.73979e-22
2.88623e-21
1.22115e-20
5.10446e-20
2.10799e-19
8.60084e-19
3.46734e-18
1.38132e-17
5.43906e-17
2.11747e-16
8.15392e-16
3.10762e-15
1.17316e-14
4.39168e-14
1.63256e-13
6.03797e-13
2.22701e-12
8.21544e-12
3.0416e-11
1.13712e-10
4.29883e-10
1.65168e-09
6.47317e-09
2.59362e-08
1.06313e-07
4.45421e-07
1.90335e-06
8.27144e-06
3.64427e-05
0.000162324
0.000729217
0.00329806
0.015001
0.0685925
0.315417
1.4604
6.82295
32.4428
168.192
935.405
7518.4
57588.9
505466
4.75102e+06
4.51386e+07
3.89204e+08
2.3594e+09
7.50651e+09
1.23173e+10
1.37774e+10
1.39097e+10
1.39151e+10
1.34702e+10
1.22196e+10
1.03567e+10
8.38758e+09
6.81915e+09
5.6583e+09
4.77161e+09
4.09408e+09
3.56796e+09
3.1513e+09
2.81472e+09
2.53773e+09
2.30609e+09
2.10961e+09
1.9409e+09
1.79454e+09
1.66641e+09
1.55338e+09
1.45297e+09
1.36325e+09
1.28264e+09
1.20986e+09
1.14389e+09
1.08384e+09
1.02899e+09
9.78728e+08
9.32562e+08
8.90127e+08
8.5205e+08
8.17295e+08
7.84699e+08
7.54165e+08
7.25509e+08
6.98559e+08
6.7318e+08
6.49233e+08
6.26614e+08
6.05221e+08
5.84963e+08
5.65756e+08
5.47525e+08
5.30204e+08
5.1373e+08
4.98046e+08
4.831e+08
4.68845e+08
4.55237e+08
4.42235e+08
4.29803e+08
4.17907e+08
4.06516e+08
3.956e+08
3.85131e+08
3.75086e+08
3.6544e+08
3.56173e+08
3.47263e+08
3.38692e+08
3.30442e+08
3.22498e+08
3.14842e+08
3.07461e+08
3.00342e+08
2.9347e+08
2.86836e+08
2.80427e+08
2.74233e+08
2.68243e+08
2.62448e+08
2.56839e+08
2.51408e+08
2.46146e+08
2.41046e+08
2.36101e+08
2.31304e+08
2.26649e+08
2.22128e+08
2.17737e+08
2.13469e+08
2.0932e+08
2.05284e+08
2.01356e+08
1.97532e+08
1.93806e+08
1.90176e+08
1.86636e+08
1.83183e+08
1.79813e+08
1.76524e+08
1.73316e+08
1.702e+08
1.67249e+08
1.64172e+08
1.61107e+08
1.58156e+08
1.55283e+08
1.52469e+08
1.49706e+08
1.46987e+08
1.4431e+08
1.41671e+08
1.39067e+08
1.36497e+08
1.33956e+08
1.31444e+08
1.28957e+08
1.26494e+08
1.2405e+08
1.21627e+08
1.19221e+08
1.16831e+08
1.14456e+08
1.12094e+08
1.09743e+08
1.07404e+08
1.05074e+08
1.02754e+08
1.00444e+08
9.81428e+07
9.58504e+07
9.35672e+07
9.12934e+07
8.90292e+07
8.67758e+07
8.45334e+07
8.23031e+07
8.00856e+07
7.78821e+07
7.56936e+07
7.35213e+07
7.13663e+07
6.92298e+07
6.71129e+07
6.5017e+07
6.29432e+07
6.08927e+07
5.88666e+07
5.68661e+07
5.48922e+07
5.29461e+07
5.10288e+07
4.91413e+07
4.72847e+07
4.54599e+07
4.36679e+07
4.19098e+07
4.01864e+07
3.84988e+07
3.68477e+07
3.52342e+07
3.36591e+07
3.21232e+07
3.06273e+07
2.91721e+07
2.77584e+07
2.63867e+07
2.50575e+07
2.37712e+07
2.2528e+07
2.13283e+07
2.01719e+07
1.9059e+07
1.79891e+07
1.69621e+07
1.59775e+07
1.50348e+07
1.41331e+07
1.32719e+07
1.24502e+07
1.1667e+07
1.09214e+07
1.02123e+07
9.53854e+06
8.89895e+06
8.29235e+06
7.71782e+06
7.17353e+06
6.6587e+06
6.17211e+06
5.71257e+06
5.27893e+06
4.87004e+06
4.4848e+06
4.12216e+06
3.78106e+06
3.46052e+06
3.15958e+06
2.87729e+06
2.6126e+06
2.365e+06
2.13337e+06
1.91696e+06
1.71502e+06
1.52679e+06
1.35159e+06
1.18875e+06
1.03719e+06
896951
767034
646865
535866
433470
339126
252268
172257
99491.7
32572.7
-30659.5
-88245
-142218
-192839
-241119
-287747
-337050
-385228
-425302
)
;

boundaryField
{
    boundary
    {
        type            empty;
    }
    inlet
    {
        type            calculated;
        value           uniform 0;
    }
    outlet
    {
        type            calculated;
        value           uniform 0;
    }
}


// ************************************************************************* //
