/*--------------------------------*- C++ -*----------------------------------*\
  =========                 |
  \\      /  F ield         | OpenFOAM: The Open Source CFD Toolbox
   \\    /   O peration     | Website:  https://openfoam.org
    \\  /    A nd           | Version:  7
     \\/     M anipulation  |
\*---------------------------------------------------------------------------*/
FoamFile
{
    version     2.0;
    format      ascii;
    class       volScalarField;
    location    "0.00034";
    object      rho;
}
// * * * * * * * * * * * * * * * * * * * * * * * * * * * * * * * * * * * * * //

dimensions      [1 -3 0 0 0 0 0];

internalField   nonuniform List<scalar> 
500
(
0.864901
0.864887
0.864871
0.864853
0.864832
0.864807
0.864778
0.864741
0.864697
0.864642
0.864575
0.864494
0.864398
0.864284
0.864152
0.864001
0.863831
0.863644
0.863442
0.863227
0.863002
0.862771
0.862539
0.86231
0.862088
0.861876
0.861678
0.861496
0.861331
0.861185
0.861057
0.860948
0.860856
0.86078
0.860717
0.860667
0.860628
0.860597
0.860574
0.860556
0.860543
0.860533
0.860526
0.860521
0.860518
0.860515
0.860514
0.860512
0.860512
0.860511
0.860511
0.860511
0.86051
0.86051
0.86051
0.86051
0.86051
0.86051
0.86051
0.86051
0.86051
0.86051
0.86051
0.86051
0.86051
0.86051
0.86051
0.860509
0.860509
0.860509
0.860509
0.860509
0.860509
0.860509
0.860509
0.860509
0.860509
0.860508
0.860508
0.860508
0.860508
0.860508
0.860508
0.860508
0.860507
0.860507
0.860507
0.860507
0.860507
0.860506
0.860506
0.860506
0.860506
0.860506
0.860505
0.860505
0.860505
0.860504
0.860504
0.860504
0.860504
0.860503
0.860503
0.860503
0.860502
0.860502
0.860502
0.860501
0.860501
0.8605
0.8605
0.8605
0.860499
0.860499
0.860498
0.860498
0.860497
0.860497
0.860496
0.860496
0.860495
0.860495
0.860494
0.860494
0.860493
0.860493
0.860492
0.860491
0.860491
0.86049
0.86049
0.860489
0.860488
0.860488
0.860487
0.860487
0.860486
0.860485
0.860485
0.860484
0.860484
0.860483
0.860482
0.860482
0.860481
0.86048
0.86048
0.860479
0.860478
0.860477
0.860477
0.860476
0.860475
0.860474
0.860474
0.860473
0.860472
0.860472
0.860471
0.86047
0.86047
0.860469
0.860469
0.860468
0.860468
0.860467
0.860467
0.860466
0.860466
0.860466
0.860465
0.860465
0.860465
0.860465
0.860465
0.860465
0.860465
0.860465
0.860465
0.860465
0.860465
0.860465
0.860466
0.860466
0.860467
0.860467
0.860468
0.860469
0.86047
0.860471
0.860472
0.860473
0.860474
0.860475
0.860477
0.860479
0.86048
0.860482
0.860484
0.860486
0.860488
0.860491
0.860493
0.860496
0.860499
0.860501
0.860504
0.860508
0.860511
0.860514
0.860518
0.860522
0.860526
0.86053
0.860534
0.860539
0.860543
0.860548
0.860553
0.860558
0.860564
0.860569
0.860575
0.860581
0.860587
0.860593
0.860599
0.860605
0.860612
0.860619
0.860626
0.860633
0.86064
0.860647
0.860655
0.860662
0.86067
0.860678
0.860686
0.860694
0.860702
0.860711
0.860719
0.860727
0.860736
0.860745
0.860754
0.860762
0.860771
0.86078
0.860789
0.860799
0.860808
0.860817
0.860826
0.860836
0.860845
0.860855
0.860864
0.860874
0.860884
0.860893
0.860903
0.860913
0.860924
0.860934
0.860945
0.860956
0.860966
0.860969
0.860947
0.860841
0.860467
0.859274
0.855635
0.844937
0.815294
0.74458
0.622716
0.488955
0.387417
0.32108
0.276955
0.245988
0.223914
0.208516
0.197094
0.188198
0.18177
0.176994
0.173132
0.169946
0.16726
0.164956
0.16295
0.161183
0.15961
0.158199
0.156923
0.155762
0.1547
0.153724
0.152823
0.151987
0.15121
0.150485
0.149806
0.14917
0.148571
0.148007
0.147474
0.146972
0.14651
0.146078
0.145664
0.145267
0.144886
0.14452
0.144168
0.143829
0.143502
0.143187
0.142883
0.142589
0.142304
0.142029
0.141763
0.141504
0.141254
0.141011
0.140775
0.140545
0.140322
0.140105
0.139894
0.139689
0.139488
0.139293
0.139103
0.138917
0.138736
0.138559
0.138386
0.138217
0.138052
0.13789
0.137732
0.137578
0.137427
0.137279
0.137135
0.136993
0.136855
0.136719
0.136586
0.136456
0.136329
0.136205
0.136083
0.135964
0.135848
0.135734
0.135623
0.135514
0.135408
0.135304
0.135203
0.135104
0.135007
0.134913
0.134821
0.134732
0.134644
0.134559
0.134475
0.134393
0.134314
0.134238
0.134163
0.13409
0.134018
0.133948
0.133879
0.133811
0.133743
0.133677
0.13361
0.133544
0.133477
0.13341
0.133342
0.133272
0.133201
0.133128
0.133052
0.132974
0.132892
0.132807
0.132717
0.132624
0.132525
0.132421
0.132312
0.132197
0.132075
0.131948
0.131814
0.131674
0.131527
0.131373
0.131213
0.131047
0.130874
0.130696
0.130511
0.130322
0.130128
0.129929
0.129727
0.129521
0.129314
0.129104
0.128893
0.128682
0.128472
0.128262
0.128055
0.127851
0.127649
0.127452
0.12726
0.127074
0.126893
0.126719
0.126552
0.126393
0.126242
0.126099
0.125965
0.125839
0.125722
0.125615
0.125516
0.125426
0.125345
0.125273
0.125209
0.125154
0.125106
0.125066
0.125034
0.125008
0.124988
0.124975
0.124968
0.124965
0.124967
0.124974
0.124984
0.124998
0.125014
0.125034
0.125055
0.125078
0.125103
0.125128
0.125155
0.125182
0.125209
0.125237
0.125264
0.125291
0.125317
0.125343
0.125367
0.125391
0.125414
0.125437
0.125458
0.125478
0.125496
0.125514
0.125531
0.125546
0.125561
0.125574
0.125587
0.125598
0.125609
0.125619
0.125628
0.125636
0.125643
0.12565
0.125655
0.12566
0.125665
0.125668
0.125671
0.125673
)
;

boundaryField
{
    boundary
    {
        type            empty;
    }
    inlet
    {
        type            calculated;
        value           uniform 0.86491;
    }
    outlet
    {
        type            calculated;
        value           uniform 0.125673;
    }
}


// ************************************************************************* //
