/*--------------------------------*- C++ -*----------------------------------*\
  =========                 |
  \\      /  F ield         | OpenFOAM: The Open Source CFD Toolbox
   \\    /   O peration     | Website:  https://openfoam.org
    \\  /    A nd           | Version:  7
     \\/     M anipulation  |
\*---------------------------------------------------------------------------*/
FoamFile
{
    version     2.0;
    format      ascii;
    class       volScalarField;
    location    "0.00034";
    object      T;
}
// * * * * * * * * * * * * * * * * * * * * * * * * * * * * * * * * * * * * * //

dimensions      [0 0 0 1 0 0 0];

internalField   nonuniform List<scalar> 
500
(
300.003
300.008
300.013
300.02
300.027
300.036
300.046
300.059
300.074
300.093
300.116
300.144
300.178
300.217
300.263
300.316
300.375
300.44
300.51
300.585
300.663
300.744
300.824
300.904
300.982
301.056
301.125
301.189
301.247
301.298
301.342
301.381
301.413
301.44
301.461
301.479
301.493
301.503
301.512
301.518
301.523
301.526
301.528
301.53
301.531
301.532
301.533
301.533
301.533
301.534
301.534
301.534
301.534
301.534
301.534
301.534
301.534
301.534
301.534
301.534
301.534
301.534
301.534
301.534
301.534
301.534
301.534
301.534
301.534
301.534
301.534
301.534
301.534
301.534
301.534
301.534
301.534
301.534
301.534
301.535
301.535
301.535
301.535
301.535
301.535
301.535
301.535
301.535
301.535
301.535
301.535
301.535
301.535
301.535
301.535
301.536
301.536
301.536
301.536
301.536
301.536
301.536
301.536
301.536
301.537
301.537
301.537
301.537
301.537
301.537
301.537
301.537
301.538
301.538
301.538
301.538
301.538
301.538
301.539
301.539
301.539
301.539
301.539
301.539
301.54
301.54
301.54
301.54
301.54
301.541
301.541
301.541
301.541
301.541
301.542
301.542
301.542
301.542
301.542
301.543
301.543
301.543
301.543
301.544
301.544
301.544
301.544
301.544
301.545
301.545
301.545
301.546
301.546
301.546
301.546
301.547
301.547
301.547
301.547
301.547
301.548
301.548
301.548
301.548
301.548
301.549
301.549
301.549
301.549
301.549
301.549
301.549
301.549
301.549
301.549
301.549
301.549
301.549
301.549
301.549
301.549
301.549
301.549
301.549
301.549
301.548
301.548
301.548
301.548
301.547
301.547
301.546
301.546
301.545
301.545
301.544
301.544
301.543
301.542
301.542
301.541
301.54
301.539
301.538
301.537
301.536
301.535
301.534
301.533
301.532
301.53
301.529
301.528
301.526
301.525
301.523
301.522
301.52
301.518
301.516
301.514
301.512
301.511
301.508
301.506
301.504
301.502
301.5
301.497
301.495
301.493
301.49
301.488
301.485
301.482
301.48
301.477
301.474
301.471
301.469
301.466
301.463
301.46
301.457
301.454
301.451
301.448
301.445
301.441
301.438
301.435
301.432
301.429
301.425
301.422
301.419
301.416
301.412
301.409
301.405
301.402
301.399
301.395
301.392
301.388
301.385
301.382
301.379
301.378
301.382
301.402
301.463
301.644
302.167
303.668
307.959
320.068
352.296
424.728
546.794
698.441
852.969
999.964
1136.39
1257.22
1356.93
1441.17
1512.83
1569.98
1615.65
1654.76
1688.65
1718.44
1744.96
1768.79
1790.39
1810.12
1828.23
1844.96
1860.47
1874.92
1888.42
1901.08
1912.98
1924.19
1934.79
1944.83
1954.35
1963.39
1972
1980.21
1988.02
1995.27
2002.09
2008.68
2015.04
2021.18
2027.13
2032.88
2038.46
2043.86
2049.11
2054.2
2059.14
2063.95
2068.62
2073.17
2077.6
2081.91
2086.12
2090.22
2094.22
2098.12
2101.93
2105.66
2109.29
2112.85
2116.33
2119.73
2123.06
2126.32
2129.51
2132.64
2135.7
2138.69
2141.63
2144.51
2147.33
2150.09
2152.8
2155.45
2158.05
2160.59
2163.09
2165.53
2167.92
2170.27
2172.56
2174.8
2176.99
2179.13
2181.23
2183.27
2185.27
2187.21
2189.11
2190.96
2192.76
2194.51
2196.21
2197.86
2199.47
2201.03
2202.55
2204.03
2205.46
2206.84
2208.18
2209.48
2210.74
2211.96
2213.16
2214.32
2215.46
2216.58
2217.68
2218.76
2219.84
2220.92
2222
2223.1
2224.21
2225.34
2226.51
2227.72
2228.97
2230.28
2231.65
2233.09
2234.62
2236.22
2237.93
2239.73
2241.64
2243.66
2245.8
2248.07
2250.46
2252.98
2255.64
2258.42
2261.34
2264.38
2267.56
2270.86
2274.28
2277.8
2281.44
2285.17
2288.99
2292.89
2296.85
2300.86
2304.92
2309
2313.1
2317.2
2321.28
2325.34
2329.35
2333.31
2337.21
2341.02
2344.75
2348.37
2351.88
2355.27
2358.53
2361.65
2364.63
2367.46
2370.15
2372.68
2375.06
2377.28
2379.35
2381.27
2383.04
2384.67
2386.15
2387.5
2388.72
2389.81
2390.79
2391.65
2392.41
2393.08
2393.65
2394.14
2394.56
2394.9
2395.18
2395.41
2395.59
2395.72
2395.82
2395.88
2395.92
2395.93
2395.92
2395.89
2395.85
2395.81
2395.75
2395.69
2395.62
2395.56
2395.49
2395.42
2395.36
2395.29
2395.23
2395.18
2395.13
2395.08
2395.03
2394.99
2394.96
2394.92
2394.89
2394.87
2394.85
2394.83
2394.81
2394.8
2394.79
2394.78
2394.77
2394.76
2394.76
)
;

boundaryField
{
    boundary
    {
        type            empty;
    }
    inlet
    {
        type            fixedValue;
        value           uniform 300;
    }
    outlet
    {
        type            zeroGradient;
    }
}


// ************************************************************************* //
