/*--------------------------------*- C++ -*----------------------------------*\
  =========                 |
  \\      /  F ield         | OpenFOAM: The Open Source CFD Toolbox
   \\    /   O peration     | Website:  https://openfoam.org
    \\  /    A nd           | Version:  7
     \\/     M anipulation  |
\*---------------------------------------------------------------------------*/
FoamFile
{
    version     2.0;
    format      ascii;
    class       volVectorField;
    location    "0.00034";
    object      U;
}
// * * * * * * * * * * * * * * * * * * * * * * * * * * * * * * * * * * * * * //

dimensions      [0 1 -1 0 0 0 0];

internalField   nonuniform List<vector> 
500
(
(2.34892 0 0)
(2.34886 0 0)
(2.34879 0 0)
(2.34872 0 0)
(2.34866 0 0)
(2.3486 0 0)
(2.34855 0 0)
(2.34851 0 0)
(2.34846 0 0)
(2.34843 0 0)
(2.3484 0 0)
(2.34837 0 0)
(2.34835 0 0)
(2.34834 0 0)
(2.34832 0 0)
(2.34831 0 0)
(2.3483 0 0)
(2.34828 0 0)
(2.34825 0 0)
(2.34822 0 0)
(2.34817 0 0)
(2.34811 0 0)
(2.34804 0 0)
(2.34796 0 0)
(2.34786 0 0)
(2.34776 0 0)
(2.34765 0 0)
(2.34753 0 0)
(2.3474 0 0)
(2.34728 0 0)
(2.34715 0 0)
(2.34703 0 0)
(2.34691 0 0)
(2.3468 0 0)
(2.34669 0 0)
(2.34658 0 0)
(2.34649 0 0)
(2.34639 0 0)
(2.34631 0 0)
(2.34622 0 0)
(2.34614 0 0)
(2.34606 0 0)
(2.34599 0 0)
(2.34591 0 0)
(2.34584 0 0)
(2.34577 0 0)
(2.3457 0 0)
(2.34562 0 0)
(2.34555 0 0)
(2.34548 0 0)
(2.34541 0 0)
(2.34535 0 0)
(2.34528 0 0)
(2.34521 0 0)
(2.34514 0 0)
(2.34507 0 0)
(2.345 0 0)
(2.34493 0 0)
(2.34486 0 0)
(2.34479 0 0)
(2.34472 0 0)
(2.34465 0 0)
(2.34458 0 0)
(2.34451 0 0)
(2.34444 0 0)
(2.34437 0 0)
(2.34431 0 0)
(2.34424 0 0)
(2.34417 0 0)
(2.3441 0 0)
(2.34403 0 0)
(2.34396 0 0)
(2.34389 0 0)
(2.34382 0 0)
(2.34375 0 0)
(2.34368 0 0)
(2.34361 0 0)
(2.34354 0 0)
(2.34347 0 0)
(2.3434 0 0)
(2.34333 0 0)
(2.34326 0 0)
(2.34319 0 0)
(2.34312 0 0)
(2.34305 0 0)
(2.34298 0 0)
(2.34292 0 0)
(2.34285 0 0)
(2.34278 0 0)
(2.34271 0 0)
(2.34264 0 0)
(2.34257 0 0)
(2.3425 0 0)
(2.34243 0 0)
(2.34236 0 0)
(2.34229 0 0)
(2.34222 0 0)
(2.34215 0 0)
(2.34208 0 0)
(2.34201 0 0)
(2.34194 0 0)
(2.34187 0 0)
(2.3418 0 0)
(2.34173 0 0)
(2.34166 0 0)
(2.34159 0 0)
(2.34152 0 0)
(2.34145 0 0)
(2.34138 0 0)
(2.34131 0 0)
(2.34124 0 0)
(2.34117 0 0)
(2.3411 0 0)
(2.34103 0 0)
(2.34096 0 0)
(2.34089 0 0)
(2.34082 0 0)
(2.34075 0 0)
(2.34068 0 0)
(2.34061 0 0)
(2.34054 0 0)
(2.34046 0 0)
(2.34039 0 0)
(2.34032 0 0)
(2.34025 0 0)
(2.34018 0 0)
(2.34011 0 0)
(2.34004 0 0)
(2.33997 0 0)
(2.3399 0 0)
(2.33983 0 0)
(2.33976 0 0)
(2.33969 0 0)
(2.33962 0 0)
(2.33955 0 0)
(2.33948 0 0)
(2.33941 0 0)
(2.33934 0 0)
(2.33926 0 0)
(2.33919 0 0)
(2.33912 0 0)
(2.33905 0 0)
(2.33898 0 0)
(2.33891 0 0)
(2.33884 0 0)
(2.33877 0 0)
(2.3387 0 0)
(2.33863 0 0)
(2.33855 0 0)
(2.33848 0 0)
(2.33841 0 0)
(2.33834 0 0)
(2.33827 0 0)
(2.3382 0 0)
(2.33813 0 0)
(2.33806 0 0)
(2.33798 0 0)
(2.33791 0 0)
(2.33784 0 0)
(2.33777 0 0)
(2.3377 0 0)
(2.33763 0 0)
(2.33755 0 0)
(2.33748 0 0)
(2.33741 0 0)
(2.33734 0 0)
(2.33727 0 0)
(2.3372 0 0)
(2.33712 0 0)
(2.33705 0 0)
(2.33698 0 0)
(2.33691 0 0)
(2.33684 0 0)
(2.33676 0 0)
(2.33669 0 0)
(2.33662 0 0)
(2.33655 0 0)
(2.33647 0 0)
(2.3364 0 0)
(2.33633 0 0)
(2.33626 0 0)
(2.33618 0 0)
(2.33611 0 0)
(2.33604 0 0)
(2.33597 0 0)
(2.33589 0 0)
(2.33582 0 0)
(2.33575 0 0)
(2.33568 0 0)
(2.3356 0 0)
(2.33553 0 0)
(2.33546 0 0)
(2.33538 0 0)
(2.33531 0 0)
(2.33524 0 0)
(2.33516 0 0)
(2.33509 0 0)
(2.33502 0 0)
(2.33494 0 0)
(2.33487 0 0)
(2.3348 0 0)
(2.33472 0 0)
(2.33465 0 0)
(2.33458 0 0)
(2.3345 0 0)
(2.33443 0 0)
(2.33436 0 0)
(2.33428 0 0)
(2.33421 0 0)
(2.33413 0 0)
(2.33406 0 0)
(2.33399 0 0)
(2.33391 0 0)
(2.33384 0 0)
(2.33376 0 0)
(2.33369 0 0)
(2.33361 0 0)
(2.33354 0 0)
(2.33347 0 0)
(2.33339 0 0)
(2.33332 0 0)
(2.33324 0 0)
(2.33317 0 0)
(2.33309 0 0)
(2.33302 0 0)
(2.33294 0 0)
(2.33287 0 0)
(2.33279 0 0)
(2.33272 0 0)
(2.33264 0 0)
(2.33257 0 0)
(2.33249 0 0)
(2.33242 0 0)
(2.33234 0 0)
(2.33227 0 0)
(2.33219 0 0)
(2.33212 0 0)
(2.33204 0 0)
(2.33197 0 0)
(2.33189 0 0)
(2.33181 0 0)
(2.33174 0 0)
(2.33166 0 0)
(2.33159 0 0)
(2.33151 0 0)
(2.33144 0 0)
(2.33136 0 0)
(2.33128 0 0)
(2.33121 0 0)
(2.33113 0 0)
(2.33106 0 0)
(2.33098 0 0)
(2.3309 0 0)
(2.33083 0 0)
(2.33075 0 0)
(2.33068 0 0)
(2.3306 0 0)
(2.33052 0 0)
(2.33045 0 0)
(2.33037 0 0)
(2.33029 0 0)
(2.33022 0 0)
(2.33014 0 0)
(2.33006 0 0)
(2.32998 0 0)
(2.3299 0 0)
(2.32983 0 0)
(2.32975 0 0)
(2.32967 0 0)
(2.32961 0 0)
(2.32966 0 0)
(2.32998 0 0)
(2.33125 0 0)
(2.33545 0 0)
(2.34788 0 0)
(2.38113 0 0)
(2.46268 0 0)
(2.65241 0 0)
(3.05984 0 0)
(3.86359 0 0)
(4.99986 0 0)
(6.24034 0 0)
(7.40664 0 0)
(8.43965 0 0)
(9.32662 0 0)
(10.065 0 0)
(10.6752 0 0)
(11.1821 0 0)
(11.5925 0 0)
(11.9185 0 0)
(12.1863 0 0)
(12.4162 0 0)
(12.6178 0 0)
(12.7964 0 0)
(12.9558 0 0)
(13.0995 0 0)
(13.23 0 0)
(13.3493 0 0)
(13.459 0 0)
(13.5604 0 0)
(13.6545 0 0)
(13.742 0 0)
(13.8239 0 0)
(13.9006 0 0)
(13.9728 0 0)
(14.0407 0 0)
(14.1049 0 0)
(14.1657 0 0)
(14.2233 0 0)
(14.278 0 0)
(14.33 0 0)
(14.3794 0 0)
(14.4252 0 0)
(14.4681 0 0)
(14.5095 0 0)
(14.5495 0 0)
(14.5881 0 0)
(14.6253 0 0)
(14.6613 0 0)
(14.6961 0 0)
(14.7299 0 0)
(14.7625 0 0)
(14.7942 0 0)
(14.8249 0 0)
(14.8547 0 0)
(14.8837 0 0)
(14.9118 0 0)
(14.9392 0 0)
(14.9658 0 0)
(14.9917 0 0)
(15.017 0 0)
(15.0416 0 0)
(15.0656 0 0)
(15.089 0 0)
(15.1119 0 0)
(15.1342 0 0)
(15.1559 0 0)
(15.1772 0 0)
(15.198 0 0)
(15.2183 0 0)
(15.2382 0 0)
(15.2577 0 0)
(15.2767 0 0)
(15.2953 0 0)
(15.3136 0 0)
(15.3315 0 0)
(15.349 0 0)
(15.3662 0 0)
(15.383 0 0)
(15.3995 0 0)
(15.4157 0 0)
(15.4316 0 0)
(15.4472 0 0)
(15.4625 0 0)
(15.4775 0 0)
(15.4922 0 0)
(15.5067 0 0)
(15.5209 0 0)
(15.5349 0 0)
(15.5486 0 0)
(15.5621 0 0)
(15.5754 0 0)
(15.5884 0 0)
(15.6013 0 0)
(15.6139 0 0)
(15.6263 0 0)
(15.6385 0 0)
(15.6505 0 0)
(15.6623 0 0)
(15.674 0 0)
(15.6854 0 0)
(15.6967 0 0)
(15.7079 0 0)
(15.7189 0 0)
(15.7298 0 0)
(15.7405 0 0)
(15.751 0 0)
(15.7613 0 0)
(15.7715 0 0)
(15.7815 0 0)
(15.7915 0 0)
(15.8013 0 0)
(15.8109 0 0)
(15.8205 0 0)
(15.83 0 0)
(15.8393 0 0)
(15.8486 0 0)
(15.8578 0 0)
(15.8669 0 0)
(15.8759 0 0)
(15.8848 0 0)
(15.8937 0 0)
(15.9025 0 0)
(15.9112 0 0)
(15.9198 0 0)
(15.9284 0 0)
(15.9369 0 0)
(15.9453 0 0)
(15.9537 0 0)
(15.962 0 0)
(15.9702 0 0)
(15.9783 0 0)
(15.9863 0 0)
(15.9942 0 0)
(16.0021 0 0)
(16.0098 0 0)
(16.0174 0 0)
(16.0248 0 0)
(16.0321 0 0)
(16.0392 0 0)
(16.0462 0 0)
(16.053 0 0)
(16.0595 0 0)
(16.0659 0 0)
(16.0721 0 0)
(16.078 0 0)
(16.0836 0 0)
(16.0891 0 0)
(16.0942 0 0)
(16.0991 0 0)
(16.1037 0 0)
(16.108 0 0)
(16.112 0 0)
(16.1157 0 0)
(16.1192 0 0)
(16.1223 0 0)
(16.1251 0 0)
(16.1277 0 0)
(16.13 0 0)
(16.132 0 0)
(16.1338 0 0)
(16.1353 0 0)
(16.1366 0 0)
(16.1377 0 0)
(16.1385 0 0)
(16.1392 0 0)
(16.1396 0 0)
(16.14 0 0)
(16.1402 0 0)
(16.1402 0 0)
(16.1402 0 0)
(16.14 0 0)
(16.1398 0 0)
(16.1396 0 0)
(16.1393 0 0)
(16.139 0 0)
(16.1386 0 0)
(16.1383 0 0)
(16.138 0 0)
(16.1377 0 0)
(16.1374 0 0)
(16.1372 0 0)
(16.137 0 0)
(16.1368 0 0)
(16.1368 0 0)
(16.1367 0 0)
(16.1368 0 0)
(16.1368 0 0)
(16.137 0 0)
(16.1372 0 0)
(16.1374 0 0)
(16.1377 0 0)
(16.1381 0 0)
(16.1385 0 0)
(16.1389 0 0)
(16.1393 0 0)
(16.1398 0 0)
(16.1403 0 0)
(16.1409 0 0)
(16.1414 0 0)
(16.1419 0 0)
(16.1425 0 0)
(16.143 0 0)
(16.1436 0 0)
(16.1441 0 0)
(16.1447 0 0)
(16.1452 0 0)
(16.1457 0 0)
(16.1461 0 0)
(16.1466 0 0)
(16.147 0 0)
(16.1474 0 0)
(16.1478 0 0)
(16.1481 0 0)
(16.1484 0 0)
(16.1487 0 0)
(16.149 0 0)
(16.1492 0 0)
(16.1495 0 0)
(16.1496 0 0)
(16.1498 0 0)
(16.1499 0 0)
(16.1501 0 0)
(16.1502 0 0)
(16.1503 0 0)
(16.1503 0 0)
(16.1504 0 0)
(16.1506 0 0)
(16.1508 0 0)
(16.1512 0 0)
)
;

boundaryField
{
    boundary
    {
        type            empty;
    }
    inlet
    {
        type            fixedValue;
        value           uniform (2.34893 0 0);
    }
    outlet
    {
        type            zeroGradient;
    }
}


// ************************************************************************* //
