/*--------------------------------*- C++ -*----------------------------------*\
  =========                 |
  \\      /  F ield         | OpenFOAM: The Open Source CFD Toolbox
   \\    /   O peration     | Website:  https://openfoam.org
    \\  /    A nd           | Version:  7
     \\/     M anipulation  |
\*---------------------------------------------------------------------------*/
FoamFile
{
    version     2.0;
    format      ascii;
    class       volScalarField;
    location    "0.0002";
    object      H2O2;
}
// * * * * * * * * * * * * * * * * * * * * * * * * * * * * * * * * * * * * * //

dimensions      [0 0 0 0 0 0 0];

internalField   nonuniform List<scalar> 
125
(
8.90994e-24
6.2009e-23
4.22216e-22
2.81112e-21
1.82902e-20
1.16222e-19
7.20809e-19
4.36074e-18
2.57198e-17
1.47818e-16
8.27503e-16
4.51106e-15
2.39453e-14
1.23787e-13
6.23534e-13
3.06322e-12
1.46974e-11
6.9005e-11
3.17803e-10
1.43974e-09
6.43464e-09
2.84448e-08
1.24577e-07
5.40171e-07
2.30188e-06
9.36799e-06
3.32231e-05
8.23205e-05
0.000119162
0.000117946
7.32377e-05
3.27326e-05
1.30624e-05
6.20296e-06
4.50938e-06
4.59098e-06
5.2161e-06
5.8301e-06
6.30107e-06
6.59893e-06
6.74519e-06
6.77491e-06
6.72124e-06
6.61084e-06
6.46354e-06
6.29342e-06
6.11054e-06
5.92174e-06
5.73172e-06
5.54364e-06
5.3596e-06
5.18098e-06
5.0086e-06
4.84294e-06
4.68422e-06
4.53248e-06
4.38765e-06
4.24956e-06
4.11802e-06
3.9928e-06
3.87374e-06
3.76403e-06
3.6609e-06
3.56196e-06
3.46702e-06
3.37586e-06
3.28828e-06
3.20408e-06
3.1231e-06
3.04515e-06
2.97006e-06
2.89767e-06
2.82783e-06
2.76038e-06
2.69518e-06
2.63208e-06
2.57096e-06
2.51168e-06
2.45411e-06
2.39813e-06
2.34363e-06
2.29049e-06
2.2386e-06
2.18785e-06
2.13814e-06
2.08938e-06
2.04146e-06
1.99431e-06
1.94784e-06
1.90196e-06
1.85662e-06
1.81175e-06
1.76729e-06
1.72319e-06
1.6794e-06
1.63591e-06
1.59267e-06
1.54968e-06
1.50693e-06
1.46443e-06
1.42217e-06
1.38019e-06
1.33852e-06
1.29717e-06
1.25621e-06
1.21567e-06
1.17561e-06
1.13608e-06
1.09715e-06
1.05887e-06
1.0213e-06
9.84498e-07
9.48523e-07
9.13428e-07
8.79259e-07
8.46061e-07
8.13871e-07
7.8272e-07
7.52633e-07
7.23626e-07
6.95709e-07
6.68883e-07
6.4314e-07
6.1847e-07
5.94883e-07
)
;

boundaryField
{
    boundary
    {
        type            empty;
    }
    inlet
    {
        type            fixedValue;
        value           nonuniform 0();
    }
    outlet
    {
        type            zeroGradient;
    }
    procBoundary1to0
    {
        type            processor;
        value           uniform 5.72413e-07;
    }
    procBoundary1to3
    {
        type            processor;
        value           uniform 1.25186e-24;
    }
}


// ************************************************************************* //
