/*--------------------------------*- C++ -*----------------------------------*\
  =========                 |
  \\      /  F ield         | OpenFOAM: The Open Source CFD Toolbox
   \\    /   O peration     | Website:  https://openfoam.org
    \\  /    A nd           | Version:  7
     \\/     M anipulation  |
\*---------------------------------------------------------------------------*/
FoamFile
{
    version     2.0;
    format      ascii;
    class       volScalarField;
    location    "0.0002";
    object      p;
}
// * * * * * * * * * * * * * * * * * * * * * * * * * * * * * * * * * * * * * //

dimensions      [1 -1 -2 0 0 0 0];

internalField   nonuniform List<scalar> 
125
(
103087
103087
103087
103087
103087
103087
103087
103087
103088
103088
103088
103088
103088
103088
103088
103088
103088
103088
103088
103088
103088
103088
103088
103088
103088
103088
103087
103087
103086
103085
103083
103080
103078
103076
103074
103072
103071
103070
103069
103068
103067
103067
103066
103066
103065
103065
103065
103065
103064
103064
103064
103064
103063
103063
103063
103063
103063
103063
103063
103062
103062
103062
103062
103062
103062
103062
103062
103062
103062
103062
103062
103061
103061
103061
103061
103061
103061
103061
103061
103061
103061
103061
103061
103061
103061
103061
103061
103061
103061
103061
103060
103060
103060
103060
103060
103060
103060
103060
103060
103060
103060
103060
103060
103060
103060
103060
103060
103060
103060
103060
103060
103060
103060
103060
103060
103060
103060
103060
103060
103060
103060
103060
103060
103060
103060
)
;

boundaryField
{
    boundary
    {
        type            empty;
    }
    inlet
    {
        type            zeroGradient;
    }
    outlet
    {
        type            waveTransmissive;
        gamma           1.4;
        value           nonuniform 0();
    }
    procBoundary1to0
    {
        type            processor;
        value           uniform 103059;
    }
    procBoundary1to3
    {
        type            processor;
        value           uniform 103087;
    }
}


// ************************************************************************* //
