/*--------------------------------*- C++ -*----------------------------------*\
  =========                 |
  \\      /  F ield         | OpenFOAM: The Open Source CFD Toolbox
   \\    /   O peration     | Website:  https://openfoam.org
    \\  /    A nd           | Version:  7
     \\/     M anipulation  |
\*---------------------------------------------------------------------------*/
FoamFile
{
    version     2.0;
    format      ascii;
    class       volScalarField;
    location    "0.0002";
    object      Qdot;
}
// * * * * * * * * * * * * * * * * * * * * * * * * * * * * * * * * * * * * * //

dimensions      [1 -1 -3 0 0 0 0];

internalField   nonuniform List<scalar> 
125
(
9.27237e-12
4.50155e-11
2.16366e-10
1.03064e-09
4.86968e-09
2.28459e-08
1.0654e-07
4.94462e-07
2.28677e-06
1.05521e-05
4.86428e-05
0.000224263
0.00103507
0.00478657
0.0221947
0.103275
0.482789
2.27153
10.7887
53.6358
290.535
1856.06
13806.4
109991
989996
9.43216e+06
8.84699e+07
7.12807e+08
3.62451e+09
9.3114e+09
1.30673e+10
1.38628e+10
1.39101e+10
1.38346e+10
1.31314e+10
1.15697e+10
9.61459e+09
7.85655e+09
6.45798e+09
5.38185e+09
4.56332e+09
3.93491e+09
3.44392e+09
3.05258e+09
2.73453e+09
2.47135e+09
2.25021e+09
2.06183e+09
1.8995e+09
1.75824e+09
1.63427e+09
1.52466e+09
1.42712e+09
1.33983e+09
1.26132e+09
1.19037e+09
1.126e+09
1.06737e+09
1.01381e+09
9.64723e+08
9.1971e+08
8.79399e+08
8.42681e+08
8.08293e+08
7.76133e+08
7.45972e+08
7.1764e+08
6.90971e+08
6.6583e+08
6.42078e+08
6.19609e+08
5.98323e+08
5.78122e+08
5.58923e+08
5.40651e+08
5.23233e+08
5.06605e+08
4.90708e+08
4.75484e+08
4.60885e+08
4.46864e+08
4.33376e+08
4.20381e+08
4.07843e+08
3.95725e+08
3.83996e+08
3.72626e+08
3.61587e+08
3.50854e+08
3.40403e+08
3.30213e+08
3.20264e+08
3.10538e+08
3.01021e+08
2.91698e+08
2.82556e+08
2.73585e+08
2.64776e+08
2.56122e+08
2.47616e+08
2.39255e+08
2.31035e+08
2.22954e+08
2.15012e+08
2.07208e+08
1.99543e+08
1.92019e+08
1.84639e+08
1.77403e+08
1.70317e+08
1.63381e+08
1.56599e+08
1.49975e+08
1.4351e+08
1.37207e+08
1.31069e+08
1.25097e+08
1.19292e+08
1.13655e+08
1.08186e+08
1.02884e+08
9.7744e+07
9.27576e+07
8.78981e+07
8.3165e+07
)
;

boundaryField
{
    boundary
    {
        type            empty;
    }
    inlet
    {
        type            calculated;
        value           nonuniform 0();
    }
    outlet
    {
        type            calculated;
        value           nonuniform 0();
    }
    procBoundary1to0
    {
        type            processor;
        value           uniform 0;
    }
    procBoundary1to3
    {
        type            processor;
        value           uniform 0;
    }
}


// ************************************************************************* //
