/*--------------------------------*- C++ -*----------------------------------*\
  =========                 |
  \\      /  F ield         | OpenFOAM: The Open Source CFD Toolbox
   \\    /   O peration     | Website:  https://openfoam.org
    \\  /    A nd           | Version:  7
     \\/     M anipulation  |
\*---------------------------------------------------------------------------*/
FoamFile
{
    version     2.0;
    format      ascii;
    class       surfaceScalarField;
    location    "0.00062";
    object      phi;
}
// * * * * * * * * * * * * * * * * * * * * * * * * * * * * * * * * * * * * * //

dimensions      [1 0 -1 0 0 0 0];

internalField   nonuniform List<scalar> 
124
(
7.02377e-06
7.02431e-06
7.02486e-06
7.0254e-06
7.02594e-06
7.02649e-06
7.02704e-06
7.02758e-06
7.02813e-06
7.02868e-06
7.02922e-06
7.02977e-06
7.03032e-06
7.03086e-06
7.03141e-06
7.03196e-06
7.03251e-06
7.03306e-06
7.03364e-06
7.03427e-06
7.03509e-06
7.03641e-06
7.03918e-06
7.0459e-06
7.06218e-06
7.09441e-06
7.13639e-06
7.17175e-06
7.19538e-06
7.2109e-06
7.22172e-06
7.22951e-06
7.23511e-06
7.23916e-06
7.24212e-06
7.24432e-06
7.24603e-06
7.24742e-06
7.24857e-06
7.24954e-06
7.25038e-06
7.25113e-06
7.25179e-06
7.25238e-06
7.25292e-06
7.25342e-06
7.25387e-06
7.2543e-06
7.25469e-06
7.25506e-06
7.2554e-06
7.25573e-06
7.25603e-06
7.25632e-06
7.2566e-06
7.25686e-06
7.25711e-06
7.25735e-06
7.25758e-06
7.2578e-06
7.25801e-06
7.2582e-06
7.25839e-06
7.25857e-06
7.25875e-06
7.25892e-06
7.25908e-06
7.25925e-06
7.2594e-06
7.25956e-06
7.25971e-06
7.25986e-06
7.26001e-06
7.26015e-06
7.26029e-06
7.26043e-06
7.26056e-06
7.2607e-06
7.26083e-06
7.26096e-06
7.26109e-06
7.26122e-06
7.26135e-06
7.26147e-06
7.2616e-06
7.26172e-06
7.26185e-06
7.26197e-06
7.26209e-06
7.26222e-06
7.26234e-06
7.26246e-06
7.26258e-06
7.2627e-06
7.26282e-06
7.26294e-06
7.26306e-06
7.26318e-06
7.2633e-06
7.26342e-06
7.26354e-06
7.26366e-06
7.26378e-06
7.26389e-06
7.26401e-06
7.26413e-06
7.26424e-06
7.26436e-06
7.26447e-06
7.26458e-06
7.2647e-06
7.26481e-06
7.26492e-06
7.26502e-06
7.26513e-06
7.26524e-06
7.26534e-06
7.26544e-06
7.26555e-06
7.26565e-06
7.26574e-06
7.26584e-06
7.26594e-06
7.26603e-06
)
;

boundaryField
{
    boundary
    {
        type            empty;
        value           nonuniform 0();
    }
    inlet
    {
        type            calculated;
        value           nonuniform 0();
    }
    outlet
    {
        type            calculated;
        value           nonuniform 0();
    }
    procBoundary1to0
    {
        type            processor;
        value           uniform 7.26613e-06;
    }
    procBoundary1to3
    {
        type            processor;
        value           uniform -7.02323e-06;
    }
}


// ************************************************************************* //
