/*--------------------------------*- C++ -*----------------------------------*\
  =========                 |
  \\      /  F ield         | OpenFOAM: The Open Source CFD Toolbox
   \\    /   O peration     | Website:  https://openfoam.org
    \\  /    A nd           | Version:  7
     \\/     M anipulation  |
\*---------------------------------------------------------------------------*/
FoamFile
{
    version     2.0;
    format      ascii;
    class       volScalarField;
    location    "0.00014";
    object      HO2;
}
// * * * * * * * * * * * * * * * * * * * * * * * * * * * * * * * * * * * * * //

dimensions      [0 0 0 0 0 0 0];

internalField   nonuniform List<scalar> 
125
(
5.68479e-38
1.30847e-37
2.06924e-37
2.85137e-37
3.65353e-37
4.46824e-37
5.28037e-37
6.06848e-37
6.80829e-37
7.47719e-37
8.05817e-37
8.54233e-37
8.92932e-37
9.22611e-37
9.4447e-37
9.59946e-37
9.70493e-37
9.77421e-37
9.81814e-37
9.84505e-37
9.86101e-37
9.87017e-37
9.87528e-37
9.87804e-37
9.87948e-37
9.88021e-37
9.88057e-37
9.88073e-37
9.8808e-37
9.88083e-37
9.88083e-37
9.88082e-37
9.8808e-37
9.88079e-37
9.88077e-37
9.88075e-37
9.88074e-37
9.88072e-37
9.88071e-37
9.88069e-37
9.88068e-37
9.88067e-37
9.88066e-37
9.88065e-37
9.88064e-37
9.88064e-37
9.88063e-37
9.88063e-37
9.88063e-37
9.88063e-37
9.88064e-37
9.88065e-37
9.88066e-37
9.88067e-37
9.88069e-37
9.88071e-37
9.88074e-37
9.88077e-37
9.8808e-37
9.88084e-37
9.88088e-37
9.88092e-37
9.88097e-37
9.88103e-37
9.88109e-37
9.88116e-37
9.88123e-37
9.8813e-37
9.88139e-37
9.88147e-37
9.88157e-37
9.88167e-37
9.88178e-37
9.88189e-37
9.88201e-37
9.88214e-37
9.88228e-37
9.88242e-37
9.88257e-37
9.88273e-37
9.8829e-37
9.88307e-37
9.88326e-37
9.88345e-37
9.88365e-37
9.88386e-37
9.88407e-37
9.8843e-37
9.88453e-37
9.88478e-37
9.88503e-37
9.8853e-37
9.88557e-37
9.88585e-37
9.88614e-37
9.88645e-37
9.88676e-37
9.88708e-37
9.88741e-37
9.88775e-37
9.8881e-37
9.88846e-37
9.88883e-37
9.88922e-37
9.88961e-37
9.89001e-37
9.89042e-37
9.89084e-37
9.89127e-37
9.89171e-37
9.89216e-37
9.89261e-37
9.89308e-37
9.89356e-37
9.89404e-37
9.89453e-37
9.89503e-37
9.89554e-37
9.89604e-37
9.89652e-37
9.89686e-37
9.89667e-37
9.89442e-37
9.88426e-37
9.84383e-37
)
;

boundaryField
{
    boundary
    {
        type            empty;
    }
    inlet
    {
        type            fixedValue;
        value           uniform 0;
    }
    outlet
    {
        type            zeroGradient;
    }
    procBoundary2to3
    {
        type            processor;
        value           uniform 9.76661e-37;
    }
}


// ************************************************************************* //
