/*--------------------------------*- C++ -*----------------------------------*\
  =========                 |
  \\      /  F ield         | OpenFOAM: The Open Source CFD Toolbox
   \\    /   O peration     | Website:  https://openfoam.org
    \\  /    A nd           | Version:  7
     \\/     M anipulation  |
\*---------------------------------------------------------------------------*/
FoamFile
{
    version     2.0;
    format      ascii;
    class       volScalarField;
    location    "0.00014";
    object      OH;
}
// * * * * * * * * * * * * * * * * * * * * * * * * * * * * * * * * * * * * * //

dimensions      [0 0 0 0 0 0 0];

internalField   nonuniform List<scalar> 
125
(
9.58505e-48
1.89794e-47
2.57793e-47
3.08684e-47
3.49204e-47
3.83949e-47
4.1568e-47
4.45704e-47
4.74279e-47
5.01024e-47
5.25293e-47
5.46481e-47
5.64214e-47
5.78428e-47
5.89343e-47
5.97383e-47
6.03073e-47
6.0695e-47
6.09497e-47
6.11113e-47
6.12106e-47
6.12696e-47
6.13038e-47
6.13229e-47
6.13334e-47
6.13389e-47
6.13418e-47
6.13433e-47
6.13441e-47
6.13444e-47
6.13447e-47
6.13448e-47
6.13449e-47
6.1345e-47
6.1345e-47
6.13451e-47
6.13452e-47
6.13453e-47
6.13454e-47
6.13456e-47
6.13457e-47
6.13458e-47
6.1346e-47
6.13462e-47
6.13464e-47
6.13466e-47
6.13468e-47
6.13471e-47
6.13473e-47
6.13476e-47
6.1348e-47
6.13483e-47
6.13487e-47
6.1349e-47
6.13495e-47
6.13499e-47
6.13504e-47
6.13509e-47
6.13514e-47
6.1352e-47
6.13526e-47
6.13533e-47
6.1354e-47
6.13547e-47
6.13555e-47
6.13563e-47
6.13571e-47
6.1358e-47
6.1359e-47
6.136e-47
6.13611e-47
6.13622e-47
6.13633e-47
6.13645e-47
6.13658e-47
6.13671e-47
6.13685e-47
6.137e-47
6.13715e-47
6.13731e-47
6.13747e-47
6.13765e-47
6.13782e-47
6.13801e-47
6.1382e-47
6.1384e-47
6.13861e-47
6.13882e-47
6.13905e-47
6.13928e-47
6.13951e-47
6.13976e-47
6.14001e-47
6.14028e-47
6.14055e-47
6.14083e-47
6.14111e-47
6.14141e-47
6.14171e-47
6.14202e-47
6.14234e-47
6.14267e-47
6.14301e-47
6.14335e-47
6.1437e-47
6.14407e-47
6.14444e-47
6.14481e-47
6.1452e-47
6.14559e-47
6.146e-47
6.1464e-47
6.14682e-47
6.14725e-47
6.14768e-47
6.14812e-47
6.14856e-47
6.14901e-47
6.14946e-47
6.14992e-47
6.15038e-47
6.15082e-47
6.15123e-47
6.15158e-47
6.15178e-47
)
;

boundaryField
{
    boundary
    {
        type            empty;
    }
    inlet
    {
        type            fixedValue;
        value           uniform 0;
    }
    outlet
    {
        type            zeroGradient;
    }
    procBoundary2to3
    {
        type            processor;
        value           uniform 6.1518e-47;
    }
}


// ************************************************************************* //
