/*--------------------------------*- C++ -*----------------------------------*\
  =========                 |
  \\      /  F ield         | OpenFOAM: The Open Source CFD Toolbox
   \\    /   O peration     | Website:  https://openfoam.org
    \\  /    A nd           | Version:  7
     \\/     M anipulation  |
\*---------------------------------------------------------------------------*/
FoamFile
{
    version     2.0;
    format      ascii;
    class       volScalarField;
    location    "0.0003";
    object      Qdot;
}
// * * * * * * * * * * * * * * * * * * * * * * * * * * * * * * * * * * * * * //

dimensions      [1 -1 -3 0 0 0 0];

internalField   nonuniform List<scalar> 
126
(
-2.68375e-27
-2.6839e-27
-2.68405e-27
-2.68422e-27
-2.68438e-27
-2.68454e-27
-2.68471e-27
-2.68487e-27
-2.68503e-27
-2.68519e-27
-2.68534e-27
-2.68551e-27
-2.68567e-27
-2.68583e-27
-2.68601e-27
-2.68618e-27
-2.68637e-27
-2.68656e-27
-2.68676e-27
-2.68696e-27
-2.68717e-27
-2.68738e-27
-2.6876e-27
-2.68781e-27
-2.68803e-27
-2.68824e-27
-2.68844e-27
-2.68865e-27
-2.68884e-27
-2.68903e-27
-2.68921e-27
-2.68939e-27
-2.68956e-27
-2.68972e-27
-2.68987e-27
-2.69001e-27
-2.69015e-27
-2.69028e-27
-2.69039e-27
-2.6905e-27
-2.6906e-27
-2.69069e-27
-2.69077e-27
-2.69084e-27
-2.6909e-27
-2.69094e-27
-2.69097e-27
-2.69099e-27
-2.69099e-27
-2.69097e-27
-2.69094e-27
-2.69089e-27
-2.69082e-27
-2.69074e-27
-2.69063e-27
-2.69051e-27
-2.69036e-27
-2.69019e-27
-2.69e-27
-2.68978e-27
-2.68954e-27
-2.68927e-27
-2.68897e-27
-2.68865e-27
-2.6883e-27
-2.68792e-27
-2.6875e-27
-2.68706e-27
-2.68658e-27
-2.68607e-27
-2.68553e-27
-2.68495e-27
-2.68433e-27
-2.68368e-27
-2.68299e-27
-2.68226e-27
-2.6815e-27
-2.68069e-27
-2.67984e-27
-2.67895e-27
-2.67801e-27
-2.67704e-27
-2.67602e-27
-2.67496e-27
-2.67385e-27
-2.6727e-27
-2.6715e-27
-2.67026e-27
-2.66897e-27
-2.66764e-27
-2.66626e-27
-2.66483e-27
-2.66336e-27
-2.66183e-27
-2.6602e-27
-2.65826e-27
-2.65481e-27
-2.64367e-27
-2.5928e-27
-2.33819e-27
-1.05021e-27
5.41861e-27
3.75559e-26
1.95349e-25
9.60827e-25
4.62921e-24
2.19933e-23
1.03167e-22
4.779e-22
2.18606e-21
9.87402e-21
4.40368e-20
1.93921e-19
8.43218e-19
3.62076e-18
1.5356e-17
6.43406e-17
2.66434e-16
1.09099e-15
4.4207e-15
1.77428e-14
7.06255e-14
2.7926e-13
1.09911e-12
4.31638e-12
1.69625e-11
)
;

boundaryField
{
    boundary
    {
        type            empty;
    }
    inlet
    {
        type            calculated;
        value           nonuniform 0();
    }
    outlet
    {
        type            calculated;
        value           nonuniform 0();
    }
    procBoundary3to1
    {
        type            processor;
        value           uniform 0;
    }
    procBoundary3to2
    {
        type            processor;
        value           uniform 0;
    }
}


// ************************************************************************* //
