/*--------------------------------*- C++ -*----------------------------------*\
  =========                 |
  \\      /  F ield         | OpenFOAM: The Open Source CFD Toolbox
   \\    /   O peration     | Website:  https://openfoam.org
    \\  /    A nd           | Version:  7
     \\/     M anipulation  |
\*---------------------------------------------------------------------------*/
FoamFile
{
    version     2.0;
    format      ascii;
    class       volScalarField;
    location    "0.00096";
    object      H;
}
// * * * * * * * * * * * * * * * * * * * * * * * * * * * * * * * * * * * * * //

dimensions      [0 0 0 0 0 0 0];

internalField   nonuniform List<scalar> 
126
(
3.46215e-41
3.46218e-41
3.46221e-41
3.46225e-41
3.4623e-41
3.46237e-41
3.46246e-41
3.46255e-41
3.46264e-41
3.46275e-41
3.46287e-41
3.46299e-41
3.46312e-41
3.46326e-41
3.46341e-41
3.46357e-41
3.46373e-41
3.46389e-41
3.46406e-41
3.46422e-41
3.46438e-41
3.46454e-41
3.4647e-41
3.46484e-41
3.46498e-41
3.46512e-41
3.46525e-41
3.46537e-41
3.46548e-41
3.4656e-41
3.46571e-41
3.46583e-41
3.46594e-41
3.46606e-41
3.46619e-41
3.46632e-41
3.46645e-41
3.4666e-41
3.46675e-41
3.46691e-41
3.46708e-41
3.46725e-41
3.46744e-41
3.46763e-41
3.46782e-41
3.46802e-41
3.46822e-41
3.46843e-41
3.46864e-41
3.46886e-41
3.46908e-41
3.4693e-41
3.46952e-41
3.46975e-41
3.46997e-41
3.4702e-41
3.47044e-41
3.47067e-41
3.47091e-41
3.47114e-41
3.47138e-41
3.47162e-41
3.47187e-41
3.47211e-41
3.47236e-41
3.4726e-41
3.47285e-41
3.47309e-41
3.47334e-41
3.47358e-41
3.47382e-41
3.47406e-41
3.4743e-41
3.47454e-41
3.47477e-41
3.47499e-41
3.47521e-41
3.47542e-41
3.47563e-41
3.47583e-41
3.47603e-41
3.47624e-41
3.47651e-41
3.47696e-41
3.47803e-41
3.48109e-41
3.4904e-41
3.51942e-41
3.61015e-41
3.89386e-41
4.77974e-41
7.54119e-41
1.61348e-40
4.28364e-40
1.25682e-39
3.82382e-39
1.17682e-38
3.63271e-38
1.12172e-37
3.46188e-37
1.06763e-36
3.29007e-36
1.01316e-35
3.11786e-35
9.58881e-35
2.94727e-34
9.05397e-34
2.77994e-33
8.53156e-33
2.6172e-32
8.02575e-32
2.46044e-31
7.54179e-31
2.31179e-30
7.08845e-30
2.17499e-29
6.68215e-29
2.05729e-28
6.35507e-28
1.97307e-27
6.17174e-27
1.95141e-26
6.26373e-26
2.05199e-25
6.90236e-25
2.39846e-24
)
;

boundaryField
{
    boundary
    {
        type            empty;
    }
    inlet
    {
        type            fixedValue;
        value           nonuniform 0();
    }
    outlet
    {
        type            zeroGradient;
    }
    procBoundary3to1
    {
        type            processor;
        value           uniform 8.69854e-24;
    }
    procBoundary3to2
    {
        type            processor;
        value           uniform 3.4621e-41;
    }
}


// ************************************************************************* //
