/*--------------------------------*- C++ -*----------------------------------*\
  =========                 |
  \\      /  F ield         | OpenFOAM: The Open Source CFD Toolbox
   \\    /   O peration     | Website:  https://openfoam.org
    \\  /    A nd           | Version:  7
     \\/     M anipulation  |
\*---------------------------------------------------------------------------*/
FoamFile
{
    version     2.0;
    format      ascii;
    class       volScalarField;
    location    "0.00012";
    object      H;
}
// * * * * * * * * * * * * * * * * * * * * * * * * * * * * * * * * * * * * * //

dimensions      [0 0 0 0 0 0 0];

internalField   nonuniform List<scalar> 
125
(
1.51063e-41
2.0787e-41
2.24264e-41
2.33392e-41
2.42496e-41
2.52882e-41
2.64325e-41
2.76138e-41
2.87542e-41
2.97862e-41
3.06645e-41
3.13703e-41
3.19076e-41
3.22966e-41
3.25652e-41
3.27428e-41
3.28555e-41
3.29243e-41
3.29648e-41
3.29878e-41
3.30004e-41
3.30071e-41
3.30105e-41
3.30121e-41
3.30129e-41
3.30132e-41
3.30133e-41
3.30132e-41
3.30131e-41
3.3013e-41
3.30129e-41
3.30128e-41
3.30126e-41
3.30125e-41
3.30124e-41
3.30122e-41
3.30121e-41
3.3012e-41
3.30118e-41
3.30117e-41
3.30116e-41
3.30115e-41
3.30113e-41
3.30112e-41
3.30111e-41
3.3011e-41
3.30109e-41
3.30108e-41
3.30107e-41
3.30106e-41
3.30105e-41
3.30105e-41
3.30104e-41
3.30104e-41
3.30103e-41
3.30103e-41
3.30103e-41
3.30103e-41
3.30103e-41
3.30103e-41
3.30103e-41
3.30104e-41
3.30105e-41
3.30106e-41
3.30107e-41
3.30108e-41
3.3011e-41
3.30111e-41
3.30113e-41
3.30115e-41
3.30118e-41
3.3012e-41
3.30123e-41
3.30126e-41
3.3013e-41
3.30133e-41
3.30137e-41
3.30142e-41
3.30146e-41
3.30151e-41
3.30156e-41
3.30162e-41
3.30168e-41
3.30174e-41
3.30181e-41
3.30187e-41
3.30195e-41
3.30202e-41
3.3021e-41
3.30219e-41
3.30228e-41
3.30237e-41
3.30246e-41
3.30256e-41
3.30267e-41
3.30278e-41
3.30289e-41
3.30301e-41
3.30313e-41
3.30325e-41
3.30338e-41
3.30351e-41
3.30365e-41
3.30379e-41
3.30394e-41
3.30409e-41
3.30424e-41
3.3044e-41
3.30457e-41
3.30473e-41
3.3049e-41
3.30508e-41
3.30526e-41
3.30544e-41
3.30563e-41
3.30582e-41
3.30601e-41
3.30621e-41
3.30641e-41
3.30661e-41
3.30681e-41
3.30701e-41
3.30719e-41
3.30735e-41
3.30743e-41
)
;

boundaryField
{
    boundary
    {
        type            empty;
    }
    inlet
    {
        type            fixedValue;
        value           uniform 0;
    }
    outlet
    {
        type            zeroGradient;
    }
    procBoundary2to3
    {
        type            processor;
        value           uniform 3.30748e-41;
    }
}


// ************************************************************************* //
