/*--------------------------------*- C++ -*----------------------------------*\
  =========                 |
  \\      /  F ield         | OpenFOAM: The Open Source CFD Toolbox
   \\    /   O peration     | Website:  https://openfoam.org
    \\  /    A nd           | Version:  7
     \\/     M anipulation  |
\*---------------------------------------------------------------------------*/
FoamFile
{
    version     2.0;
    format      ascii;
    class       volScalarField;
    location    "0.00012";
    object      HO2;
}
// * * * * * * * * * * * * * * * * * * * * * * * * * * * * * * * * * * * * * //

dimensions      [0 0 0 0 0 0 0];

internalField   nonuniform List<scalar> 
125
(
5.68739e-38
1.31085e-37
2.07691e-37
2.86418e-37
3.66192e-37
4.44988e-37
5.20134e-37
5.88864e-37
6.48916e-37
6.98942e-37
7.38657e-37
7.68723e-37
7.90449e-37
8.05459e-37
8.15391e-37
8.21694e-37
8.2554e-37
8.27798e-37
8.29077e-37
8.29776e-37
8.30146e-37
8.30335e-37
8.30429e-37
8.30473e-37
8.30494e-37
8.30503e-37
8.30506e-37
8.30507e-37
8.30507e-37
8.30506e-37
8.30505e-37
8.30504e-37
8.30503e-37
8.30503e-37
8.30502e-37
8.30501e-37
8.305e-37
8.305e-37
8.30499e-37
8.30499e-37
8.30499e-37
8.30498e-37
8.30498e-37
8.30499e-37
8.30499e-37
8.30499e-37
8.305e-37
8.30501e-37
8.30502e-37
8.30504e-37
8.30505e-37
8.30507e-37
8.3051e-37
8.30512e-37
8.30515e-37
8.30518e-37
8.30521e-37
8.30525e-37
8.3053e-37
8.30534e-37
8.30539e-37
8.30545e-37
8.3055e-37
8.30557e-37
8.30564e-37
8.30571e-37
8.30578e-37
8.30587e-37
8.30595e-37
8.30605e-37
8.30615e-37
8.30625e-37
8.30636e-37
8.30648e-37
8.3066e-37
8.30673e-37
8.30686e-37
8.307e-37
8.30715e-37
8.3073e-37
8.30746e-37
8.30763e-37
8.30781e-37
8.30799e-37
8.30818e-37
8.30838e-37
8.30858e-37
8.30879e-37
8.30901e-37
8.30924e-37
8.30948e-37
8.30972e-37
8.30997e-37
8.31023e-37
8.3105e-37
8.31077e-37
8.31106e-37
8.31135e-37
8.31165e-37
8.31196e-37
8.31228e-37
8.3126e-37
8.31293e-37
8.31328e-37
8.31363e-37
8.31398e-37
8.31435e-37
8.31472e-37
8.3151e-37
8.31549e-37
8.31589e-37
8.31629e-37
8.3167e-37
8.31712e-37
8.31755e-37
8.31798e-37
8.31842e-37
8.31886e-37
8.3193e-37
8.31971e-37
8.31999e-37
8.31976e-37
8.3175e-37
8.30742e-37
8.26744e-37
)
;

boundaryField
{
    boundary
    {
        type            empty;
    }
    inlet
    {
        type            fixedValue;
        value           uniform 0;
    }
    outlet
    {
        type            zeroGradient;
    }
    procBoundary2to3
    {
        type            processor;
        value           uniform 8.19187e-37;
    }
}


// ************************************************************************* //
