/*--------------------------------*- C++ -*----------------------------------*\
  =========                 |
  \\      /  F ield         | OpenFOAM: The Open Source CFD Toolbox
   \\    /   O peration     | Website:  https://openfoam.org
    \\  /    A nd           | Version:  7
     \\/     M anipulation  |
\*---------------------------------------------------------------------------*/
FoamFile
{
    version     2.0;
    format      ascii;
    class       volScalarField;
    location    "0.00012";
    object      Qdot;
}
// * * * * * * * * * * * * * * * * * * * * * * * * * * * * * * * * * * * * * //

dimensions      [1 -1 -3 0 0 0 0];

internalField   nonuniform List<scalar> 
125
(
-2.4729e-27
-1.91105e-27
-1.81991e-27
-1.84278e-27
-1.90287e-27
-1.9812e-27
-2.06938e-27
-2.16037e-27
-2.24756e-27
-2.32557e-27
-2.39103e-27
-2.44275e-27
-2.48139e-27
-2.5088e-27
-2.52732e-27
-2.53929e-27
-2.54671e-27
-2.55112e-27
-2.55364e-27
-2.55502e-27
-2.55575e-27
-2.55611e-27
-2.55627e-27
-2.55633e-27
-2.55634e-27
-2.55632e-27
-2.55628e-27
-2.55624e-27
-2.5562e-27
-2.55615e-27
-2.55611e-27
-2.55606e-27
-2.55601e-27
-2.55595e-27
-2.5559e-27
-2.55584e-27
-2.55579e-27
-2.55573e-27
-2.55568e-27
-2.55562e-27
-2.55556e-27
-2.5555e-27
-2.55544e-27
-2.55537e-27
-2.55531e-27
-2.55525e-27
-2.55519e-27
-2.55512e-27
-2.55506e-27
-2.555e-27
-2.55493e-27
-2.55487e-27
-2.5548e-27
-2.55474e-27
-2.55467e-27
-2.55461e-27
-2.55454e-27
-2.55448e-27
-2.55442e-27
-2.55435e-27
-2.55429e-27
-2.55423e-27
-2.55417e-27
-2.55411e-27
-2.55405e-27
-2.55399e-27
-2.55393e-27
-2.55388e-27
-2.55382e-27
-2.55377e-27
-2.55372e-27
-2.55366e-27
-2.55362e-27
-2.55357e-27
-2.55352e-27
-2.55348e-27
-2.55344e-27
-2.5534e-27
-2.55336e-27
-2.55332e-27
-2.55329e-27
-2.55326e-27
-2.55323e-27
-2.55321e-27
-2.55318e-27
-2.55316e-27
-2.55314e-27
-2.55313e-27
-2.55311e-27
-2.55311e-27
-2.5531e-27
-2.55309e-27
-2.55309e-27
-2.5531e-27
-2.5531e-27
-2.55311e-27
-2.55312e-27
-2.55314e-27
-2.55316e-27
-2.55318e-27
-2.55321e-27
-2.55324e-27
-2.55327e-27
-2.5533e-27
-2.55334e-27
-2.55339e-27
-2.55343e-27
-2.55348e-27
-2.55354e-27
-2.55359e-27
-2.55366e-27
-2.55372e-27
-2.55379e-27
-2.55386e-27
-2.55393e-27
-2.55401e-27
-2.55409e-27
-2.55417e-27
-2.55425e-27
-2.55434e-27
-2.55443e-27
-2.55452e-27
-2.5546e-27
-2.55467e-27
-2.55474e-27
)
;

boundaryField
{
    boundary
    {
        type            empty;
    }
    inlet
    {
        type            calculated;
        value           uniform 0;
    }
    outlet
    {
        type            calculated;
        value           nonuniform 0();
    }
    procBoundary2to3
    {
        type            processor;
        value           uniform 0;
    }
}


// ************************************************************************* //
