/*--------------------------------*- C++ -*----------------------------------*\
  =========                 |
  \\      /  F ield         | OpenFOAM: The Open Source CFD Toolbox
   \\    /   O peration     | Website:  https://openfoam.org
    \\  /    A nd           | Version:  7
     \\/     M anipulation  |
\*---------------------------------------------------------------------------*/
FoamFile
{
    version     2.0;
    format      ascii;
    class       volScalarField;
    location    "1e-05";
    object      H;
}
// * * * * * * * * * * * * * * * * * * * * * * * * * * * * * * * * * * * * * //

dimensions      [0 0 0 0 0 0 0];

internalField   nonuniform List<scalar> 
126
(
2.21616e-41
2.21731e-41
2.21848e-41
2.21959e-41
2.22064e-41
2.22166e-41
2.22269e-41
2.22374e-41
2.22482e-41
2.22593e-41
2.22708e-41
2.22827e-41
2.22949e-41
2.23075e-41
2.23205e-41
2.23339e-41
2.23478e-41
2.2362e-41
2.23768e-41
2.23919e-41
2.24075e-41
2.24236e-41
2.24402e-41
2.24573e-41
2.24749e-41
2.2493e-41
2.25116e-41
2.25308e-41
2.25506e-41
2.25709e-41
2.25918e-41
2.26132e-41
2.26353e-41
2.2658e-41
2.26813e-41
2.27053e-41
2.27299e-41
2.27551e-41
2.2781e-41
2.28076e-41
2.28349e-41
2.28628e-41
2.28915e-41
2.29208e-41
2.29509e-41
2.29817e-41
2.30133e-41
2.30455e-41
2.30785e-41
2.31123e-41
2.31467e-41
2.3182e-41
2.32179e-41
2.32546e-41
2.32921e-41
2.33302e-41
2.33691e-41
2.34087e-41
2.34491e-41
2.34901e-41
2.35318e-41
2.35741e-41
2.36172e-41
2.36608e-41
2.37051e-41
2.37499e-41
2.37953e-41
2.38411e-41
2.38875e-41
2.39343e-41
2.39816e-41
2.40292e-41
2.40771e-41
2.41252e-41
2.41736e-41
2.42221e-41
2.42707e-41
2.43192e-41
2.43678e-41
2.44162e-41
2.44643e-41
2.45122e-41
2.45596e-41
2.46066e-41
2.46529e-41
2.46986e-41
2.47434e-41
2.47873e-41
2.48302e-41
2.48719e-41
2.49122e-41
2.49512e-41
2.49886e-41
2.50242e-41
2.5058e-41
2.50898e-41
2.51195e-41
2.51468e-41
2.51717e-41
2.5194e-41
2.52135e-41
2.523e-41
2.52435e-41
2.52537e-41
2.52607e-41
2.5265e-41
2.52711e-41
2.53097e-41
2.55806e-41
2.73702e-41
3.8886e-41
1.11988e-40
5.70966e-40
3.42078e-39
2.0905e-38
1.26785e-37
7.58888e-37
4.47405e-36
2.59398e-35
1.47683e-34
8.24546e-34
4.51126e-33
2.42067e-32
1.27974e-31
6.7522e-31
3.65904e-30
)
;

boundaryField
{
    boundary
    {
        type            empty;
    }
    inlet
    {
        type            fixedValue;
        value           nonuniform 0();
    }
    outlet
    {
        type            zeroGradient;
    }
    procBoundary3to1
    {
        type            processor;
        value           uniform 1.92233e-29;
    }
    procBoundary3to2
    {
        type            processor;
        value           uniform 2.2156e-41;
    }
}


// ************************************************************************* //
