/*--------------------------------*- C++ -*----------------------------------*\
  =========                 |
  \\      /  F ield         | OpenFOAM: The Open Source CFD Toolbox
   \\    /   O peration     | Website:  https://openfoam.org
    \\  /    A nd           | Version:  7
     \\/     M anipulation  |
\*---------------------------------------------------------------------------*/
FoamFile
{
    version     2.0;
    format      ascii;
    class       volScalarField;
    location    "1e-05";
    object      H2O;
}
// * * * * * * * * * * * * * * * * * * * * * * * * * * * * * * * * * * * * * //

dimensions      [0 0 0 0 0 0 0];

internalField   nonuniform List<scalar> 
126
(
4.21994e-48
4.51126e-48
4.67564e-48
4.74528e-48
4.76957e-48
4.77723e-48
4.77974e-48
4.78083e-48
4.78156e-48
4.78221e-48
4.78287e-48
4.78354e-48
4.78424e-48
4.78495e-48
4.78569e-48
4.78646e-48
4.78725e-48
4.78807e-48
4.78891e-48
4.78978e-48
4.79068e-48
4.79161e-48
4.79257e-48
4.79356e-48
4.79458e-48
4.79564e-48
4.79673e-48
4.79785e-48
4.79901e-48
4.8002e-48
4.80144e-48
4.80271e-48
4.80402e-48
4.80537e-48
4.80676e-48
4.80819e-48
4.80967e-48
4.81119e-48
4.81276e-48
4.81438e-48
4.81604e-48
4.81775e-48
4.81951e-48
4.82133e-48
4.82319e-48
4.82511e-48
4.82708e-48
4.82911e-48
4.83119e-48
4.83333e-48
4.83553e-48
4.83779e-48
4.84011e-48
4.84249e-48
4.84493e-48
4.84744e-48
4.85001e-48
4.85264e-48
4.85535e-48
4.85811e-48
4.86095e-48
4.86385e-48
4.86682e-48
4.86986e-48
4.87297e-48
4.87615e-48
4.8794e-48
4.88272e-48
4.88611e-48
4.88957e-48
4.8931e-48
4.8967e-48
4.90036e-48
4.9041e-48
4.9079e-48
4.91178e-48
4.91571e-48
4.91971e-48
4.92378e-48
4.92791e-48
4.93209e-48
4.93634e-48
4.94064e-48
4.94499e-48
4.94939e-48
4.95384e-48
4.95833e-48
4.96287e-48
4.96744e-48
4.97204e-48
4.97667e-48
4.98132e-48
4.986e-48
4.99068e-48
4.99537e-48
5.00007e-48
5.00476e-48
5.00944e-48
5.0141e-48
5.01874e-48
5.02334e-48
5.0279e-48
5.03242e-48
5.03687e-48
5.04127e-48
5.04559e-48
5.04987e-48
5.05429e-48
5.06031e-48
5.07813e-48
5.17907e-48
5.85968e-48
1.05632e-47
4.30692e-47
2.66884e-46
1.80102e-45
1.22656e-44
8.32771e-44
5.62555e-43
3.78014e-42
2.52823e-41
1.68611e-40
1.12499e-39
7.52787e-39
5.00758e-38
3.16568e-37
)
;

boundaryField
{
    boundary
    {
        type            empty;
    }
    inlet
    {
        type            fixedValue;
        value           nonuniform 0();
    }
    outlet
    {
        type            zeroGradient;
    }
    procBoundary3to1
    {
        type            processor;
        value           uniform 2.31685e-36;
    }
    procBoundary3to2
    {
        type            processor;
        value           uniform 4.56422e-48;
    }
}


// ************************************************************************* //
