/*--------------------------------*- C++ -*----------------------------------*\
  =========                 |
  \\      /  F ield         | OpenFOAM: The Open Source CFD Toolbox
   \\    /   O peration     | Website:  https://openfoam.org
    \\  /    A nd           | Version:  7
     \\/     M anipulation  |
\*---------------------------------------------------------------------------*/
FoamFile
{
    version     2.0;
    format      ascii;
    class       volScalarField;
    location    "1e-05";
    object      H2O2;
}
// * * * * * * * * * * * * * * * * * * * * * * * * * * * * * * * * * * * * * //

dimensions      [0 0 0 0 0 0 0];

internalField   nonuniform List<scalar> 
126
(
7.55597e-53
7.67571e-53
7.7813e-53
7.844e-53
7.86982e-53
7.87896e-53
7.88246e-53
7.88436e-53
7.88589e-53
7.88736e-53
7.88885e-53
7.89038e-53
7.89197e-53
7.89361e-53
7.8953e-53
7.89705e-53
7.89885e-53
7.90071e-53
7.90264e-53
7.90462e-53
7.90667e-53
7.90879e-53
7.91097e-53
7.91322e-53
7.91555e-53
7.91795e-53
7.92042e-53
7.92297e-53
7.9256e-53
7.92831e-53
7.9311e-53
7.93398e-53
7.93694e-53
7.94e-53
7.94315e-53
7.94639e-53
7.94973e-53
7.95316e-53
7.9567e-53
7.96034e-53
7.96408e-53
7.96793e-53
7.97189e-53
7.97596e-53
7.98015e-53
7.98445e-53
7.98886e-53
7.9934e-53
7.99806e-53
8.00285e-53
8.00776e-53
8.01279e-53
8.01796e-53
8.02326e-53
8.02869e-53
8.03426e-53
8.03996e-53
8.0458e-53
8.05178e-53
8.0579e-53
8.06416e-53
8.07056e-53
8.07711e-53
8.08379e-53
8.09062e-53
8.0976e-53
8.10471e-53
8.11197e-53
8.11937e-53
8.12691e-53
8.13459e-53
8.14241e-53
8.15036e-53
8.15845e-53
8.16667e-53
8.17502e-53
8.18349e-53
8.19208e-53
8.20079e-53
8.20961e-53
8.21854e-53
8.22757e-53
8.23669e-53
8.2459e-53
8.25519e-53
8.26455e-53
8.27397e-53
8.28345e-53
8.29297e-53
8.30253e-53
8.31211e-53
8.3217e-53
8.3313e-53
8.34087e-53
8.35042e-53
8.35993e-53
8.36937e-53
8.37875e-53
8.38803e-53
8.39721e-53
8.40626e-53
8.41517e-53
8.42392e-53
8.43249e-53
8.44086e-53
8.44901e-53
8.45694e-53
8.46475e-53
8.47338e-53
8.48931e-53
8.55813e-53
8.99692e-53
1.20025e-52
3.27319e-52
1.75301e-51
1.15155e-50
7.80395e-50
5.29e-49
3.56965e-48
2.39681e-47
1.60351e-46
1.07368e-45
7.26742e-45
5.04627e-44
3.59893e-43
2.4611e-42
)
;

boundaryField
{
    boundary
    {
        type            empty;
    }
    inlet
    {
        type            fixedValue;
        value           nonuniform 0();
    }
    outlet
    {
        type            zeroGradient;
    }
    procBoundary3to1
    {
        type            processor;
        value           uniform 1.54292e-41;
    }
    procBoundary3to2
    {
        type            processor;
        value           uniform 7.74478e-53;
    }
}


// ************************************************************************* //
