/*--------------------------------*- C++ -*----------------------------------*\
  =========                 |
  \\      /  F ield         | OpenFOAM: The Open Source CFD Toolbox
   \\    /   O peration     | Website:  https://openfoam.org
    \\  /    A nd           | Version:  7
     \\/     M anipulation  |
\*---------------------------------------------------------------------------*/
FoamFile
{
    version     2.0;
    format      ascii;
    class       volScalarField;
    location    "1e-05";
    object      HO2;
}
// * * * * * * * * * * * * * * * * * * * * * * * * * * * * * * * * * * * * * //

dimensions      [0 0 0 0 0 0 0];

internalField   nonuniform List<scalar> 
126
(
4.83519e-38
4.93617e-38
4.98579e-38
5.01132e-38
5.02174e-38
5.02559e-38
5.0272e-38
5.02817e-38
5.029e-38
5.0298e-38
5.03063e-38
5.03147e-38
5.03235e-38
5.03325e-38
5.03418e-38
5.03514e-38
5.03614e-38
5.03717e-38
5.03823e-38
5.03932e-38
5.04045e-38
5.04161e-38
5.04282e-38
5.04406e-38
5.04534e-38
5.04666e-38
5.04802e-38
5.04942e-38
5.05087e-38
5.05236e-38
5.0539e-38
5.05548e-38
5.05711e-38
5.0588e-38
5.06053e-38
5.06231e-38
5.06414e-38
5.06603e-38
5.06798e-38
5.06997e-38
5.07203e-38
5.07415e-38
5.07632e-38
5.07856e-38
5.08085e-38
5.08321e-38
5.08564e-38
5.08812e-38
5.09068e-38
5.0933e-38
5.09599e-38
5.09875e-38
5.10158e-38
5.10448e-38
5.10745e-38
5.1105e-38
5.11361e-38
5.11681e-38
5.12007e-38
5.12341e-38
5.12683e-38
5.13032e-38
5.13389e-38
5.13753e-38
5.14125e-38
5.14504e-38
5.14891e-38
5.15286e-38
5.15688e-38
5.16097e-38
5.16514e-38
5.16937e-38
5.17368e-38
5.17806e-38
5.1825e-38
5.18701e-38
5.19158e-38
5.19621e-38
5.2009e-38
5.20565e-38
5.21044e-38
5.21529e-38
5.22018e-38
5.22511e-38
5.23008e-38
5.23507e-38
5.2401e-38
5.24514e-38
5.2502e-38
5.25527e-38
5.26035e-38
5.26542e-38
5.27047e-38
5.27551e-38
5.28053e-38
5.2855e-38
5.29044e-38
5.29532e-38
5.30014e-38
5.30489e-38
5.30956e-38
5.31414e-38
5.31861e-38
5.32298e-38
5.32722e-38
5.33133e-38
5.33533e-38
5.33941e-38
5.34498e-38
5.3619e-38
5.45785e-38
6.09586e-38
1.04271e-37
3.97851e-37
2.37798e-36
1.56571e-35
1.04159e-34
6.90114e-34
4.54259e-33
2.96914e-32
1.92788e-31
1.2461e-30
8.06004e-30
5.25919e-29
3.45923e-28
2.19033e-27
)
;

boundaryField
{
    boundary
    {
        type            empty;
    }
    inlet
    {
        type            fixedValue;
        value           nonuniform 0();
    }
    outlet
    {
        type            zeroGradient;
    }
    procBoundary3to1
    {
        type            processor;
        value           uniform 1.32625e-26;
    }
    procBoundary3to2
    {
        type            processor;
        value           uniform 4.95192e-38;
    }
}


// ************************************************************************* //
