/*--------------------------------*- C++ -*----------------------------------*\
  =========                 |
  \\      /  F ield         | OpenFOAM: The Open Source CFD Toolbox
   \\    /   O peration     | Website:  https://openfoam.org
    \\  /    A nd           | Version:  7
     \\/     M anipulation  |
\*---------------------------------------------------------------------------*/
FoamFile
{
    version     2.0;
    format      ascii;
    class       volScalarField;
    location    "1e-05";
    object      O;
}
// * * * * * * * * * * * * * * * * * * * * * * * * * * * * * * * * * * * * * //

dimensions      [0 0 0 0 0 0 0];

internalField   nonuniform List<scalar> 
126
(
1.49185e-47
1.50843e-47
1.53167e-47
1.54487e-47
1.55037e-47
1.55239e-47
1.55319e-47
1.55361e-47
1.55393e-47
1.55423e-47
1.55454e-47
1.55485e-47
1.55518e-47
1.55551e-47
1.55586e-47
1.55621e-47
1.55658e-47
1.55696e-47
1.55736e-47
1.55777e-47
1.55819e-47
1.55862e-47
1.55907e-47
1.55953e-47
1.56e-47
1.5605e-47
1.561e-47
1.56153e-47
1.56207e-47
1.56262e-47
1.5632e-47
1.56379e-47
1.5644e-47
1.56503e-47
1.56568e-47
1.56634e-47
1.56703e-47
1.56774e-47
1.56847e-47
1.56922e-47
1.56999e-47
1.57078e-47
1.5716e-47
1.57244e-47
1.57331e-47
1.5742e-47
1.57511e-47
1.57605e-47
1.57701e-47
1.578e-47
1.57902e-47
1.58006e-47
1.58113e-47
1.58223e-47
1.58335e-47
1.58451e-47
1.58569e-47
1.5869e-47
1.58814e-47
1.58941e-47
1.59071e-47
1.59204e-47
1.5934e-47
1.59479e-47
1.59621e-47
1.59766e-47
1.59914e-47
1.60065e-47
1.60219e-47
1.60376e-47
1.60536e-47
1.60698e-47
1.60864e-47
1.61032e-47
1.61203e-47
1.61377e-47
1.61553e-47
1.61732e-47
1.61913e-47
1.62097e-47
1.62282e-47
1.6247e-47
1.6266e-47
1.62851e-47
1.63044e-47
1.63238e-47
1.63434e-47
1.6363e-47
1.63827e-47
1.64025e-47
1.64223e-47
1.64421e-47
1.64619e-47
1.64817e-47
1.65013e-47
1.65208e-47
1.65402e-47
1.65594e-47
1.65783e-47
1.6597e-47
1.66154e-47
1.66335e-47
1.66511e-47
1.66683e-47
1.66851e-47
1.67014e-47
1.67174e-47
1.67348e-47
1.67655e-47
1.68922e-47
1.76849e-47
2.30544e-47
5.97021e-47
3.09024e-46
1.99677e-45
1.33588e-44
8.94011e-44
5.95215e-43
3.93905e-42
2.59185e-41
1.6978e-40
1.11022e-39
7.27592e-39
4.7872e-38
3.13148e-37
1.9776e-36
)
;

boundaryField
{
    boundary
    {
        type            empty;
    }
    inlet
    {
        type            fixedValue;
        value           nonuniform 0();
    }
    outlet
    {
        type            zeroGradient;
    }
    procBoundary3to1
    {
        type            processor;
        value           uniform 1.14741e-35;
    }
    procBoundary3to2
    {
        type            processor;
        value           uniform 1.51956e-47;
    }
}


// ************************************************************************* //
