/*--------------------------------*- C++ -*----------------------------------*\
  =========                 |
  \\      /  F ield         | OpenFOAM: The Open Source CFD Toolbox
   \\    /   O peration     | Website:  https://openfoam.org
    \\  /    A nd           | Version:  7
     \\/     M anipulation  |
\*---------------------------------------------------------------------------*/
FoamFile
{
    version     2.0;
    format      ascii;
    class       volScalarField;
    location    "1e-05";
    object      OH;
}
// * * * * * * * * * * * * * * * * * * * * * * * * * * * * * * * * * * * * * //

dimensions      [0 0 0 0 0 0 0];

internalField   nonuniform List<scalar> 
126
(
1.16055e-47
1.17467e-47
1.18827e-47
1.19643e-47
1.19995e-47
1.20129e-47
1.20186e-47
1.20219e-47
1.20246e-47
1.20272e-47
1.20298e-47
1.20325e-47
1.20353e-47
1.20382e-47
1.20412e-47
1.20442e-47
1.20474e-47
1.20507e-47
1.20541e-47
1.20576e-47
1.20612e-47
1.2065e-47
1.20688e-47
1.20728e-47
1.20769e-47
1.20811e-47
1.20855e-47
1.209e-47
1.20947e-47
1.20995e-47
1.21044e-47
1.21095e-47
1.21148e-47
1.21202e-47
1.21258e-47
1.21315e-47
1.21374e-47
1.21435e-47
1.21498e-47
1.21562e-47
1.21629e-47
1.21697e-47
1.21768e-47
1.2184e-47
1.21914e-47
1.21991e-47
1.22069e-47
1.2215e-47
1.22233e-47
1.22318e-47
1.22405e-47
1.22495e-47
1.22587e-47
1.22681e-47
1.22778e-47
1.22877e-47
1.22979e-47
1.23083e-47
1.23189e-47
1.23298e-47
1.2341e-47
1.23524e-47
1.23641e-47
1.2376e-47
1.23881e-47
1.24006e-47
1.24132e-47
1.24262e-47
1.24393e-47
1.24528e-47
1.24664e-47
1.24803e-47
1.24945e-47
1.25089e-47
1.25235e-47
1.25383e-47
1.25533e-47
1.25686e-47
1.2584e-47
1.25997e-47
1.26155e-47
1.26314e-47
1.26475e-47
1.26638e-47
1.26801e-47
1.26966e-47
1.27132e-47
1.27298e-47
1.27465e-47
1.27632e-47
1.27799e-47
1.27966e-47
1.28132e-47
1.28298e-47
1.28463e-47
1.28626e-47
1.28788e-47
1.28948e-47
1.29106e-47
1.29261e-47
1.29413e-47
1.29562e-47
1.29707e-47
1.29848e-47
1.29985e-47
1.30118e-47
1.30247e-47
1.3039e-47
1.30654e-47
1.31791e-47
1.38974e-47
1.87598e-47
5.18644e-47
2.76426e-46
1.79171e-45
1.19574e-44
7.97359e-44
5.28708e-43
3.48294e-42
2.2797e-41
1.48399e-40
9.63015e-40
6.25432e-39
4.07666e-38
2.64468e-37
1.63353e-36
)
;

boundaryField
{
    boundary
    {
        type            empty;
    }
    inlet
    {
        type            fixedValue;
        value           nonuniform 0();
    }
    outlet
    {
        type            zeroGradient;
    }
    procBoundary3to1
    {
        type            processor;
        value           uniform 9.42275e-36;
    }
    procBoundary3to2
    {
        type            processor;
        value           uniform 1.17933e-47;
    }
}


// ************************************************************************* //
