/*--------------------------------*- C++ -*----------------------------------*\
  =========                 |
  \\      /  F ield         | OpenFOAM: The Open Source CFD Toolbox
   \\    /   O peration     | Website:  https://openfoam.org
    \\  /    A nd           | Version:  7
     \\/     M anipulation  |
\*---------------------------------------------------------------------------*/
FoamFile
{
    version     2.0;
    format      ascii;
    class       volScalarField;
    location    "1e-05";
    object      p;
}
// * * * * * * * * * * * * * * * * * * * * * * * * * * * * * * * * * * * * * //

dimensions      [1 -1 -2 0 0 0 0];

internalField   nonuniform List<scalar> 
126
(
101494
101499
101504
101509
101514
101519
101524
101529
101535
101541
101546
101552
101558
101564
101570
101576
101583
101589
101595
101602
101609
101616
101622
101629
101636
101644
101651
101658
101665
101673
101680
101688
101695
101703
101710
101718
101726
101734
101741
101749
101757
101765
101772
101780
101788
101795
101803
101810
101818
101825
101832
101839
101847
101853
101860
101867
101873
101879
101886
101891
101897
101902
101908
101913
101917
101922
101926
101930
101933
101936
101939
101942
101944
101945
101947
101948
101948
101948
101948
101948
101947
101945
101943
101941
101938
101935
101931
101927
101922
101918
101912
101906
101900
101894
101887
101879
101872
101864
101856
101847
101838
101829
101820
101811
101801
101792
101782
101772
101762
101752
101743
101733
101723
101714
101705
101696
101687
101679
101671
101663
101656
101649
101643
101637
101632
101627
)
;

boundaryField
{
    boundary
    {
        type            empty;
    }
    inlet
    {
        type            zeroGradient;
    }
    outlet
    {
        type            waveTransmissive;
        gamma           1.4;
        value           nonuniform 0();
    }
    procBoundary3to1
    {
        type            processor;
        value           uniform 101623;
    }
    procBoundary3to2
    {
        type            processor;
        value           uniform 101489;
    }
}


// ************************************************************************* //
