/*--------------------------------*- C++ -*----------------------------------*\
  =========                 |
  \\      /  F ield         | OpenFOAM: The Open Source CFD Toolbox
   \\    /   O peration     | Website:  https://openfoam.org
    \\  /    A nd           | Version:  7
     \\/     M anipulation  |
\*---------------------------------------------------------------------------*/
FoamFile
{
    version     2.0;
    format      ascii;
    class       surfaceScalarField;
    location    "1e-05";
    object      phi;
}
// * * * * * * * * * * * * * * * * * * * * * * * * * * * * * * * * * * * * * //

dimensions      [1 0 -1 0 0 0 0];

internalField   nonuniform List<scalar> 
125
(
5.27919e-06
5.23677e-06
5.19348e-06
5.1493e-06
5.10425e-06
5.05831e-06
5.0115e-06
4.9638e-06
4.91523e-06
4.86578e-06
4.81547e-06
4.76429e-06
4.71226e-06
4.65938e-06
4.60567e-06
4.55114e-06
4.4958e-06
4.43967e-06
4.38276e-06
4.32511e-06
4.26672e-06
4.20762e-06
4.14784e-06
4.0874e-06
4.02635e-06
3.9647e-06
3.90249e-06
3.83976e-06
3.77655e-06
3.71291e-06
3.64887e-06
3.58449e-06
3.51981e-06
3.45489e-06
3.38978e-06
3.32454e-06
3.25923e-06
3.19392e-06
3.12868e-06
3.06356e-06
2.99865e-06
2.93402e-06
2.86974e-06
2.8059e-06
2.74258e-06
2.67987e-06
2.61785e-06
2.55662e-06
2.49627e-06
2.43689e-06
2.37858e-06
2.32144e-06
2.26558e-06
2.21109e-06
2.15808e-06
2.10665e-06
2.05692e-06
2.00899e-06
1.96297e-06
1.91897e-06
1.87709e-06
1.83745e-06
1.80016e-06
1.76531e-06
1.73302e-06
1.70339e-06
1.67653e-06
1.65252e-06
1.63148e-06
1.61348e-06
1.59863e-06
1.587e-06
1.57868e-06
1.57374e-06
1.57225e-06
1.57427e-06
1.57986e-06
1.58906e-06
1.60193e-06
1.61847e-06
1.63873e-06
1.66271e-06
1.69042e-06
1.72185e-06
1.75697e-06
1.79576e-06
1.83817e-06
1.88415e-06
1.93363e-06
1.98653e-06
2.04275e-06
2.10219e-06
2.16471e-06
2.23018e-06
2.29846e-06
2.36936e-06
2.44271e-06
2.51831e-06
2.59596e-06
2.67543e-06
2.75647e-06
2.83885e-06
2.92229e-06
3.00653e-06
3.09128e-06
3.17623e-06
3.26109e-06
3.34555e-06
3.42928e-06
3.51196e-06
3.59327e-06
3.67287e-06
3.75044e-06
3.82565e-06
3.89817e-06
3.9677e-06
4.03391e-06
4.09651e-06
4.15522e-06
4.20976e-06
4.25988e-06
4.30534e-06
4.34594e-06
4.38148e-06
4.41181e-06
)
;

boundaryField
{
    boundary
    {
        type            empty;
        value           nonuniform 0();
    }
    inlet
    {
        type            calculated;
        value           nonuniform 0();
    }
    outlet
    {
        type            calculated;
        value           nonuniform 0();
    }
    procBoundary3to1
    {
        type            processor;
        value           uniform 4.43683e-06;
    }
    procBoundary3to2
    {
        type            processor;
        value           uniform -5.32076e-06;
    }
}


// ************************************************************************* //
