/*--------------------------------*- C++ -*----------------------------------*\
  =========                 |
  \\      /  F ield         | OpenFOAM: The Open Source CFD Toolbox
   \\    /   O peration     | Website:  https://openfoam.org
    \\  /    A nd           | Version:  7
     \\/     M anipulation  |
\*---------------------------------------------------------------------------*/
FoamFile
{
    version     2.0;
    format      ascii;
    class       volScalarField;
    location    "1e-05";
    object      Qdot;
}
// * * * * * * * * * * * * * * * * * * * * * * * * * * * * * * * * * * * * * //

dimensions      [1 -1 -3 0 0 0 0];

internalField   nonuniform List<scalar> 
126
(
-1.68817e-27
-1.69004e-27
-1.6908e-27
-1.69189e-27
-1.69331e-27
-1.69493e-27
-1.69666e-27
-1.69848e-27
-1.70036e-27
-1.7023e-27
-1.7043e-27
-1.70636e-27
-1.70848e-27
-1.71066e-27
-1.71291e-27
-1.71522e-27
-1.7176e-27
-1.72005e-27
-1.72256e-27
-1.72515e-27
-1.7278e-27
-1.73053e-27
-1.73334e-27
-1.73622e-27
-1.73918e-27
-1.74221e-27
-1.74533e-27
-1.74852e-27
-1.7518e-27
-1.75515e-27
-1.75859e-27
-1.76212e-27
-1.76573e-27
-1.76943e-27
-1.77321e-27
-1.77708e-27
-1.78104e-27
-1.78508e-27
-1.78922e-27
-1.79344e-27
-1.79775e-27
-1.80215e-27
-1.80663e-27
-1.8112e-27
-1.81586e-27
-1.82061e-27
-1.82543e-27
-1.83034e-27
-1.83534e-27
-1.84041e-27
-1.84556e-27
-1.85078e-27
-1.85607e-27
-1.86144e-27
-1.86686e-27
-1.87236e-27
-1.8779e-27
-1.8835e-27
-1.88915e-27
-1.89484e-27
-1.90057e-27
-1.90633e-27
-1.91212e-27
-1.91791e-27
-1.92372e-27
-1.92953e-27
-1.93533e-27
-1.94111e-27
-1.94687e-27
-1.95258e-27
-1.95825e-27
-1.96385e-27
-1.96938e-27
-1.97482e-27
-1.98017e-27
-1.98539e-27
-1.99048e-27
-1.99543e-27
-2.00021e-27
-2.00482e-27
-2.00922e-27
-2.01341e-27
-2.01737e-27
-2.02107e-27
-2.02449e-27
-2.02762e-27
-2.03043e-27
-2.03291e-27
-2.03503e-27
-2.03677e-27
-2.03811e-27
-2.03902e-27
-2.03949e-27
-2.03949e-27
-2.039e-27
-2.038e-27
-2.03647e-27
-2.03439e-27
-2.03174e-27
-2.0285e-27
-2.02466e-27
-2.02019e-27
-2.01509e-27
-2.00935e-27
-2.00293e-27
-1.99578e-27
-1.98752e-27
-1.97561e-27
-1.94307e-27
-1.77709e-27
-7.3334e-28
6.05736e-27
5.01559e-26
3.34083e-25
2.14306e-24
1.35342e-23
8.43362e-23
5.18069e-22
3.13215e-21
1.85983e-20
1.08174e-19
6.141e-19
3.38528e-18
1.79736e-17
9.05579e-17
4.19454e-16
)
;

boundaryField
{
    boundary
    {
        type            empty;
    }
    inlet
    {
        type            calculated;
        value           nonuniform 0();
    }
    outlet
    {
        type            calculated;
        value           nonuniform 0();
    }
    procBoundary3to1
    {
        type            processor;
        value           uniform 0;
    }
    procBoundary3to2
    {
        type            processor;
        value           uniform 0;
    }
}


// ************************************************************************* //
