/*--------------------------------*- C++ -*----------------------------------*\
  =========                 |
  \\      /  F ield         | OpenFOAM: The Open Source CFD Toolbox
   \\    /   O peration     | Website:  https://openfoam.org
    \\  /    A nd           | Version:  7
     \\/     M anipulation  |
\*---------------------------------------------------------------------------*/
FoamFile
{
    version     2.0;
    format      ascii;
    class       volScalarField;
    location    "1e-05";
    object      T;
}
// * * * * * * * * * * * * * * * * * * * * * * * * * * * * * * * * * * * * * //

dimensions      [0 0 0 1 0 0 0];

internalField   nonuniform List<scalar> 
126
(
300.085
300.088
300.091
300.093
300.096
300.099
300.103
300.106
300.109
300.112
300.116
300.119
300.123
300.126
300.13
300.134
300.138
300.142
300.146
300.15
300.155
300.159
300.164
300.168
300.173
300.178
300.183
300.188
300.193
300.198
300.203
300.208
300.214
300.219
300.225
300.231
300.236
300.242
300.248
300.254
300.26
300.267
300.273
300.279
300.285
300.292
300.298
300.305
300.311
300.318
300.325
300.331
300.338
300.345
300.351
300.358
300.365
300.371
300.378
300.385
300.391
300.398
300.404
300.41
300.416
300.423
300.429
300.435
300.44
300.446
300.451
300.457
300.462
300.466
300.471
300.475
300.48
300.483
300.487
300.49
300.493
300.496
300.498
300.5
300.502
300.503
300.504
300.504
300.504
300.503
300.502
300.501
300.499
300.496
300.493
300.49
300.486
300.482
300.477
300.471
300.465
300.458
300.451
300.443
300.435
300.426
300.417
300.407
300.397
300.386
300.375
300.363
300.351
300.338
300.326
300.312
300.299
300.285
300.271
300.256
300.242
300.227
300.212
300.198
300.183
300.168
)
;

boundaryField
{
    boundary
    {
        type            empty;
    }
    inlet
    {
        type            fixedValue;
        value           nonuniform 0();
    }
    outlet
    {
        type            zeroGradient;
    }
    procBoundary3to1
    {
        type            processor;
        value           uniform 300.153;
    }
    procBoundary3to2
    {
        type            processor;
        value           uniform 300.082;
    }
}


// ************************************************************************* //
