/*--------------------------------*- C++ -*----------------------------------*\
  =========                 |
  \\      /  F ield         | OpenFOAM: The Open Source CFD Toolbox
   \\    /   O peration     | Website:  https://openfoam.org
    \\  /    A nd           | Version:  7
     \\/     M anipulation  |
\*---------------------------------------------------------------------------*/
FoamFile
{
    version     2.0;
    format      ascii;
    class       volVectorField;
    location    "1e-05";
    object      U;
}
// * * * * * * * * * * * * * * * * * * * * * * * * * * * * * * * * * * * * * //

dimensions      [0 1 -1 0 0 0 0];

internalField   nonuniform List<vector> 
126
(
(1.82608 0 0)
(1.81143 0 0)
(1.79637 0 0)
(1.78136 0 0)
(1.76598 0 0)
(1.75022 0 0)
(1.73417 0 0)
(1.71782 0 0)
(1.70117 0 0)
(1.68422 0 0)
(1.66696 0 0)
(1.64941 0 0)
(1.63157 0 0)
(1.61343 0 0)
(1.595 0 0)
(1.57629 0 0)
(1.5573 0 0)
(1.53804 0 0)
(1.51851 0 0)
(1.49871 0 0)
(1.47866 0 0)
(1.45837 0 0)
(1.43783 0 0)
(1.41707 0 0)
(1.39609 0 0)
(1.3749 0 0)
(1.35352 0 0)
(1.33195 0 0)
(1.31021 0 0)
(1.28832 0 0)
(1.26629 0 0)
(1.24413 0 0)
(1.22186 0 0)
(1.1995 0 0)
(1.17708 0 0)
(1.1546 0 0)
(1.13208 0 0)
(1.10956 0 0)
(1.08705 0 0)
(1.06458 0 0)
(1.04217 0 0)
(1.01984 0 0)
(0.997626 0 0)
(0.975551 0 0)
(0.953644 0 0)
(0.931933 0 0)
(0.910449 0 0)
(0.889222 0 0)
(0.868283 0 0)
(0.847666 0 0)
(0.827404 0 0)
(0.807529 0 0)
(0.788077 0 0)
(0.769082 0 0)
(0.750581 0 0)
(0.73261 0 0)
(0.715204 0 0)
(0.698401 0 0)
(0.682237 0 0)
(0.666751 0 0)
(0.651978 0 0)
(0.637958 0 0)
(0.624726 0 0)
(0.612319 0 0)
(0.600774 0 0)
(0.590127 0 0)
(0.580413 0 0)
(0.571666 0 0)
(0.563921 0 0)
(0.55721 0 0)
(0.551563 0 0)
(0.547011 0 0)
(0.543583 0 0)
(0.541304 0 0)
(0.540199 0 0)
(0.540292 0 0)
(0.541602 0 0)
(0.544147 0 0)
(0.547942 0 0)
(0.553 0 0)
(0.559331 0 0)
(0.566939 0 0)
(0.575829 0 0)
(0.586 0 0)
(0.597446 0 0)
(0.61016 0 0)
(0.624127 0 0)
(0.63934 0 0)
(0.655716 0 0)
(0.673446 0 0)
(0.692054 0 0)
(0.712091 0 0)
(0.733067 0 0)
(0.755073 0 0)
(0.778097 0 0)
(0.802057 0 0)
(0.826893 0 0)
(0.852542 0 0)
(0.878934 0 0)
(0.905993 0 0)
(0.933639 0 0)
(0.961797 0 0)
(0.990327 0 0)
(1.01929 0 0)
(1.04833 0 0)
(1.0776 0 0)
(1.10694 0 0)
(1.13608 0 0)
(1.16506 0 0)
(1.19376 0 0)
(1.22203 0 0)
(1.24977 0 0)
(1.27687 0 0)
(1.30322 0 0)
(1.32869 0 0)
(1.35319 0 0)
(1.37659 0 0)
(1.39878 0 0)
(1.41975 0 0)
(1.4392 0 0)
(1.45728 0 0)
(1.47377 0 0)
(1.48857 0 0)
(1.50169 0 0)
(1.51301 0 0)
(1.52244 0 0)
)
;

boundaryField
{
    boundary
    {
        type            empty;
    }
    inlet
    {
        type            fixedValue;
        value           nonuniform 0();
    }
    outlet
    {
        type            zeroGradient;
    }
    procBoundary3to1
    {
        type            processor;
        value           uniform (1.53018 0 0);
    }
    procBoundary3to2
    {
        type            processor;
        value           uniform (1.84015 0 0);
    }
}


// ************************************************************************* //
