/*--------------------------------*- C++ -*----------------------------------*\
  =========                 |
  \\      /  F ield         | OpenFOAM: The Open Source CFD Toolbox
   \\    /   O peration     | Website:  https://openfoam.org
    \\  /    A nd           | Version:  7
     \\/     M anipulation  |
\*---------------------------------------------------------------------------*/
FoamFile
{
    version     2.0;
    format      ascii;
    class       volScalarField;
    location    "0.0001";
    object      H2O2;
}
// * * * * * * * * * * * * * * * * * * * * * * * * * * * * * * * * * * * * * //

dimensions      [0 0 0 0 0 0 0];

internalField   nonuniform List<scalar> 
125
(
2.00401e-52
6.42558e-52
1.26246e-51
2.02754e-51
2.88452e-51
3.76626e-51
4.60495e-51
5.34581e-51
5.95616e-51
6.42698e-51
6.76841e-51
7.00208e-51
7.15355e-51
7.24687e-51
7.30169e-51
7.33249e-51
7.34907e-51
7.35764e-51
7.36191e-51
7.36396e-51
7.3649e-51
7.36531e-51
7.36548e-51
7.36555e-51
7.36556e-51
7.36555e-51
7.36554e-51
7.36552e-51
7.3655e-51
7.36549e-51
7.36547e-51
7.36545e-51
7.36543e-51
7.36542e-51
7.3654e-51
7.36539e-51
7.36537e-51
7.36536e-51
7.36535e-51
7.36535e-51
7.36534e-51
7.36534e-51
7.36534e-51
7.36534e-51
7.36534e-51
7.36535e-51
7.36536e-51
7.36538e-51
7.36539e-51
7.36541e-51
7.36544e-51
7.36547e-51
7.3655e-51
7.36554e-51
7.36558e-51
7.36563e-51
7.36568e-51
7.36574e-51
7.3658e-51
7.36587e-51
7.36594e-51
7.36602e-51
7.36611e-51
7.3662e-51
7.3663e-51
7.3664e-51
7.36651e-51
7.36663e-51
7.36676e-51
7.36689e-51
7.36703e-51
7.36718e-51
7.36734e-51
7.3675e-51
7.36767e-51
7.36785e-51
7.36804e-51
7.36824e-51
7.36845e-51
7.36866e-51
7.36889e-51
7.36912e-51
7.36937e-51
7.36962e-51
7.36988e-51
7.37015e-51
7.37044e-51
7.37073e-51
7.37103e-51
7.37134e-51
7.37166e-51
7.372e-51
7.37234e-51
7.37269e-51
7.37306e-51
7.37343e-51
7.37381e-51
7.37421e-51
7.37462e-51
7.37503e-51
7.37546e-51
7.3759e-51
7.37635e-51
7.37681e-51
7.37727e-51
7.37775e-51
7.37824e-51
7.37874e-51
7.37926e-51
7.37978e-51
7.38031e-51
7.38084e-51
7.38139e-51
7.38195e-51
7.38252e-51
7.38309e-51
7.38368e-51
7.38426e-51
7.38485e-51
7.38537e-51
7.38566e-51
7.38492e-51
7.38014e-51
7.35988e-51
7.28411e-51
)
;

boundaryField
{
    boundary
    {
        type            empty;
    }
    inlet
    {
        type            fixedValue;
        value           uniform 0;
    }
    outlet
    {
        type            zeroGradient;
    }
    procBoundary2to3
    {
        type            processor;
        value           uniform 7.14171e-51;
    }
}


// ************************************************************************* //
