/*--------------------------------*- C++ -*----------------------------------*\
  =========                 |
  \\      /  F ield         | OpenFOAM: The Open Source CFD Toolbox
   \\    /   O peration     | Website:  https://openfoam.org
    \\  /    A nd           | Version:  7
     \\/     M anipulation  |
\*---------------------------------------------------------------------------*/
FoamFile
{
    version     2.0;
    format      ascii;
    class       volScalarField;
    location    "0.0001";
    object      p;
}
// * * * * * * * * * * * * * * * * * * * * * * * * * * * * * * * * * * * * * //

dimensions      [1 -1 -2 0 0 0 0];

internalField   nonuniform List<scalar> 
125
(
102883
102883
102883
102883
102883
102883
102883
102883
102883
102883
102883
102883
102883
102883
102883
102883
102883
102883
102883
102883
102883
102883
102883
102883
102883
102883
102884
102884
102884
102884
102884
102884
102884
102884
102884
102884
102884
102884
102884
102884
102884
102885
102885
102885
102885
102885
102885
102885
102885
102885
102885
102885
102886
102886
102886
102886
102886
102886
102886
102886
102886
102887
102887
102887
102887
102887
102887
102887
102887
102888
102888
102888
102888
102888
102888
102888
102889
102889
102889
102889
102889
102889
102890
102890
102890
102890
102890
102890
102891
102891
102891
102891
102891
102891
102892
102892
102892
102892
102892
102892
102893
102893
102893
102893
102893
102894
102894
102894
102894
102894
102895
102895
102895
102895
102895
102896
102896
102896
102896
102897
102897
102897
102897
102897
102898
)
;

boundaryField
{
    boundary
    {
        type            empty;
    }
    inlet
    {
        type            zeroGradient;
    }
    outlet
    {
        type            waveTransmissive;
        gamma           1.4;
        value           nonuniform 0();
    }
    procBoundary2to3
    {
        type            processor;
        value           uniform 102898;
    }
}


// ************************************************************************* //
