/*--------------------------------*- C++ -*----------------------------------*\
  =========                 |
  \\      /  F ield         | OpenFOAM: The Open Source CFD Toolbox
   \\    /   O peration     | Website:  https://openfoam.org
    \\  /    A nd           | Version:  7
     \\/     M anipulation  |
\*---------------------------------------------------------------------------*/
FoamFile
{
    version     2.0;
    format      ascii;
    class       surfaceScalarField;
    location    "0.0001";
    object      phi;
}
// * * * * * * * * * * * * * * * * * * * * * * * * * * * * * * * * * * * * * //

dimensions      [1 0 -1 0 0 0 0];

internalField   nonuniform List<scalar> 
124
(
6.91322e-06
6.91198e-06
6.90977e-06
6.90666e-06
6.90288e-06
6.89878e-06
6.89476e-06
6.89112e-06
6.88806e-06
6.88563e-06
6.8838e-06
6.88246e-06
6.8815e-06
6.88083e-06
6.88034e-06
6.87996e-06
6.87966e-06
6.8794e-06
6.87916e-06
6.87893e-06
6.87871e-06
6.87849e-06
6.87827e-06
6.87804e-06
6.87782e-06
6.8776e-06
6.87737e-06
6.87714e-06
6.87691e-06
6.87667e-06
6.87644e-06
6.8762e-06
6.87596e-06
6.87572e-06
6.87548e-06
6.87523e-06
6.87498e-06
6.87473e-06
6.87447e-06
6.87421e-06
6.87395e-06
6.87369e-06
6.87342e-06
6.87315e-06
6.87288e-06
6.8726e-06
6.87232e-06
6.87204e-06
6.87175e-06
6.87145e-06
6.87116e-06
6.87085e-06
6.87055e-06
6.87024e-06
6.86992e-06
6.8696e-06
6.86928e-06
6.86894e-06
6.86861e-06
6.86826e-06
6.86791e-06
6.86756e-06
6.8672e-06
6.86683e-06
6.86645e-06
6.86607e-06
6.86568e-06
6.86528e-06
6.86488e-06
6.86446e-06
6.86404e-06
6.86361e-06
6.86317e-06
6.86272e-06
6.86226e-06
6.86179e-06
6.86131e-06
6.86082e-06
6.86032e-06
6.85981e-06
6.85928e-06
6.85875e-06
6.8582e-06
6.85764e-06
6.85706e-06
6.85647e-06
6.85587e-06
6.85525e-06
6.85462e-06
6.85398e-06
6.85332e-06
6.85264e-06
6.85195e-06
6.85124e-06
6.85051e-06
6.84976e-06
6.849e-06
6.84822e-06
6.84742e-06
6.84661e-06
6.84577e-06
6.84491e-06
6.84404e-06
6.84314e-06
6.84222e-06
6.84128e-06
6.84032e-06
6.83934e-06
6.83833e-06
6.83731e-06
6.83626e-06
6.83518e-06
6.83408e-06
6.83296e-06
6.83182e-06
6.83065e-06
6.82945e-06
6.82823e-06
6.82699e-06
6.82572e-06
6.82442e-06
6.8231e-06
6.82175e-06
6.82037e-06
)
;

boundaryField
{
    boundary
    {
        type            empty;
        value           nonuniform 0();
    }
    inlet
    {
        type            calculated;
        value           uniform -6.91364e-06;
    }
    outlet
    {
        type            calculated;
        value           nonuniform 0();
    }
    procBoundary2to3
    {
        type            processor;
        value           uniform 6.81897e-06;
    }
}


// ************************************************************************* //
