/*--------------------------------*- C++ -*----------------------------------*\
  =========                 |
  \\      /  F ield         | OpenFOAM: The Open Source CFD Toolbox
   \\    /   O peration     | Website:  https://openfoam.org
    \\  /    A nd           | Version:  7
     \\/     M anipulation  |
\*---------------------------------------------------------------------------*/
FoamFile
{
    version     2.0;
    format      ascii;
    class       volScalarField;
    location    "0.0001";
    object      T;
}
// * * * * * * * * * * * * * * * * * * * * * * * * * * * * * * * * * * * * * //

dimensions      [0 0 0 1 0 0 0];

internalField   nonuniform List<scalar> 
125
(
300.023
300.091
300.197
300.335
300.494
300.658
300.813
300.947
301.056
301.14
301.2
301.24
301.267
301.283
301.293
301.299
301.302
301.303
301.304
301.305
301.305
301.305
301.305
301.305
301.305
301.305
301.305
301.305
301.305
301.305
301.306
301.306
301.306
301.306
301.306
301.306
301.306
301.306
301.306
301.306
301.306
301.306
301.306
301.306
301.307
301.307
301.307
301.307
301.307
301.307
301.307
301.307
301.307
301.307
301.308
301.308
301.308
301.308
301.308
301.308
301.308
301.308
301.309
301.309
301.309
301.309
301.309
301.309
301.309
301.31
301.31
301.31
301.31
301.31
301.31
301.311
301.311
301.311
301.311
301.311
301.312
301.312
301.312
301.312
301.313
301.313
301.313
301.313
301.314
301.314
301.314
301.314
301.315
301.315
301.315
301.315
301.316
301.316
301.316
301.317
301.317
301.317
301.317
301.318
301.318
301.318
301.319
301.319
301.319
301.32
301.32
301.32
301.321
301.321
301.322
301.322
301.322
301.323
301.323
301.323
301.324
301.324
301.324
301.325
301.325
)
;

boundaryField
{
    boundary
    {
        type            empty;
    }
    inlet
    {
        type            fixedValue;
        value           uniform 300;
    }
    outlet
    {
        type            zeroGradient;
    }
    procBoundary2to3
    {
        type            processor;
        value           uniform 301.325;
    }
}


// ************************************************************************* //
