/*--------------------------------*- C++ -*----------------------------------*\
  =========                 |
  \\      /  F ield         | OpenFOAM: The Open Source CFD Toolbox
   \\    /   O peration     | Website:  https://openfoam.org
    \\  /    A nd           | Version:  7
     \\/     M anipulation  |
\*---------------------------------------------------------------------------*/
FoamFile
{
    version     2.0;
    format      ascii;
    class       volVectorField;
    location    "0.0001";
    object      U;
}
// * * * * * * * * * * * * * * * * * * * * * * * * * * * * * * * * * * * * * //

dimensions      [0 1 -1 0 0 0 0];

internalField   nonuniform List<vector> 
125
(
(2.34896 0 0)
(2.34937 0 0)
(2.34975 0 0)
(2.34985 0 0)
(2.34977 0 0)
(2.34969 0 0)
(2.34953 0 0)
(2.34927 0 0)
(2.34895 0 0)
(2.34866 0 0)
(2.34841 0 0)
(2.3482 0 0)
(2.34802 0 0)
(2.34788 0 0)
(2.34776 0 0)
(2.34766 0 0)
(2.34758 0 0)
(2.34749 0 0)
(2.34741 0 0)
(2.34734 0 0)
(2.34726 0 0)
(2.34719 0 0)
(2.34711 0 0)
(2.34703 0 0)
(2.34696 0 0)
(2.34688 0 0)
(2.3468 0 0)
(2.34672 0 0)
(2.34665 0 0)
(2.34657 0 0)
(2.34648 0 0)
(2.34639 0 0)
(2.34632 0 0)
(2.34624 0 0)
(2.34615 0 0)
(2.34607 0 0)
(2.34598 0 0)
(2.34589 0 0)
(2.34581 0 0)
(2.34572 0 0)
(2.34563 0 0)
(2.34554 0 0)
(2.34544 0 0)
(2.34535 0 0)
(2.34526 0 0)
(2.34516 0 0)
(2.34506 0 0)
(2.34497 0 0)
(2.34487 0 0)
(2.34477 0 0)
(2.34466 0 0)
(2.34456 0 0)
(2.34446 0 0)
(2.34435 0 0)
(2.34424 0 0)
(2.34413 0 0)
(2.34402 0 0)
(2.3439 0 0)
(2.34379 0 0)
(2.34367 0 0)
(2.34355 0 0)
(2.34343 0 0)
(2.34331 0 0)
(2.34318 0 0)
(2.34305 0 0)
(2.34292 0 0)
(2.34279 0 0)
(2.34265 0 0)
(2.34251 0 0)
(2.34237 0 0)
(2.34222 0 0)
(2.34208 0 0)
(2.34192 0 0)
(2.34177 0 0)
(2.34162 0 0)
(2.34146 0 0)
(2.34129 0 0)
(2.34112 0 0)
(2.34095 0 0)
(2.34078 0 0)
(2.3406 0 0)
(2.34042 0 0)
(2.34023 0 0)
(2.34004 0 0)
(2.33984 0 0)
(2.33964 0 0)
(2.33944 0 0)
(2.33923 0 0)
(2.33901 0 0)
(2.33879 0 0)
(2.33857 0 0)
(2.33834 0 0)
(2.3381 0 0)
(2.33786 0 0)
(2.33761 0 0)
(2.33736 0 0)
(2.3371 0 0)
(2.33684 0 0)
(2.33656 0 0)
(2.33629 0 0)
(2.336 0 0)
(2.33571 0 0)
(2.33541 0 0)
(2.33511 0 0)
(2.3348 0 0)
(2.33448 0 0)
(2.33415 0 0)
(2.33382 0 0)
(2.33348 0 0)
(2.33313 0 0)
(2.33277 0 0)
(2.3324 0 0)
(2.33203 0 0)
(2.33165 0 0)
(2.33126 0 0)
(2.33087 0 0)
(2.33046 0 0)
(2.33005 0 0)
(2.32962 0 0)
(2.32919 0 0)
(2.32875 0 0)
(2.3283 0 0)
(2.32784 0 0)
(2.32738 0 0)
(2.32689 0 0)
)
;

boundaryField
{
    boundary
    {
        type            empty;
    }
    inlet
    {
        type            fixedValue;
        value           uniform (2.34893 0 0);
    }
    outlet
    {
        type            zeroGradient;
    }
    procBoundary2to3
    {
        type            processor;
        value           uniform (2.32639 0 0);
    }
}


// ************************************************************************* //
