/*--------------------------------*- C++ -*----------------------------------*\
  =========                 |
  \\      /  F ield         | OpenFOAM: The Open Source CFD Toolbox
   \\    /   O peration     | Website:  https://openfoam.org
    \\  /    A nd           | Version:  7
     \\/     M anipulation  |
\*---------------------------------------------------------------------------*/
FoamFile
{
    version     2.0;
    format      ascii;
    class       surfaceScalarField;
    location    "0.00031";
    object      phi;
}
// * * * * * * * * * * * * * * * * * * * * * * * * * * * * * * * * * * * * * //

dimensions      [1 0 -1 0 0 0 0];

internalField   nonuniform List<scalar> 
124
(
6.93091e-06
6.9305e-06
6.93008e-06
6.92964e-06
6.92917e-06
6.92866e-06
6.92809e-06
6.92745e-06
6.92672e-06
6.92589e-06
6.92494e-06
6.92384e-06
6.92258e-06
6.92116e-06
6.91958e-06
6.91782e-06
6.91591e-06
6.91387e-06
6.91173e-06
6.90951e-06
6.90727e-06
6.90503e-06
6.90284e-06
6.90074e-06
6.89875e-06
6.8969e-06
6.89521e-06
6.89368e-06
6.89232e-06
6.89113e-06
6.89008e-06
6.88918e-06
6.88839e-06
6.88772e-06
6.88713e-06
6.88661e-06
6.88615e-06
6.88574e-06
6.88537e-06
6.88502e-06
6.88469e-06
6.88437e-06
6.88407e-06
6.88377e-06
6.88348e-06
6.8832e-06
6.88291e-06
6.88263e-06
6.88234e-06
6.88206e-06
6.88178e-06
6.8815e-06
6.88122e-06
6.88094e-06
6.88065e-06
6.88037e-06
6.88009e-06
6.87981e-06
6.87953e-06
6.87925e-06
6.87897e-06
6.87869e-06
6.87841e-06
6.87813e-06
6.87785e-06
6.87757e-06
6.87729e-06
6.87701e-06
6.87672e-06
6.87644e-06
6.87616e-06
6.87588e-06
6.8756e-06
6.87532e-06
6.87504e-06
6.87476e-06
6.87448e-06
6.8742e-06
6.87392e-06
6.87364e-06
6.87336e-06
6.87308e-06
6.8728e-06
6.87252e-06
6.87224e-06
6.87196e-06
6.87168e-06
6.87141e-06
6.87113e-06
6.87085e-06
6.87057e-06
6.87029e-06
6.87001e-06
6.86973e-06
6.86945e-06
6.86917e-06
6.86889e-06
6.86861e-06
6.86833e-06
6.86805e-06
6.86777e-06
6.86749e-06
6.86721e-06
6.86693e-06
6.86666e-06
6.86638e-06
6.8661e-06
6.86582e-06
6.86554e-06
6.86526e-06
6.86498e-06
6.8647e-06
6.86442e-06
6.86414e-06
6.86386e-06
6.86359e-06
6.86331e-06
6.86303e-06
6.86275e-06
6.86247e-06
6.86219e-06
6.86191e-06
6.86163e-06
6.86136e-06
)
;

boundaryField
{
    boundary
    {
        type            empty;
        value           nonuniform 0();
    }
    inlet
    {
        type            calculated;
        value           uniform -6.93132e-06;
    }
    outlet
    {
        type            calculated;
        value           nonuniform 0();
    }
    procBoundary2to3
    {
        type            processor;
        value           uniform 6.86108e-06;
    }
}


// ************************************************************************* //
