/*--------------------------------*- C++ -*----------------------------------*\
  =========                 |
  \\      /  F ield         | OpenFOAM: The Open Source CFD Toolbox
   \\    /   O peration     | Website:  https://openfoam.org
    \\  /    A nd           | Version:  7
     \\/     M anipulation  |
\*---------------------------------------------------------------------------*/
FoamFile
{
    version     2.0;
    format      ascii;
    class       volScalarField;
    location    "8e-05";
    object      H;
}
// * * * * * * * * * * * * * * * * * * * * * * * * * * * * * * * * * * * * * //

dimensions      [0 0 0 0 0 0 0];

internalField   nonuniform List<scalar> 
124
(
7.55933e-05
7.54668e-05
7.53654e-05
7.52832e-05
7.5216e-05
7.5161e-05
7.51158e-05
7.50786e-05
7.5048e-05
7.5023e-05
7.50025e-05
7.49857e-05
7.49721e-05
7.4961e-05
7.49521e-05
7.49448e-05
7.4939e-05
7.49343e-05
7.49306e-05
7.49277e-05
7.49253e-05
7.49235e-05
7.4922e-05
7.49209e-05
7.492e-05
7.49193e-05
7.49187e-05
7.49183e-05
7.4918e-05
7.49178e-05
7.49176e-05
7.49175e-05
7.49174e-05
7.49173e-05
7.49172e-05
7.49172e-05
7.49171e-05
7.49171e-05
7.49171e-05
7.4917e-05
7.4917e-05
7.4917e-05
7.4917e-05
7.49169e-05
7.49169e-05
7.49169e-05
7.49169e-05
7.49168e-05
7.49168e-05
7.49167e-05
7.49167e-05
7.49167e-05
7.49166e-05
7.49166e-05
7.49165e-05
7.49165e-05
7.49164e-05
7.49164e-05
7.49163e-05
7.49163e-05
7.49162e-05
7.49162e-05
7.49161e-05
7.4916e-05
7.4916e-05
7.49159e-05
7.49159e-05
7.49158e-05
7.49158e-05
7.49157e-05
7.49156e-05
7.49156e-05
7.49155e-05
7.49154e-05
7.49154e-05
7.49153e-05
7.49153e-05
7.49152e-05
7.49151e-05
7.49151e-05
7.4915e-05
7.49149e-05
7.49149e-05
7.49148e-05
7.49147e-05
7.49147e-05
7.49146e-05
7.49145e-05
7.49145e-05
7.49144e-05
7.49143e-05
7.49143e-05
7.49142e-05
7.49141e-05
7.49141e-05
7.4914e-05
7.49139e-05
7.49139e-05
7.49138e-05
7.49137e-05
7.49137e-05
7.49136e-05
7.49135e-05
7.49135e-05
7.49134e-05
7.49134e-05
7.49133e-05
7.49132e-05
7.49132e-05
7.49131e-05
7.4913e-05
7.4913e-05
7.49129e-05
7.49129e-05
7.49128e-05
7.49127e-05
7.49127e-05
7.49126e-05
7.49126e-05
7.49125e-05
7.49125e-05
7.49124e-05
7.49124e-05
7.49124e-05
)
;

boundaryField
{
    boundary
    {
        type            empty;
    }
    inlet
    {
        type            fixedValue;
        value           nonuniform 0();
    }
    outlet
    {
        type            zeroGradient;
    }
    procBoundary0to1
    {
        type            processor;
        value           uniform 7.57545e-05;
    }
}


// ************************************************************************* //
