/*--------------------------------*- C++ -*----------------------------------*\
  =========                 |
  \\      /  F ield         | OpenFOAM: The Open Source CFD Toolbox
   \\    /   O peration     | Website:  https://openfoam.org
    \\  /    A nd           | Version:  7
     \\/     M anipulation  |
\*---------------------------------------------------------------------------*/
FoamFile
{
    version     2.0;
    format      ascii;
    class       volScalarField;
    location    "8e-05";
    object      H2O2;
}
// * * * * * * * * * * * * * * * * * * * * * * * * * * * * * * * * * * * * * //

dimensions      [0 0 0 0 0 0 0];

internalField   nonuniform List<scalar> 
124
(
1.90197e-07
1.90084e-07
1.89968e-07
1.89862e-07
1.89768e-07
1.89689e-07
1.89623e-07
1.89567e-07
1.89522e-07
1.89484e-07
1.89453e-07
1.89428e-07
1.89407e-07
1.89389e-07
1.89375e-07
1.89362e-07
1.89352e-07
1.89343e-07
1.89335e-07
1.89328e-07
1.89322e-07
1.89316e-07
1.89311e-07
1.89306e-07
1.89302e-07
1.89298e-07
1.89294e-07
1.8929e-07
1.89286e-07
1.89282e-07
1.89278e-07
1.89275e-07
1.89271e-07
1.89268e-07
1.89264e-07
1.8926e-07
1.89257e-07
1.89253e-07
1.8925e-07
1.89246e-07
1.89243e-07
1.89239e-07
1.89236e-07
1.89232e-07
1.89229e-07
1.89225e-07
1.89222e-07
1.89219e-07
1.89215e-07
1.89212e-07
1.89208e-07
1.89205e-07
1.89201e-07
1.89198e-07
1.89194e-07
1.89191e-07
1.89188e-07
1.89184e-07
1.89181e-07
1.89178e-07
1.89174e-07
1.89171e-07
1.89168e-07
1.89164e-07
1.89161e-07
1.89158e-07
1.89155e-07
1.89151e-07
1.89148e-07
1.89145e-07
1.89142e-07
1.89139e-07
1.89136e-07
1.89133e-07
1.8913e-07
1.89127e-07
1.89124e-07
1.89121e-07
1.89118e-07
1.89115e-07
1.89112e-07
1.8911e-07
1.89107e-07
1.89104e-07
1.89102e-07
1.89099e-07
1.89097e-07
1.89094e-07
1.89092e-07
1.89089e-07
1.89087e-07
1.89085e-07
1.89082e-07
1.8908e-07
1.89078e-07
1.89076e-07
1.89074e-07
1.89072e-07
1.8907e-07
1.89068e-07
1.89066e-07
1.89064e-07
1.89062e-07
1.89061e-07
1.89059e-07
1.89057e-07
1.89056e-07
1.89054e-07
1.89053e-07
1.89051e-07
1.8905e-07
1.89049e-07
1.89047e-07
1.89046e-07
1.89045e-07
1.89044e-07
1.89043e-07
1.89042e-07
1.89041e-07
1.8904e-07
1.89039e-07
1.89038e-07
1.89037e-07
1.89036e-07
)
;

boundaryField
{
    boundary
    {
        type            empty;
    }
    inlet
    {
        type            fixedValue;
        value           nonuniform 0();
    }
    outlet
    {
        type            zeroGradient;
    }
    procBoundary0to1
    {
        type            processor;
        value           uniform 1.90414e-07;
    }
}


// ************************************************************************* //
