/*--------------------------------*- C++ -*----------------------------------*\
  =========                 |
  \\      /  F ield         | OpenFOAM: The Open Source CFD Toolbox
   \\    /   O peration     | Website:  https://openfoam.org
    \\  /    A nd           | Version:  7
     \\/     M anipulation  |
\*---------------------------------------------------------------------------*/
FoamFile
{
    version     2.0;
    format      ascii;
    class       volScalarField;
    location    "8e-05";
    object      HO2;
}
// * * * * * * * * * * * * * * * * * * * * * * * * * * * * * * * * * * * * * //

dimensions      [0 0 0 0 0 0 0];

internalField   nonuniform List<scalar> 
124
(
1.73519e-06
1.73547e-06
1.73562e-06
1.73571e-06
1.73577e-06
1.73581e-06
1.73585e-06
1.73588e-06
1.73592e-06
1.73595e-06
1.73598e-06
1.73601e-06
1.73604e-06
1.73607e-06
1.73611e-06
1.73614e-06
1.73617e-06
1.7362e-06
1.73623e-06
1.73627e-06
1.7363e-06
1.73633e-06
1.73636e-06
1.73639e-06
1.73642e-06
1.73645e-06
1.73648e-06
1.73651e-06
1.73654e-06
1.73657e-06
1.73659e-06
1.73662e-06
1.73665e-06
1.73668e-06
1.73671e-06
1.73673e-06
1.73676e-06
1.73679e-06
1.73682e-06
1.73684e-06
1.73687e-06
1.7369e-06
1.73693e-06
1.73695e-06
1.73698e-06
1.73701e-06
1.73703e-06
1.73706e-06
1.73709e-06
1.73711e-06
1.73714e-06
1.73716e-06
1.73719e-06
1.73721e-06
1.73724e-06
1.73726e-06
1.73729e-06
1.73731e-06
1.73734e-06
1.73736e-06
1.73739e-06
1.73741e-06
1.73743e-06
1.73745e-06
1.73748e-06
1.7375e-06
1.73752e-06
1.73754e-06
1.73756e-06
1.73759e-06
1.73761e-06
1.73763e-06
1.73765e-06
1.73766e-06
1.73768e-06
1.7377e-06
1.73772e-06
1.73774e-06
1.73775e-06
1.73777e-06
1.73779e-06
1.7378e-06
1.73782e-06
1.73783e-06
1.73784e-06
1.73786e-06
1.73787e-06
1.73788e-06
1.7379e-06
1.73791e-06
1.73792e-06
1.73793e-06
1.73794e-06
1.73795e-06
1.73796e-06
1.73796e-06
1.73797e-06
1.73798e-06
1.73798e-06
1.73799e-06
1.73799e-06
1.73799e-06
1.738e-06
1.738e-06
1.738e-06
1.738e-06
1.738e-06
1.738e-06
1.738e-06
1.738e-06
1.73799e-06
1.73799e-06
1.73798e-06
1.73798e-06
1.73797e-06
1.73797e-06
1.73796e-06
1.73796e-06
1.73795e-06
1.73794e-06
1.73793e-06
1.73793e-06
1.73792e-06
1.73791e-06
)
;

boundaryField
{
    boundary
    {
        type            empty;
    }
    inlet
    {
        type            fixedValue;
        value           nonuniform 0();
    }
    outlet
    {
        type            zeroGradient;
    }
    procBoundary0to1
    {
        type            processor;
        value           uniform 1.73485e-06;
    }
}


// ************************************************************************* //
