/*--------------------------------*- C++ -*----------------------------------*\
  =========                 |
  \\      /  F ield         | OpenFOAM: The Open Source CFD Toolbox
   \\    /   O peration     | Website:  https://openfoam.org
    \\  /    A nd           | Version:  7
     \\/     M anipulation  |
\*---------------------------------------------------------------------------*/
FoamFile
{
    version     2.0;
    format      ascii;
    class       volScalarField;
    location    "8e-05";
    object      p;
}
// * * * * * * * * * * * * * * * * * * * * * * * * * * * * * * * * * * * * * //

dimensions      [1 -1 -2 0 0 0 0];

internalField   nonuniform List<scalar> 
124
(
102815
102814
102814
102814
102814
102813
102813
102813
102812
102812
102812
102811
102811
102811
102810
102810
102809
102809
102809
102808
102808
102808
102807
102807
102807
102806
102806
102806
102805
102805
102804
102804
102804
102803
102803
102802
102802
102802
102801
102801
102800
102800
102800
102799
102799
102798
102798
102798
102797
102797
102796
102796
102795
102795
102795
102794
102794
102793
102793
102792
102792
102791
102791
102790
102790
102790
102789
102789
102788
102788
102787
102787
102786
102786
102785
102785
102784
102784
102783
102783
102782
102782
102781
102781
102780
102780
102779
102779
102778
102777
102777
102776
102776
102775
102775
102774
102774
102773
102772
102772
102771
102771
102770
102770
102769
102768
102768
102767
102767
102766
102765
102765
102764
102763
102763
102762
102762
102761
102760
102760
102759
102758
102758
102757
)
;

boundaryField
{
    boundary
    {
        type            empty;
    }
    inlet
    {
        type            zeroGradient;
    }
    outlet
    {
        type            waveTransmissive;
        gamma           1.4;
        value           uniform 102757;
    }
    procBoundary0to1
    {
        type            processor;
        value           uniform 102815;
    }
}


// ************************************************************************* //
