/*--------------------------------*- C++ -*----------------------------------*\
  =========                 |
  \\      /  F ield         | OpenFOAM: The Open Source CFD Toolbox
   \\    /   O peration     | Website:  https://openfoam.org
    \\  /    A nd           | Version:  7
     \\/     M anipulation  |
\*---------------------------------------------------------------------------*/
FoamFile
{
    version     2.0;
    format      ascii;
    class       surfaceScalarField;
    location    "8e-05";
    object      phi;
}
// * * * * * * * * * * * * * * * * * * * * * * * * * * * * * * * * * * * * * //

dimensions      [1 0 -1 0 0 0 0];

internalField   nonuniform List<scalar> 
123
(
5.91407e-06
5.91309e-06
5.91206e-06
5.91099e-06
5.90989e-06
5.90876e-06
5.90761e-06
5.90644e-06
5.90525e-06
5.90404e-06
5.90282e-06
5.90159e-06
5.90034e-06
5.89909e-06
5.89782e-06
5.89654e-06
5.89525e-06
5.89396e-06
5.89265e-06
5.89133e-06
5.89001e-06
5.88868e-06
5.88734e-06
5.88599e-06
5.88463e-06
5.88327e-06
5.88189e-06
5.88051e-06
5.87912e-06
5.87773e-06
5.87632e-06
5.87491e-06
5.87349e-06
5.87206e-06
5.87062e-06
5.86918e-06
5.86772e-06
5.86626e-06
5.86479e-06
5.86331e-06
5.86182e-06
5.86032e-06
5.85882e-06
5.85731e-06
5.85578e-06
5.85425e-06
5.85271e-06
5.85117e-06
5.84961e-06
5.84804e-06
5.84647e-06
5.84489e-06
5.84329e-06
5.84169e-06
5.84008e-06
5.83846e-06
5.83683e-06
5.83519e-06
5.83355e-06
5.83189e-06
5.83022e-06
5.82855e-06
5.82686e-06
5.82517e-06
5.82346e-06
5.82175e-06
5.82003e-06
5.8183e-06
5.81655e-06
5.8148e-06
5.81304e-06
5.81127e-06
5.80948e-06
5.80769e-06
5.80589e-06
5.80408e-06
5.80226e-06
5.80042e-06
5.79858e-06
5.79673e-06
5.79487e-06
5.79299e-06
5.79111e-06
5.78921e-06
5.78731e-06
5.78539e-06
5.78347e-06
5.78153e-06
5.77958e-06
5.77762e-06
5.77565e-06
5.77367e-06
5.77168e-06
5.76968e-06
5.76766e-06
5.76564e-06
5.7636e-06
5.76155e-06
5.75949e-06
5.75742e-06
5.75534e-06
5.75324e-06
5.75114e-06
5.74902e-06
5.74689e-06
5.74475e-06
5.74259e-06
5.74043e-06
5.73825e-06
5.73606e-06
5.73385e-06
5.73164e-06
5.72941e-06
5.72717e-06
5.72491e-06
5.72264e-06
5.72036e-06
5.71807e-06
5.71576e-06
5.71344e-06
5.71111e-06
5.70876e-06
5.7064e-06
)
;

boundaryField
{
    boundary
    {
        type            empty;
        value           nonuniform 0();
    }
    inlet
    {
        type            calculated;
        value           nonuniform 0();
    }
    outlet
    {
        type            calculated;
        value           uniform 5.70403e-06;
    }
    procBoundary0to1
    {
        type            processor;
        value           uniform -5.91499e-06;
    }
}


// ************************************************************************* //
