/*--------------------------------*- C++ -*----------------------------------*\
  =========                 |
  \\      /  F ield         | OpenFOAM: The Open Source CFD Toolbox
   \\    /   O peration     | Website:  https://openfoam.org
    \\  /    A nd           | Version:  7
     \\/     M anipulation  |
\*---------------------------------------------------------------------------*/
FoamFile
{
    version     2.0;
    format      ascii;
    class       volScalarField;
    location    "8e-05";
    object      Qdot;
}
// * * * * * * * * * * * * * * * * * * * * * * * * * * * * * * * * * * * * * //

dimensions      [1 -1 -3 0 0 0 0];

internalField   nonuniform List<scalar> 
124
(
-1.02949e+06
-900918
-823730
-779704
-754112
-738423
-729926
-724104
-720355
-717420
-715316
-713605
-712469
-711648
-711272
-710531
-710476
-710570
-710810
-711172
-711642
-712205
-712848
-713558
-714324
-715136
-715986
-716868
-717774
-718701
-719644
-720599
-721564
-722537
-723515
-724498
-725483
-726467
-727446
-728429
-729415
-730402
-731388
-732373
-733355
-734335
-735312
-736286
-737257
-738225
-739189
-740150
-741107
-742059
-743008
-743951
-744889
-745822
-746749
-747670
-748584
-749491
-750390
-751279
-752148
-752965
-753811
-754662
-755508
-756347
-757176
-757995
-758803
-759600
-760385
-761159
-761920
-762669
-763404
-764126
-764835
-765529
-766209
-766875
-767526
-768161
-768781
-769386
-769975
-770887
-771462
-772007
-772530
-773034
-773520
-773989
-774439
-774872
-775287
-775684
-776063
-776424
-776767
-777091
-777398
-777686
-777956
-778208
-778442
-778657
-778854
-779034
-779098
-779244
-779373
-779487
-779585
-779670
-779744
-779810
-779874
-779944
-780030
-780133
)
;

boundaryField
{
    boundary
    {
        type            empty;
    }
    inlet
    {
        type            calculated;
        value           nonuniform 0();
    }
    outlet
    {
        type            calculated;
        value           uniform 0;
    }
    procBoundary0to1
    {
        type            processor;
        value           uniform 0;
    }
}


// ************************************************************************* //
