/*--------------------------------*- C++ -*----------------------------------*\
  =========                 |
  \\      /  F ield         | OpenFOAM: The Open Source CFD Toolbox
   \\    /   O peration     | Website:  https://openfoam.org
    \\  /    A nd           | Version:  7
     \\/     M anipulation  |
\*---------------------------------------------------------------------------*/
FoamFile
{
    version     2.0;
    format      ascii;
    class       volVectorField;
    location    "8e-05";
    object      U;
}
// * * * * * * * * * * * * * * * * * * * * * * * * * * * * * * * * * * * * * //

dimensions      [0 1 -1 0 0 0 0];

internalField   nonuniform List<vector> 
124
(
(13.8254 0 0)
(13.8227 0 0)
(13.8205 0 0)
(13.8178 0 0)
(13.8152 0 0)
(13.8126 0 0)
(13.8099 0 0)
(13.8072 0 0)
(13.8044 0 0)
(13.8016 0 0)
(13.7989 0 0)
(13.796 0 0)
(13.7932 0 0)
(13.7903 0 0)
(13.7874 0 0)
(13.7845 0 0)
(13.7816 0 0)
(13.7787 0 0)
(13.7757 0 0)
(13.7727 0 0)
(13.7697 0 0)
(13.7667 0 0)
(13.7637 0 0)
(13.7606 0 0)
(13.7575 0 0)
(13.7544 0 0)
(13.7513 0 0)
(13.7482 0 0)
(13.745 0 0)
(13.7419 0 0)
(13.7387 0 0)
(13.7355 0 0)
(13.7323 0 0)
(13.729 0 0)
(13.7258 0 0)
(13.7225 0 0)
(13.7192 0 0)
(13.7159 0 0)
(13.7125 0 0)
(13.7092 0 0)
(13.7058 0 0)
(13.7024 0 0)
(13.699 0 0)
(13.6955 0 0)
(13.6921 0 0)
(13.6886 0 0)
(13.6851 0 0)
(13.6816 0 0)
(13.6781 0 0)
(13.6745 0 0)
(13.6709 0 0)
(13.6673 0 0)
(13.6637 0 0)
(13.6601 0 0)
(13.6564 0 0)
(13.6527 0 0)
(13.649 0 0)
(13.6453 0 0)
(13.6415 0 0)
(13.6378 0 0)
(13.634 0 0)
(13.6302 0 0)
(13.6263 0 0)
(13.6225 0 0)
(13.6186 0 0)
(13.6147 0 0)
(13.6108 0 0)
(13.6068 0 0)
(13.6028 0 0)
(13.5988 0 0)
(13.5948 0 0)
(13.5908 0 0)
(13.5867 0 0)
(13.5826 0 0)
(13.5785 0 0)
(13.5744 0 0)
(13.5702 0 0)
(13.5661 0 0)
(13.5619 0 0)
(13.5576 0 0)
(13.5534 0 0)
(13.5491 0 0)
(13.5448 0 0)
(13.5405 0 0)
(13.5361 0 0)
(13.5317 0 0)
(13.5273 0 0)
(13.5229 0 0)
(13.5185 0 0)
(13.514 0 0)
(13.5095 0 0)
(13.5049 0 0)
(13.5004 0 0)
(13.4958 0 0)
(13.4912 0 0)
(13.4865 0 0)
(13.4819 0 0)
(13.4772 0 0)
(13.4725 0 0)
(13.4677 0 0)
(13.463 0 0)
(13.4582 0 0)
(13.4533 0 0)
(13.4485 0 0)
(13.4436 0 0)
(13.4387 0 0)
(13.4337 0 0)
(13.4288 0 0)
(13.4238 0 0)
(13.4187 0 0)
(13.4137 0 0)
(13.4086 0 0)
(13.4035 0 0)
(13.3983 0 0)
(13.3931 0 0)
(13.3879 0 0)
(13.3827 0 0)
(13.3774 0 0)
(13.3721 0 0)
(13.3668 0 0)
(13.3615 0 0)
(13.356 0 0)
(13.3502 0 0)
(13.343 0 0)
)
;

boundaryField
{
    boundary
    {
        type            empty;
    }
    inlet
    {
        type            fixedValue;
        value           nonuniform 0();
    }
    outlet
    {
        type            zeroGradient;
    }
    procBoundary0to1
    {
        type            processor;
        value           uniform (13.8273 0 0);
    }
}


// ************************************************************************* //
