/*--------------------------------*- C++ -*----------------------------------*\
  =========                 |
  \\      /  F ield         | OpenFOAM: The Open Source CFD Toolbox
   \\    /   O peration     | Website:  https://openfoam.org
    \\  /    A nd           | Version:  7
     \\/     M anipulation  |
\*---------------------------------------------------------------------------*/
FoamFile
{
    version     2.0;
    format      ascii;
    class       volScalarField;
    location    "0.00018";
    object      H;
}
// * * * * * * * * * * * * * * * * * * * * * * * * * * * * * * * * * * * * * //

dimensions      [0 0 0 0 0 0 0];

internalField   nonuniform List<scalar> 
500
(
1.49235e-41
2.03428e-41
2.1698e-41
2.22417e-41
2.26784e-41
2.31641e-41
2.3737e-41
2.44074e-41
2.5174e-41
2.60257e-41
2.69412e-41
2.78905e-41
2.88385e-41
2.97492e-41
3.05906e-41
3.13383e-41
3.19779e-41
3.25052e-41
3.29247e-41
3.32472e-41
3.34872e-41
3.36604e-41
3.37816e-41
3.38641e-41
3.39188e-41
3.39542e-41
3.39764e-41
3.39901e-41
3.39984e-41
3.40032e-41
3.4006e-41
3.40077e-41
3.40086e-41
3.40091e-41
3.40095e-41
3.40097e-41
3.40099e-41
3.401e-41
3.40101e-41
3.40102e-41
3.40104e-41
3.40105e-41
3.40106e-41
3.40108e-41
3.4011e-41
3.40111e-41
3.40113e-41
3.40115e-41
3.40117e-41
3.40119e-41
3.40121e-41
3.40123e-41
3.40126e-41
3.40129e-41
3.40131e-41
3.40134e-41
3.40137e-41
3.4014e-41
3.40144e-41
3.40147e-41
3.40151e-41
3.40155e-41
3.40159e-41
3.40163e-41
3.40167e-41
3.40172e-41
3.40177e-41
3.40182e-41
3.40187e-41
3.40193e-41
3.40199e-41
3.40205e-41
3.40211e-41
3.40217e-41
3.40224e-41
3.40231e-41
3.40239e-41
3.40246e-41
3.40254e-41
3.40263e-41
3.40271e-41
3.4028e-41
3.4029e-41
3.40299e-41
3.40309e-41
3.40319e-41
3.4033e-41
3.40341e-41
3.40353e-41
3.40364e-41
3.40376e-41
3.40389e-41
3.40402e-41
3.40415e-41
3.40429e-41
3.40443e-41
3.40458e-41
3.40472e-41
3.40488e-41
3.40504e-41
3.4052e-41
3.40536e-41
3.40553e-41
3.40571e-41
3.40589e-41
3.40607e-41
3.40626e-41
3.40645e-41
3.40664e-41
3.40684e-41
3.40705e-41
3.40725e-41
3.40746e-41
3.40768e-41
3.4079e-41
3.40812e-41
3.40835e-41
3.40858e-41
3.40881e-41
3.40905e-41
3.40929e-41
3.40952e-41
3.40976e-41
3.40998e-41
3.41019e-41
3.41039e-41
3.41059e-41
3.41079e-41
3.411e-41
3.4112e-41
3.41141e-41
3.41163e-41
3.41186e-41
3.41211e-41
3.41238e-41
3.41268e-41
3.41299e-41
3.41331e-41
3.41363e-41
3.41396e-41
3.41428e-41
3.4146e-41
3.4149e-41
3.41519e-41
3.41547e-41
3.41574e-41
3.41599e-41
3.41624e-41
3.41648e-41
3.41671e-41
3.41693e-41
3.41714e-41
3.41734e-41
3.41753e-41
3.41771e-41
3.41788e-41
3.41804e-41
3.41819e-41
3.41832e-41
3.41844e-41
3.41854e-41
3.41863e-41
3.4187e-41
3.41875e-41
3.41879e-41
3.4188e-41
3.41879e-41
3.41877e-41
3.41871e-41
3.41864e-41
3.41854e-41
3.41841e-41
3.41826e-41
3.41807e-41
3.41786e-41
3.41762e-41
3.41734e-41
3.41703e-41
3.41668e-41
3.4163e-41
3.41589e-41
3.41543e-41
3.41493e-41
3.4144e-41
3.41382e-41
3.41319e-41
3.41252e-41
3.41181e-41
3.41105e-41
3.41024e-41
3.40938e-41
3.40847e-41
3.40751e-41
3.40649e-41
3.40543e-41
3.4043e-41
3.40313e-41
3.40189e-41
3.4006e-41
3.39925e-41
3.39784e-41
3.39637e-41
3.39484e-41
3.39325e-41
3.3916e-41
3.38989e-41
3.38812e-41
3.38629e-41
3.38439e-41
3.38244e-41
3.38042e-41
3.37834e-41
3.3762e-41
3.37401e-41
3.37175e-41
3.36943e-41
3.36706e-41
3.36463e-41
3.36215e-41
3.35961e-41
3.35701e-41
3.35437e-41
3.35167e-41
3.34893e-41
3.34614e-41
3.34332e-41
3.3405e-41
3.338e-41
3.33782e-41
3.35301e-41
3.46808e-41
4.2247e-41
9.0597e-41
3.95555e-40
2.29811e-39
1.404e-38
8.57146e-38
5.18342e-37
3.09993e-36
1.83261e-35
1.07069e-34
6.18098e-34
3.5251e-33
1.98584e-32
1.10489e-31
6.07089e-31
3.29389e-30
1.76467e-29
9.33468e-29
4.87541e-28
2.51416e-27
1.29162e-26
6.5131e-26
3.24611e-25
1.60002e-24
7.80403e-24
3.76917e-23
1.80416e-22
8.56754e-22
4.04135e-21
1.89639e-20
8.86767e-20
4.14044e-19
1.93488e-18
9.07453e-18
4.28524e-17
2.04573e-16
9.922e-16
4.91905e-15
2.51068e-14
1.32915e-13
7.48889e-13
4.91772e-12
4.27249e-11
4.0942e-10
3.81753e-09
3.58538e-08
3.26828e-07
2.71649e-06
1.83282e-05
8.53334e-05
0.000247069
0.000502201
0.00083095
0.00119449
0.00152485
0.00176161
0.00188936
0.00192835
0.00190857
0.00185523
0.00178552
0.00170992
0.00163432
0.00156178
0.00149368
0.00143048
0.00137215
0.00131844
0.00126896
0.00122332
0.00118115
0.00114208
0.0011058
0.00107202
0.0010405
0.00101101
0.000983355
0.000957377
0.000932922
0.00090986
0.000888072
0.00086806
0.000849493
0.000831743
0.000814756
0.000798482
0.000782873
0.000767885
0.000753479
0.000739615
0.000726258
0.000713375
0.000700934
0.000688905
0.00067726
0.000665971
0.000655014
0.000644364
0.000633997
0.00062389
0.000614023
0.000604374
0.000594922
0.00058565
0.000576537
0.000567567
0.000558723
0.000549988
0.000541347
0.000532785
0.000524288
0.000515845
0.000507442
0.000499069
0.000490716
0.000482374
0.000474036
0.000465693
0.000457342
0.000448977
0.000440594
0.000432193
0.00042377
0.000415327
0.000406864
0.000398383
0.000389888
0.000381382
0.000372869
0.000364357
0.00035585
0.000347357
0.000338884
0.000330441
0.000322036
0.000313677
0.000305374
0.000297136
0.000288973
0.000280894
0.000272908
0.000265025
0.000257253
0.000249602
0.000242081
0.000234698
0.000227465
0.000220389
0.00021348
0.000206742
0.000200182
0.000193804
0.000187613
0.000181611
0.000175803
0.000170191
0.000164776
0.000159559
0.000154541
0.000149723
0.000145102
0.000140678
0.00013645
0.000132415
0.000128569
0.000124912
0.000121437
0.000118143
0.000115025
0.000112077
0.000109296
0.000106676
0.000104213
0.0001019
9.97327e-05
9.77048e-05
9.5811e-05
9.40453e-05
9.24021e-05
9.08756e-05
8.94602e-05
8.815e-05
8.69395e-05
8.58233e-05
8.4796e-05
8.38522e-05
8.29869e-05
8.21951e-05
8.14719e-05
8.08128e-05
8.02134e-05
7.96692e-05
7.91763e-05
7.87307e-05
7.83288e-05
7.79671e-05
7.76422e-05
7.7351e-05
7.70907e-05
7.68584e-05
7.66517e-05
7.64681e-05
7.63053e-05
7.61615e-05
7.60346e-05
7.5923e-05
7.5825e-05
7.57393e-05
7.56643e-05
7.5599e-05
7.55423e-05
7.54931e-05
7.54506e-05
7.5414e-05
7.53825e-05
7.53554e-05
7.53323e-05
7.53126e-05
7.52959e-05
7.52817e-05
7.52697e-05
7.52596e-05
7.52512e-05
7.52442e-05
7.52383e-05
7.52335e-05
7.52295e-05
7.52263e-05
7.52236e-05
7.52215e-05
7.52198e-05
7.52185e-05
7.52174e-05
7.52166e-05
7.5216e-05
7.52156e-05
7.52153e-05
7.52152e-05
7.52151e-05
7.52151e-05
7.52151e-05
7.52152e-05
7.52154e-05
7.52156e-05
7.52157e-05
7.52159e-05
7.52162e-05
7.52164e-05
7.52166e-05
7.52168e-05
7.52171e-05
7.52173e-05
7.52175e-05
7.52177e-05
7.5218e-05
7.52182e-05
7.52184e-05
7.52186e-05
7.52187e-05
7.52189e-05
7.52191e-05
7.52192e-05
7.52194e-05
7.52195e-05
7.52196e-05
7.52197e-05
7.52198e-05
7.52199e-05
7.52199e-05
)
;

boundaryField
{
    boundary
    {
        type            empty;
    }
    inlet
    {
        type            fixedValue;
        value           uniform 0;
    }
    outlet
    {
        type            zeroGradient;
    }
}


// ************************************************************************* //
