/*--------------------------------*- C++ -*----------------------------------*\
  =========                 |
  \\      /  F ield         | OpenFOAM: The Open Source CFD Toolbox
   \\    /   O peration     | Website:  https://openfoam.org
    \\  /    A nd           | Version:  7
     \\/     M anipulation  |
\*---------------------------------------------------------------------------*/
FoamFile
{
    version     2.0;
    format      ascii;
    class       volScalarField;
    location    "0.00018";
    object      H2O;
}
// * * * * * * * * * * * * * * * * * * * * * * * * * * * * * * * * * * * * * //

dimensions      [0 0 0 0 0 0 0];

internalField   nonuniform List<scalar> 
500
(
8.07214e-48
2.35804e-47
4.29494e-47
6.5286e-47
9.0024e-47
1.16782e-46
1.45242e-46
1.75039e-46
2.05699e-46
2.36601e-46
2.67008e-46
2.96129e-46
3.23208e-46
3.47615e-46
3.68916e-46
3.86907e-46
4.01613e-46
4.13247e-46
4.2216e-46
4.28777e-46
4.33541e-46
4.3687e-46
4.3913e-46
4.40621e-46
4.41579e-46
4.42177e-46
4.42542e-46
4.42758e-46
4.42883e-46
4.42954e-46
4.42992e-46
4.43012e-46
4.43022e-46
4.43026e-46
4.43028e-46
4.43028e-46
4.43027e-46
4.43026e-46
4.43024e-46
4.43023e-46
4.43021e-46
4.4302e-46
4.43018e-46
4.43017e-46
4.43015e-46
4.43014e-46
4.43013e-46
4.43011e-46
4.4301e-46
4.43009e-46
4.43009e-46
4.43008e-46
4.43007e-46
4.43007e-46
4.43006e-46
4.43006e-46
4.43006e-46
4.43006e-46
4.43007e-46
4.43007e-46
4.43008e-46
4.43009e-46
4.43011e-46
4.43012e-46
4.43014e-46
4.43016e-46
4.43018e-46
4.43021e-46
4.43024e-46
4.43027e-46
4.43031e-46
4.43035e-46
4.43039e-46
4.43044e-46
4.43049e-46
4.43054e-46
4.4306e-46
4.43066e-46
4.43073e-46
4.4308e-46
4.43087e-46
4.43095e-46
4.43103e-46
4.43112e-46
4.43122e-46
4.43131e-46
4.43142e-46
4.43152e-46
4.43164e-46
4.43176e-46
4.43188e-46
4.43201e-46
4.43214e-46
4.43228e-46
4.43243e-46
4.43258e-46
4.43274e-46
4.4329e-46
4.43307e-46
4.43324e-46
4.43342e-46
4.43361e-46
4.4338e-46
4.43399e-46
4.4342e-46
4.43441e-46
4.43462e-46
4.43484e-46
4.43507e-46
4.4353e-46
4.43554e-46
4.43578e-46
4.43603e-46
4.43628e-46
4.43654e-46
4.43681e-46
4.43708e-46
4.43735e-46
4.43763e-46
4.43789e-46
4.43813e-46
4.43829e-46
4.43829e-46
4.43796e-46
4.4368e-46
4.43338e-46
4.43196e-46
4.42819e-46
4.42278e-46
4.41691e-46
4.4119e-46
4.40869e-46
4.40765e-46
4.40866e-46
4.41133e-46
4.41512e-46
4.41951e-46
4.42404e-46
4.42837e-46
4.43228e-46
4.43565e-46
4.43843e-46
4.44065e-46
4.44238e-46
4.44371e-46
4.44471e-46
4.44548e-46
4.44606e-46
4.44652e-46
4.4469e-46
4.44721e-46
4.44748e-46
4.44772e-46
4.44793e-46
4.44812e-46
4.44829e-46
4.44844e-46
4.44857e-46
4.44867e-46
4.44876e-46
4.44882e-46
4.44885e-46
4.44886e-46
4.44884e-46
4.44879e-46
4.44871e-46
4.4486e-46
4.44845e-46
4.44826e-46
4.44804e-46
4.44778e-46
4.44747e-46
4.44712e-46
4.44673e-46
4.44629e-46
4.4458e-46
4.44525e-46
4.44466e-46
4.44401e-46
4.4433e-46
4.44254e-46
4.44171e-46
4.44082e-46
4.43986e-46
4.43883e-46
4.43774e-46
4.43658e-46
4.43534e-46
4.43402e-46
4.43263e-46
4.43116e-46
4.42961e-46
4.42798e-46
4.42626e-46
4.42446e-46
4.42257e-46
4.42058e-46
4.41851e-46
4.41635e-46
4.41409e-46
4.41174e-46
4.40929e-46
4.40675e-46
4.40411e-46
4.40137e-46
4.39854e-46
4.3956e-46
4.39257e-46
4.38943e-46
4.3862e-46
4.38287e-46
4.37944e-46
4.37592e-46
4.37229e-46
4.36857e-46
4.36476e-46
4.36085e-46
4.35686e-46
4.35288e-46
4.34956e-46
4.35224e-46
4.40299e-46
4.83203e-46
8.2058e-46
3.42892e-45
2.33923e-44
1.74817e-43
1.31353e-42
9.80664e-42
7.26651e-41
5.34601e-40
3.90794e-39
2.841e-38
2.05615e-37
1.48317e-36
1.06755e-35
7.67576e-35
5.51803e-34
3.96853e-33
2.85583e-32
2.05574e-31
1.47916e-30
1.06262e-29
7.61068e-29
5.42552e-28
3.84329e-27
2.70123e-26
1.88171e-25
1.29831e-24
8.86358e-24
5.97298e-23
4.01063e-22
2.63324e-21
1.7003e-20
1.0787e-19
6.71687e-19
4.10119e-18
2.45323e-17
1.43641e-16
8.22592e-16
4.60381e-15
2.51632e-14
1.34229e-13
6.98409e-13
3.5429e-12
1.75173e-11
8.44133e-11
3.96547e-10
1.81717e-09
8.13208e-09
3.55991e-08
1.5278e-07
6.44495e-07
2.6797e-06
1.10051e-05
4.46498e-05
0.000178116
0.000686919
0.00245134
0.00743915
0.0176636
0.0326139
0.0510337
0.0732811
0.0988716
0.124649
0.146774
0.163503
0.175227
0.183176
0.188555
0.192268
0.194925
0.196915
0.198479
0.199766
0.20087
0.201848
0.202737
0.203559
0.204329
0.20506
0.205756
0.206425
0.207069
0.207691
0.208295
0.208883
0.209455
0.210014
0.210561
0.211096
0.211605
0.212098
0.212586
0.21307
0.21355
0.214028
0.214503
0.214976
0.215447
0.215917
0.216386
0.216853
0.217319
0.217784
0.218248
0.21871
0.21917
0.219629
0.220085
0.220538
0.220988
0.221434
0.221875
0.222312
0.222744
0.22317
0.22359
0.224003
0.224408
0.224807
0.225198
0.225581
0.225956
0.226323
0.226682
0.227033
0.227377
0.227713
0.228042
0.228365
0.228681
0.228992
0.229298
0.229599
0.229896
0.230189
0.230479
0.230767
0.231052
0.231336
0.231618
0.231899
0.232178
0.232457
0.232734
0.233011
0.233286
0.23356
0.233833
0.234104
0.234372
0.234637
0.234899
0.235157
0.235421
0.235672
0.235917
0.236157
0.236392
0.23662
0.236841
0.237055
0.237262
0.237461
0.237651
0.237833
0.238006
0.238171
0.238327
0.238474
0.238613
0.238743
0.238864
0.238978
0.239083
0.239181
0.239272
0.239355
0.239432
0.239503
0.239567
0.239626
0.239679
0.239727
0.239771
0.239811
0.239847
0.239879
0.239907
0.239933
0.239956
0.239977
0.239996
0.240012
0.240027
0.24004
0.240051
0.240062
0.240071
0.240079
0.240087
0.240093
0.240099
0.240104
0.240109
0.240113
0.240116
0.240119
0.240122
0.240125
0.240127
0.240129
0.24013
0.240132
0.240133
0.240134
0.240135
0.240136
0.240137
0.240137
0.240138
0.240138
0.240139
0.240139
0.240139
0.240139
0.24014
0.24014
0.24014
0.24014
0.24014
0.24014
0.24014
0.24014
0.24014
0.24014
0.24014
0.24014
0.24014
0.24014
0.24014
0.24014
0.24014
0.240139
0.240139
0.240139
0.240139
0.240139
0.240139
0.240139
0.240139
0.240139
0.240139
0.240139
0.240139
0.240139
0.240139
0.240138
0.240138
0.240138
0.240138
0.240138
0.240138
0.240138
0.240138
0.240138
0.240138
0.240138
0.240138
0.240138
0.240138
0.240138
0.240138
0.240138
0.240138
0.240138
0.240137
0.240137
)
;

boundaryField
{
    boundary
    {
        type            empty;
    }
    inlet
    {
        type            fixedValue;
        value           uniform 0;
    }
    outlet
    {
        type            zeroGradient;
    }
}


// ************************************************************************* //
