/*--------------------------------*- C++ -*----------------------------------*\
  =========                 |
  \\      /  F ield         | OpenFOAM: The Open Source CFD Toolbox
   \\    /   O peration     | Website:  https://openfoam.org
    \\  /    A nd           | Version:  7
     \\/     M anipulation  |
\*---------------------------------------------------------------------------*/
FoamFile
{
    version     2.0;
    format      ascii;
    class       volScalarField;
    location    "0.00018";
    object      H2O2;
}
// * * * * * * * * * * * * * * * * * * * * * * * * * * * * * * * * * * * * * //

dimensions      [0 0 0 0 0 0 0];

internalField   nonuniform List<scalar> 
500
(
2.03775e-52
6.60531e-52
1.32575e-51
2.20613e-51
3.30621e-51
4.6256e-51
6.15531e-51
7.87401e-51
9.7454e-51
1.1718e-50
1.37281e-50
1.57056e-50
1.75822e-50
1.92987e-50
2.0812e-50
2.20982e-50
2.31525e-50
2.39865e-50
2.46239e-50
2.50949e-50
2.54318e-50
2.56654e-50
2.58224e-50
2.5925e-50
2.59902e-50
2.60304e-50
2.60547e-50
2.60688e-50
2.6077e-50
2.60815e-50
2.60839e-50
2.60852e-50
2.60859e-50
2.60862e-50
2.60863e-50
2.60864e-50
2.60864e-50
2.60863e-50
2.60863e-50
2.60863e-50
2.60863e-50
2.60862e-50
2.60862e-50
2.60862e-50
2.60862e-50
2.60862e-50
2.60862e-50
2.60862e-50
2.60862e-50
2.60862e-50
2.60863e-50
2.60863e-50
2.60864e-50
2.60864e-50
2.60865e-50
2.60866e-50
2.60867e-50
2.60868e-50
2.60869e-50
2.60871e-50
2.60873e-50
2.60874e-50
2.60876e-50
2.60878e-50
2.60881e-50
2.60883e-50
2.60886e-50
2.60889e-50
2.60892e-50
2.60895e-50
2.60899e-50
2.60903e-50
2.60907e-50
2.60911e-50
2.60915e-50
2.6092e-50
2.60925e-50
2.60931e-50
2.60936e-50
2.60942e-50
2.60948e-50
2.60955e-50
2.60962e-50
2.60969e-50
2.60976e-50
2.60984e-50
2.60992e-50
2.61e-50
2.61009e-50
2.61018e-50
2.61028e-50
2.61038e-50
2.61048e-50
2.61058e-50
2.61069e-50
2.61081e-50
2.61092e-50
2.61104e-50
2.61117e-50
2.61129e-50
2.61143e-50
2.61156e-50
2.6117e-50
2.61184e-50
2.61199e-50
2.61214e-50
2.6123e-50
2.61246e-50
2.61262e-50
2.61279e-50
2.61296e-50
2.61313e-50
2.61331e-50
2.61349e-50
2.61368e-50
2.61386e-50
2.61406e-50
2.61425e-50
2.61444e-50
2.61463e-50
2.6148e-50
2.61488e-50
2.61475e-50
2.61412e-50
2.6125e-50
2.60972e-50
2.60587e-50
2.60079e-50
2.59535e-50
2.59034e-50
2.58639e-50
2.58398e-50
2.58335e-50
2.58448e-50
2.58709e-50
2.59079e-50
2.5951e-50
2.59957e-50
2.60384e-50
2.60768e-50
2.61094e-50
2.61359e-50
2.61567e-50
2.61725e-50
2.61843e-50
2.6193e-50
2.61993e-50
2.62041e-50
2.62077e-50
2.62106e-50
2.6213e-50
2.62151e-50
2.62169e-50
2.62185e-50
2.622e-50
2.62214e-50
2.62226e-50
2.62237e-50
2.62247e-50
2.62255e-50
2.62262e-50
2.62268e-50
2.62271e-50
2.62273e-50
2.62273e-50
2.62271e-50
2.62267e-50
2.6226e-50
2.62252e-50
2.62241e-50
2.62227e-50
2.62211e-50
2.62192e-50
2.6217e-50
2.62146e-50
2.62118e-50
2.62086e-50
2.62052e-50
2.62014e-50
2.61972e-50
2.61927e-50
2.61877e-50
2.61824e-50
2.61766e-50
2.61705e-50
2.61638e-50
2.61568e-50
2.61492e-50
2.61412e-50
2.61327e-50
2.61236e-50
2.61141e-50
2.6104e-50
2.60934e-50
2.60823e-50
2.60706e-50
2.60583e-50
2.60454e-50
2.6032e-50
2.60179e-50
2.60033e-50
2.5988e-50
2.59721e-50
2.59556e-50
2.59385e-50
2.59207e-50
2.59023e-50
2.58833e-50
2.58637e-50
2.58434e-50
2.58224e-50
2.58009e-50
2.57787e-50
2.57559e-50
2.57324e-50
2.57084e-50
2.56838e-50
2.56585e-50
2.56327e-50
2.56064e-50
2.55797e-50
2.55561e-50
2.55736e-50
2.60815e-50
3.23012e-50
1.04261e-49
9.2411e-49
1.01514e-47
1.1273e-46
1.23867e-45
1.34363e-44
1.43802e-43
1.51789e-42
1.57965e-41
1.62027e-40
1.63757e-39
1.63037e-38
1.59863e-37
1.54345e-36
1.46697e-35
1.37228e-34
1.26311e-33
1.14366e-32
1.01827e-31
8.91166e-31
7.66263e-30
6.4696e-29
5.36016e-28
4.35477e-27
3.46656e-26
2.7023e-25
2.06827e-24
1.55309e-23
1.14149e-22
8.20309e-22
5.75963e-21
3.94823e-20
2.64042e-19
1.72135e-18
1.09309e-17
6.75617e-17
4.06141e-16
2.37294e-15
1.3467e-14
7.42052e-14
3.96896e-13
2.06079e-12
1.03929e-11
5.09622e-11
2.43417e-10
1.13542e-09
5.18917e-09
2.33233e-08
1.03447e-07
4.53411e-07
1.95392e-06
8.07322e-06
2.94275e-05
7.68635e-05
0.00011661
0.000120827
7.85411e-05
3.60377e-05
1.4393e-05
6.61021e-06
4.58226e-06
4.56476e-06
5.13993e-06
5.76857e-06
6.26112e-06
6.57759e-06
6.73685e-06
6.7743e-06
6.72445e-06
6.61537e-06
6.46808e-06
6.29737e-06
6.11374e-06
5.92426e-06
5.7337e-06
5.54525e-06
5.36099e-06
5.18223e-06
5.00978e-06
4.84407e-06
4.68529e-06
4.53345e-06
4.38845e-06
4.25012e-06
4.11825e-06
3.9926e-06
3.873e-06
3.76267e-06
3.65881e-06
3.55903e-06
3.46312e-06
3.37086e-06
3.28202e-06
3.19642e-06
3.11384e-06
3.0341e-06
2.95701e-06
2.88239e-06
2.81006e-06
2.73985e-06
2.6716e-06
2.60515e-06
2.54033e-06
2.47702e-06
2.41505e-06
2.35431e-06
2.29466e-06
2.23598e-06
2.17818e-06
2.12115e-06
2.06479e-06
2.00905e-06
1.95384e-06
1.89911e-06
1.84483e-06
1.79097e-06
1.7375e-06
1.68444e-06
1.63178e-06
1.57955e-06
1.52779e-06
1.47654e-06
1.42584e-06
1.37578e-06
1.32641e-06
1.2778e-06
1.23003e-06
1.18318e-06
1.13733e-06
1.09255e-06
1.0489e-06
1.00646e-06
9.65286e-07
9.25424e-07
8.8692e-07
8.49807e-07
8.14109e-07
7.79843e-07
7.47015e-07
7.15622e-07
6.85654e-07
6.57092e-07
6.29911e-07
6.0408e-07
5.7956e-07
5.5631e-07
5.34282e-07
5.13427e-07
4.93694e-07
4.75033e-07
4.5739e-07
4.40733e-07
4.25037e-07
4.10266e-07
3.96369e-07
3.83296e-07
3.70999e-07
3.5943e-07
3.48546e-07
3.38306e-07
3.28671e-07
3.19605e-07
3.11075e-07
3.03047e-07
2.95492e-07
2.88382e-07
2.8169e-07
2.75392e-07
2.69466e-07
2.6389e-07
2.58645e-07
2.53713e-07
2.49076e-07
2.44719e-07
2.40628e-07
2.36788e-07
2.33188e-07
2.29814e-07
2.26657e-07
2.23704e-07
2.20945e-07
2.18372e-07
2.15974e-07
2.13743e-07
2.11669e-07
2.09745e-07
2.07963e-07
2.06315e-07
2.04793e-07
2.0339e-07
2.021e-07
2.00914e-07
1.99827e-07
1.98833e-07
1.97925e-07
1.97097e-07
1.96344e-07
1.95661e-07
1.95042e-07
1.94482e-07
1.93977e-07
1.93522e-07
1.93114e-07
1.92747e-07
1.9242e-07
1.92127e-07
1.91867e-07
1.91635e-07
1.9143e-07
1.91248e-07
1.91088e-07
1.90946e-07
1.90821e-07
1.90712e-07
1.90616e-07
1.90532e-07
1.90459e-07
1.90395e-07
1.9034e-07
1.90292e-07
1.9025e-07
1.90213e-07
1.90182e-07
1.90155e-07
1.90131e-07
1.9011e-07
1.90093e-07
1.90077e-07
1.90064e-07
1.90052e-07
1.90042e-07
1.90033e-07
1.90025e-07
1.90018e-07
1.90012e-07
1.90006e-07
1.90001e-07
1.89996e-07
1.89992e-07
1.89988e-07
1.89984e-07
1.89981e-07
1.89977e-07
1.89974e-07
1.89971e-07
1.89968e-07
1.89965e-07
1.89963e-07
1.8996e-07
1.89957e-07
1.89955e-07
1.89952e-07
1.8995e-07
1.89947e-07
1.89945e-07
1.89943e-07
1.8994e-07
1.89938e-07
1.89936e-07
1.89933e-07
1.89931e-07
1.89929e-07
1.89927e-07
1.89925e-07
1.89923e-07
1.89921e-07
1.89919e-07
1.89917e-07
1.89915e-07
1.89913e-07
1.89911e-07
1.89909e-07
1.89907e-07
1.89906e-07
1.89905e-07
)
;

boundaryField
{
    boundary
    {
        type            empty;
    }
    inlet
    {
        type            fixedValue;
        value           uniform 0;
    }
    outlet
    {
        type            zeroGradient;
    }
}


// ************************************************************************* //
