/*--------------------------------*- C++ -*----------------------------------*\
  =========                 |
  \\      /  F ield         | OpenFOAM: The Open Source CFD Toolbox
   \\    /   O peration     | Website:  https://openfoam.org
    \\  /    A nd           | Version:  7
     \\/     M anipulation  |
\*---------------------------------------------------------------------------*/
FoamFile
{
    version     2.0;
    format      ascii;
    class       volScalarField;
    location    "0.00018";
    object      N2;
}
// * * * * * * * * * * * * * * * * * * * * * * * * * * * * * * * * * * * * * //

dimensions      [0 0 0 0 0 0 0];

internalField   nonuniform List<scalar> 
500
(
0.745219
0.745219
0.745219
0.745219
0.745219
0.745219
0.745219
0.745219
0.745219
0.745219
0.745219
0.745219
0.74522
0.74522
0.74522
0.74522
0.74522
0.74522
0.74522
0.74522
0.74522
0.74522
0.74522
0.74522
0.74522
0.74522
0.74522
0.74522
0.74522
0.74522
0.74522
0.74522
0.74522
0.74522
0.74522
0.74522
0.74522
0.74522
0.74522
0.74522
0.74522
0.74522
0.74522
0.74522
0.74522
0.74522
0.74522
0.74522
0.74522
0.74522
0.74522
0.74522
0.74522
0.74522
0.74522
0.74522
0.74522
0.74522
0.74522
0.74522
0.74522
0.74522
0.74522
0.74522
0.74522
0.74522
0.74522
0.74522
0.74522
0.74522
0.74522
0.74522
0.74522
0.74522
0.74522
0.74522
0.74522
0.74522
0.74522
0.74522
0.74522
0.74522
0.74522
0.74522
0.74522
0.74522
0.74522
0.74522
0.74522
0.74522
0.74522
0.74522
0.74522
0.74522
0.74522
0.74522
0.74522
0.74522
0.74522
0.74522
0.74522
0.74522
0.74522
0.74522
0.74522
0.74522
0.74522
0.74522
0.74522
0.74522
0.74522
0.74522
0.74522
0.74522
0.74522
0.74522
0.74522
0.74522
0.74522
0.74522
0.74522
0.74522
0.74522
0.74522
0.74522
0.74522
0.74522
0.74522
0.74522
0.74522
0.74522
0.74522
0.74522
0.74522
0.74522
0.74522
0.74522
0.74522
0.74522
0.74522
0.74522
0.74522
0.74522
0.74522
0.74522
0.74522
0.74522
0.74522
0.74522
0.74522
0.74522
0.74522
0.74522
0.74522
0.74522
0.74522
0.74522
0.74522
0.74522
0.74522
0.74522
0.74522
0.74522
0.74522
0.74522
0.74522
0.74522
0.74522
0.74522
0.74522
0.74522
0.74522
0.74522
0.74522
0.74522
0.74522
0.74522
0.74522
0.74522
0.74522
0.74522
0.74522
0.74522
0.74522
0.74522
0.74522
0.74522
0.74522
0.74522
0.74522
0.74522
0.74522
0.74522
0.74522
0.74522
0.74522
0.74522
0.74522
0.74522
0.74522
0.74522
0.74522
0.74522
0.74522
0.74522
0.74522
0.74522
0.74522
0.74522
0.74522
0.74522
0.74522
0.74522
0.74522
0.74522
0.74522
0.74522
0.74522
0.74522
0.74522
0.74522
0.74522
0.74522
0.74522
0.74522
0.74522
0.74522
0.74522
0.74522
0.74522
0.74522
0.74522
0.74522
0.74522
0.74522
0.74522
0.74522
0.74522
0.74522
0.74522
0.74522
0.74522
0.74522
0.74522
0.74522
0.74522
0.74522
0.74522
0.74522
0.74522
0.74522
0.74522
0.74522
0.74522
0.74522
0.74522
0.74522
0.74522
0.74522
0.74522
0.74522
0.74522
0.74522
0.74522
0.74522
0.74522
0.74522
0.74522
0.74522
0.745221
0.745222
0.745225
0.745231
0.745245
0.745272
0.745325
0.745418
0.745546
0.745627
0.745505
0.745177
0.74471
0.74414
0.743691
0.7436
0.743847
0.74422
0.744558
0.744814
0.744992
0.745113
0.745191
0.745241
0.74527
0.745285
0.745291
0.745291
0.745286
0.74528
0.745272
0.745263
0.745254
0.745244
0.745234
0.745225
0.745215
0.745205
0.745196
0.745186
0.745177
0.745168
0.74516
0.745153
0.745146
0.74514
0.745135
0.745131
0.745127
0.745126
0.745125
0.745126
0.745129
0.745134
0.74514
0.745149
0.74516
0.745173
0.745189
0.745207
0.745227
0.74525
0.745276
0.745303
0.745333
0.745365
0.745399
0.745434
0.745471
0.745509
0.745547
0.745586
0.745625
0.745664
0.745702
0.745738
0.745773
0.745806
0.745836
0.745864
0.745888
0.745909
0.745925
0.745938
0.745946
0.74595
0.745949
0.745944
0.745934
0.745919
0.7459
0.745877
0.745849
0.745817
0.745782
0.745744
0.745703
0.74566
0.745614
0.745567
0.745519
0.745471
0.745423
0.745375
0.74533
0.745288
0.74525
0.745198
0.745159
0.745121
0.745085
0.74505
0.745018
0.744988
0.74496
0.744935
0.744914
0.744895
0.744879
0.744866
0.744856
0.744849
0.744844
0.744842
0.744843
0.744845
0.74485
0.744857
0.744865
0.744874
0.744885
0.744897
0.74491
0.744923
0.744937
0.744951
0.744966
0.744981
0.744995
0.74501
0.745024
0.745038
0.745052
0.745065
0.745077
0.745089
0.7451
0.745111
0.745121
0.74513
0.745139
0.745147
0.745155
0.745161
0.745168
0.745173
0.745179
0.745183
0.745187
0.745191
0.745195
0.745198
0.745201
0.745203
0.745205
0.745207
0.745209
0.74521
0.745211
0.745213
0.745214
0.745214
0.745215
0.745216
0.745216
0.745217
0.745217
0.745218
0.745218
0.745218
0.745218
0.745219
0.745219
0.745219
0.745219
0.745219
0.745219
0.745219
0.745219
0.745219
0.745219
0.745219
0.745219
0.745219
0.745219
0.745219
0.745219
0.745219
0.745219
0.745219
0.745219
0.745219
0.74522
0.74522
0.74522
0.74522
0.74522
0.74522
0.74522
0.74522
0.74522
0.74522
0.74522
0.74522
0.74522
0.74522
0.74522
0.74522
0.74522
0.74522
0.74522
0.74522
0.74522
0.74522
0.74522
0.74522
0.74522
0.74522
0.74522
0.74522
0.74522
)
;

boundaryField
{
    boundary
    {
        type            empty;
    }
    inlet
    {
        type            fixedValue;
        value           uniform 0.74522;
    }
    outlet
    {
        type            zeroGradient;
    }
}


// ************************************************************************* //
