/*--------------------------------*- C++ -*----------------------------------*\
  =========                 |
  \\      /  F ield         | OpenFOAM: The Open Source CFD Toolbox
   \\    /   O peration     | Website:  https://openfoam.org
    \\  /    A nd           | Version:  7
     \\/     M anipulation  |
\*---------------------------------------------------------------------------*/
FoamFile
{
    version     2.0;
    format      ascii;
    class       volScalarField;
    location    "0.00018";
    object      O;
}
// * * * * * * * * * * * * * * * * * * * * * * * * * * * * * * * * * * * * * //

dimensions      [0 0 0 0 0 0 0];

internalField   nonuniform List<scalar> 
500
(
1.60558e-47
3.87569e-47
6.22068e-47
8.64386e-47
1.11545e-46
1.37591e-46
1.64568e-46
1.92351e-46
2.20668e-46
2.49089e-46
2.77058e-46
3.03941e-46
3.2911e-46
3.52009e-46
3.72231e-46
3.89549e-46
4.03927e-46
4.15501e-46
4.24536e-46
4.31381e-46
4.36417e-46
4.40017e-46
4.4252e-46
4.44213e-46
4.4533e-46
4.46047e-46
4.46496e-46
4.46771e-46
4.46935e-46
4.4703e-46
4.47084e-46
4.47114e-46
4.4713e-46
4.47138e-46
4.47141e-46
4.47142e-46
4.47142e-46
4.47141e-46
4.4714e-46
4.47139e-46
4.47138e-46
4.47137e-46
4.47135e-46
4.47134e-46
4.47133e-46
4.47132e-46
4.47131e-46
4.4713e-46
4.47129e-46
4.47129e-46
4.47128e-46
4.47128e-46
4.47128e-46
4.47127e-46
4.47127e-46
4.47128e-46
4.47128e-46
4.47129e-46
4.47129e-46
4.4713e-46
4.47131e-46
4.47133e-46
4.47134e-46
4.47136e-46
4.47139e-46
4.47141e-46
4.47144e-46
4.47147e-46
4.4715e-46
4.47154e-46
4.47158e-46
4.47162e-46
4.47167e-46
4.47172e-46
4.47177e-46
4.47183e-46
4.47189e-46
4.47196e-46
4.47203e-46
4.4721e-46
4.47218e-46
4.47226e-46
4.47235e-46
4.47245e-46
4.47254e-46
4.47265e-46
4.47275e-46
4.47287e-46
4.47298e-46
4.47311e-46
4.47324e-46
4.47337e-46
4.47351e-46
4.47365e-46
4.4738e-46
4.47396e-46
4.47412e-46
4.47429e-46
4.47446e-46
4.47464e-46
4.47483e-46
4.47502e-46
4.47522e-46
4.47542e-46
4.47563e-46
4.47584e-46
4.47606e-46
4.47629e-46
4.47652e-46
4.47676e-46
4.477e-46
4.47725e-46
4.47751e-46
4.47777e-46
4.47804e-46
4.47831e-46
4.47858e-46
4.47886e-46
4.47913e-46
4.4794e-46
4.47964e-46
4.47981e-46
4.47986e-46
4.4796e-46
4.47868e-46
4.47695e-46
4.47617e-46
4.47502e-46
4.47353e-46
4.4718e-46
4.47002e-46
4.46843e-46
4.46728e-46
4.46677e-46
4.467e-46
4.46799e-46
4.46963e-46
4.47174e-46
4.47411e-46
4.47653e-46
4.47884e-46
4.48091e-46
4.4827e-46
4.48419e-46
4.48539e-46
4.48634e-46
4.4871e-46
4.48769e-46
4.48817e-46
4.48857e-46
4.4889e-46
4.48918e-46
4.48943e-46
4.48965e-46
4.48985e-46
4.49002e-46
4.49018e-46
4.49031e-46
4.49042e-46
4.4905e-46
4.49057e-46
4.4906e-46
4.49061e-46
4.49059e-46
4.49055e-46
4.49047e-46
4.49035e-46
4.4902e-46
4.49002e-46
4.48979e-46
4.48953e-46
4.48922e-46
4.48887e-46
4.48848e-46
4.48803e-46
4.48754e-46
4.48699e-46
4.4864e-46
4.48574e-46
4.48503e-46
4.48426e-46
4.48342e-46
4.48253e-46
4.48156e-46
4.48053e-46
4.47943e-46
4.47826e-46
4.47701e-46
4.47569e-46
4.47429e-46
4.47281e-46
4.47125e-46
4.4696e-46
4.46788e-46
4.46606e-46
4.46416e-46
4.46216e-46
4.46008e-46
4.4579e-46
4.45563e-46
4.45327e-46
4.45081e-46
4.44825e-46
4.44559e-46
4.44284e-46
4.43999e-46
4.43704e-46
4.43399e-46
4.43084e-46
4.42759e-46
4.42424e-46
4.4208e-46
4.41725e-46
4.41361e-46
4.40988e-46
4.4061e-46
4.40254e-46
4.40144e-46
4.41997e-46
4.58987e-46
5.90912e-46
1.58515e-45
8.97312e-45
6.32072e-44
4.56556e-43
3.27485e-42
2.32195e-41
1.62605e-40
1.1244e-39
7.67586e-39
5.17202e-38
3.43896e-37
2.25593e-36
1.45964e-35
9.31258e-35
5.857e-34
3.63018e-33
2.21662e-32
1.33297e-31
7.89153e-31
4.59791e-30
2.63547e-29
1.48555e-28
8.23158e-28
4.48199e-27
2.39705e-26
1.2587e-25
6.48681e-25
3.2796e-24
1.62597e-23
7.90178e-23
3.77252e-22
1.75996e-21
8.03542e-21
3.59041e-20
1.56959e-19
6.71127e-19
2.80604e-18
1.14701e-17
4.58318e-17
1.79012e-16
6.83503e-16
2.55171e-15
9.3179e-15
3.33004e-14
1.1657e-13
4.00146e-13
1.34892e-12
4.47386e-12
1.463e-11
4.72827e-11
1.51385e-10
4.81176e-10
1.52114e-09
4.79614e-09
1.52326e-08
5.0683e-08
1.98584e-07
1.07988e-06
7.51276e-06
4.41184e-05
0.000194091
0.000672518
0.00165808
0.0029942
0.00430787
0.0053224
0.00597176
0.00631646
0.00644681
0.00643992
0.00635108
0.00621672
0.00605958
0.00589333
0.00572589
0.00556164
0.00540286
0.00525059
0.00510518
0.00496661
0.00483463
0.00470888
0.00458899
0.00447455
0.00436517
0.00426047
0.00416011
0.00406376
0.00397112
0.00388194
0.00379599
0.0037156
0.00363908
0.00356453
0.00349178
0.00342069
0.00335113
0.00328299
0.00321616
0.00315054
0.00308606
0.00302263
0.00296019
0.00289869
0.00283807
0.00277829
0.00271934
0.00266117
0.00260379
0.00254718
0.00249135
0.0024363
0.00238204
0.00232859
0.00227597
0.00222421
0.00217333
0.00212335
0.00207431
0.00202622
0.00197912
0.00193301
0.00188793
0.00184387
0.00180085
0.00175887
0.00171792
0.00167801
0.00163911
0.0016012
0.00156427
0.00152828
0.00149321
0.00145901
0.00142565
0.00139309
0.0013613
0.00133022
0.00129983
0.00127008
0.00124094
0.00121237
0.00118435
0.00115685
0.00112985
0.00110331
0.00107724
0.0010516
0.00102641
0.00100163
0.000977276
0.000953332
0.000929797
0.000906676
0.000883992
0.0008618
0.000840123
0.000818993
0.000798425
0.000778431
0.000759017
0.000740188
0.000721948
0.0007043
0.000687248
0.000670795
0.000654941
0.000639688
0.000625032
0.00061097
0.000597498
0.000584609
0.000572297
0.000560552
0.000549364
0.000538724
0.000528619
0.000519037
0.000509965
0.00050139
0.000493297
0.000485672
0.000478499
0.000471762
0.000465447
0.000459536
0.000454014
0.000448864
0.000444069
0.000439614
0.000435482
0.000431657
0.000428123
0.000424864
0.000421864
0.000419109
0.000416583
0.000414273
0.000412164
0.000410243
0.000408497
0.000406913
0.000405479
0.000404185
0.000403018
0.000401969
0.000401028
0.000400186
0.000399434
0.000398764
0.000398169
0.000397641
0.000397175
0.000396763
0.000396401
0.000396083
0.000395804
0.000395561
0.00039535
0.000395166
0.000395007
0.00039487
0.000394751
0.00039465
0.000394564
0.00039449
0.000394427
0.000394374
0.00039433
0.000394293
0.000394262
0.000394236
0.000394215
0.000394198
0.000394184
0.000394173
0.000394165
0.000394158
0.000394153
0.00039415
0.000394148
0.000394146
0.000394146
0.000394146
0.000394147
0.000394148
0.00039415
0.000394152
0.000394154
0.000394156
0.000394158
0.000394161
0.000394164
0.000394166
0.000394169
0.000394172
0.000394174
0.000394177
0.000394179
0.000394182
0.000394185
0.000394187
0.00039419
0.000394192
0.000394194
0.000394197
0.000394199
0.000394201
0.000394203
0.000394205
0.000394207
0.000394209
0.000394211
0.000394212
0.000394214
0.000394216
0.000394217
0.000394218
0.000394219
)
;

boundaryField
{
    boundary
    {
        type            empty;
    }
    inlet
    {
        type            fixedValue;
        value           uniform 0;
    }
    outlet
    {
        type            zeroGradient;
    }
}


// ************************************************************************* //
