/*--------------------------------*- C++ -*----------------------------------*\
  =========                 |
  \\      /  F ield         | OpenFOAM: The Open Source CFD Toolbox
   \\    /   O peration     | Website:  https://openfoam.org
    \\  /    A nd           | Version:  7
     \\/     M anipulation  |
\*---------------------------------------------------------------------------*/
FoamFile
{
    version     2.0;
    format      ascii;
    class       volScalarField;
    location    "0.00018";
    object      OH;
}
// * * * * * * * * * * * * * * * * * * * * * * * * * * * * * * * * * * * * * //

dimensions      [0 0 0 0 0 0 0];

internalField   nonuniform List<scalar> 
500
(
9.47041e-48
1.86208e-47
2.51101e-47
2.98046e-47
3.33469e-47
3.61875e-47
3.86372e-47
4.09041e-47
4.31167e-47
4.53391e-47
4.75838e-47
4.9824e-47
5.20081e-47
5.4074e-47
5.59629e-47
5.76294e-47
5.90473e-47
6.02113e-47
6.1134e-47
6.1841e-47
6.23653e-47
6.27421e-47
6.3005e-47
6.31832e-47
6.33006e-47
6.33761e-47
6.34233e-47
6.34522e-47
6.34694e-47
6.34794e-47
6.34851e-47
6.34883e-47
6.34901e-47
6.34911e-47
6.34916e-47
6.34919e-47
6.3492e-47
6.34921e-47
6.34922e-47
6.34923e-47
6.34924e-47
6.34925e-47
6.34926e-47
6.34927e-47
6.34928e-47
6.34929e-47
6.34931e-47
6.34933e-47
6.34935e-47
6.34937e-47
6.34939e-47
6.34942e-47
6.34944e-47
6.34947e-47
6.34951e-47
6.34954e-47
6.34958e-47
6.34962e-47
6.34966e-47
6.34971e-47
6.34976e-47
6.34981e-47
6.34987e-47
6.34993e-47
6.35e-47
6.35007e-47
6.35014e-47
6.35022e-47
6.3503e-47
6.35038e-47
6.35048e-47
6.35057e-47
6.35067e-47
6.35078e-47
6.35089e-47
6.35101e-47
6.35114e-47
6.35127e-47
6.3514e-47
6.35154e-47
6.35169e-47
6.35185e-47
6.35201e-47
6.35218e-47
6.35236e-47
6.35254e-47
6.35273e-47
6.35293e-47
6.35313e-47
6.35335e-47
6.35357e-47
6.3538e-47
6.35403e-47
6.35428e-47
6.35453e-47
6.35479e-47
6.35506e-47
6.35534e-47
6.35563e-47
6.35592e-47
6.35623e-47
6.35654e-47
6.35686e-47
6.35719e-47
6.35753e-47
6.35788e-47
6.35823e-47
6.3586e-47
6.35897e-47
6.35935e-47
6.35974e-47
6.36014e-47
6.36055e-47
6.36096e-47
6.36139e-47
6.36182e-47
6.36225e-47
6.3627e-47
6.36315e-47
6.3636e-47
6.36406e-47
6.36452e-47
6.36497e-47
6.36538e-47
6.36572e-47
6.36597e-47
6.36635e-47
6.36671e-47
6.36706e-47
6.36741e-47
6.36775e-47
6.36811e-47
6.36852e-47
6.36897e-47
6.36949e-47
6.37008e-47
6.37071e-47
6.37139e-47
6.37208e-47
6.37277e-47
6.37345e-47
6.3741e-47
6.37472e-47
6.3753e-47
6.37585e-47
6.37637e-47
6.37686e-47
6.37732e-47
6.37776e-47
6.37818e-47
6.37857e-47
6.37895e-47
6.3793e-47
6.37962e-47
6.37993e-47
6.38021e-47
6.38046e-47
6.38068e-47
6.38087e-47
6.38103e-47
6.38115e-47
6.38124e-47
6.38129e-47
6.3813e-47
6.38127e-47
6.38119e-47
6.38106e-47
6.38088e-47
6.38065e-47
6.38037e-47
6.38003e-47
6.37963e-47
6.37916e-47
6.37863e-47
6.37804e-47
6.37737e-47
6.37663e-47
6.37582e-47
6.37492e-47
6.37395e-47
6.37289e-47
6.37174e-47
6.37051e-47
6.36918e-47
6.36776e-47
6.36623e-47
6.36461e-47
6.36288e-47
6.36105e-47
6.35911e-47
6.35706e-47
6.35489e-47
6.35261e-47
6.35021e-47
6.34769e-47
6.34504e-47
6.34227e-47
6.33938e-47
6.33635e-47
6.3332e-47
6.32991e-47
6.32649e-47
6.32294e-47
6.31925e-47
6.31542e-47
6.31146e-47
6.30736e-47
6.30313e-47
6.29875e-47
6.29425e-47
6.2896e-47
6.28482e-47
6.2799e-47
6.27485e-47
6.26967e-47
6.26437e-47
6.25894e-47
6.25351e-47
6.24883e-47
6.25089e-47
6.30585e-47
6.76583e-47
1.02882e-46
3.67102e-46
2.32486e-45
1.66684e-44
1.20585e-43
8.64961e-43
6.1365e-42
4.30394e-41
2.98372e-40
2.04425e-39
1.38397e-38
9.257e-38
6.11642e-37
3.9915e-36
2.57225e-35
1.63666e-34
1.02802e-33
6.37337e-33
3.89942e-32
2.35413e-31
1.40218e-30
8.23887e-30
4.77505e-29
2.7296e-28
1.53888e-27
8.55614e-27
4.69155e-26
2.53708e-25
1.35319e-24
7.13245e-24
3.70291e-23
1.89659e-22
9.58863e-22
4.78708e-21
2.3612e-20
1.15138e-19
5.55476e-19
2.65389e-18
1.25707e-17
5.91092e-17
2.76308e-16
1.28596e-15
5.9676e-15
2.76499e-14
1.28046e-13
5.93082e-13
2.74814e-12
1.27366e-11
5.90106e-11
2.74486e-10
1.28987e-09
6.09566e-09
2.89004e-08
1.39111e-07
7.09732e-07
4.1743e-06
2.84707e-05
0.000170251
0.0005242
0.000788663
0.000942294
0.00128014
0.00202687
0.00319595
0.00459306
0.00597606
0.00718906
0.00818147
0.00896546
0.00957643
0.0100519
0.0104239
0.0107171
0.0109501
0.0111365
0.0112864
0.011407
0.011504
0.0115814
0.0116425
0.0116898
0.0117252
0.0117504
0.0117666
0.0117749
0.0117761
0.011771
0.0117601
0.0117439
0.011723
0.0116985
0.0116707
0.0116394
0.0116047
0.0115667
0.0115255
0.0114812
0.011434
0.0113839
0.011331
0.0112755
0.0112174
0.0111569
0.0110941
0.0110292
0.0109622
0.0108935
0.0108231
0.0107512
0.0106782
0.0106041
0.0105293
0.010454
0.0103784
0.0103028
0.0102275
0.0101528
0.0100789
0.010006
0.00993439
0.00986429
0.00979588
0.00972932
0.00966476
0.0096023
0.009542
0.00948391
0.00942801
0.00937427
0.00932259
0.00927287
0.00922496
0.00917866
0.00913377
0.00909005
0.00904723
0.00900506
0.00896324
0.00892149
0.00887951
0.00883702
0.00879375
0.00874945
0.00870387
0.00865679
0.00860803
0.00855742
0.00850482
0.00845012
0.00839324
0.00833412
0.00827273
0.00820911
0.00814343
0.00807607
0.00800704
0.00793659
0.00786497
0.00779239
0.00771907
0.0076452
0.00757098
0.00749663
0.00742237
0.00734842
0.00727498
0.00720226
0.00713048
0.0070598
0.00699042
0.00692248
0.00685614
0.00679154
0.0067288
0.00666801
0.00660927
0.00655266
0.00649823
0.00644603
0.0063961
0.00634845
0.0063031
0.00626003
0.00621924
0.00618069
0.00614435
0.00611018
0.00607812
0.00604813
0.00602012
0.00599404
0.00596982
0.00594736
0.00592661
0.00590746
0.00588985
0.00587369
0.00585889
0.00584537
0.00583306
0.00582187
0.00581173
0.00580255
0.00579428
0.00578683
0.00578015
0.00577417
0.00576882
0.00576406
0.00575984
0.00575609
0.00575278
0.00574987
0.0057473
0.00574506
0.0057431
0.00574139
0.00573991
0.00573863
0.00573752
0.00573657
0.00573576
0.00573507
0.00573448
0.00573399
0.00573357
0.00573323
0.00573294
0.00573271
0.00573252
0.00573237
0.00573225
0.00573216
0.0057321
0.00573205
0.00573202
0.00573201
0.00573201
0.00573201
0.00573203
0.00573205
0.00573208
0.00573211
0.00573215
0.00573219
0.00573223
0.00573227
0.00573232
0.00573236
0.00573241
0.00573246
0.0057325
0.00573255
0.0057326
0.00573264
0.00573269
0.00573274
0.00573278
0.00573283
0.00573287
0.00573291
0.00573295
0.005733
0.00573304
0.00573308
0.00573312
0.00573315
0.00573319
0.00573323
0.00573326
0.0057333
0.00573333
0.00573336
0.00573339
0.00573342
0.00573345
0.00573347
0.00573348
)
;

boundaryField
{
    boundary
    {
        type            empty;
    }
    inlet
    {
        type            fixedValue;
        value           uniform 0;
    }
    outlet
    {
        type            zeroGradient;
    }
}


// ************************************************************************* //
