/*--------------------------------*- C++ -*----------------------------------*\
  =========                 |
  \\      /  F ield         | OpenFOAM: The Open Source CFD Toolbox
   \\    /   O peration     | Website:  https://openfoam.org
    \\  /    A nd           | Version:  7
     \\/     M anipulation  |
\*---------------------------------------------------------------------------*/
FoamFile
{
    version     2.0;
    format      ascii;
    class       surfaceScalarField;
    location    "0.00018";
    object      phi;
}
// * * * * * * * * * * * * * * * * * * * * * * * * * * * * * * * * * * * * * //

dimensions      [1 0 -1 0 0 0 0];

internalField   nonuniform List<scalar> 
499
(
6.92573e-06
6.92503e-06
6.92409e-06
6.92289e-06
6.92142e-06
6.91969e-06
6.91768e-06
6.9154e-06
6.91285e-06
6.91008e-06
6.90716e-06
6.90417e-06
6.90122e-06
6.89841e-06
6.89581e-06
6.89349e-06
6.89146e-06
6.88974e-06
6.8883e-06
6.88711e-06
6.88614e-06
6.88533e-06
6.88467e-06
6.8841e-06
6.88361e-06
6.88316e-06
6.88276e-06
6.88237e-06
6.882e-06
6.88164e-06
6.88129e-06
6.88094e-06
6.8806e-06
6.88026e-06
6.87992e-06
6.87958e-06
6.87925e-06
6.87891e-06
6.87858e-06
6.87825e-06
6.87792e-06
6.87759e-06
6.87727e-06
6.87695e-06
6.87663e-06
6.87631e-06
6.87599e-06
6.87567e-06
6.87536e-06
6.87505e-06
6.87474e-06
6.87443e-06
6.87413e-06
6.87383e-06
6.87353e-06
6.87323e-06
6.87293e-06
6.87264e-06
6.87235e-06
6.87206e-06
6.87177e-06
6.87148e-06
6.8712e-06
6.87092e-06
6.87064e-06
6.87037e-06
6.87009e-06
6.86982e-06
6.86955e-06
6.86928e-06
6.86902e-06
6.86875e-06
6.86849e-06
6.86824e-06
6.86798e-06
6.86773e-06
6.86747e-06
6.86722e-06
6.86698e-06
6.86673e-06
6.86649e-06
6.86625e-06
6.86601e-06
6.86577e-06
6.86554e-06
6.8653e-06
6.86507e-06
6.86484e-06
6.86462e-06
6.86439e-06
6.86417e-06
6.86395e-06
6.86373e-06
6.86351e-06
6.8633e-06
6.86308e-06
6.86287e-06
6.86266e-06
6.86245e-06
6.86224e-06
6.86204e-06
6.86183e-06
6.86163e-06
6.86143e-06
6.86123e-06
6.86103e-06
6.86084e-06
6.86064e-06
6.86045e-06
6.86025e-06
6.86006e-06
6.85987e-06
6.85968e-06
6.85949e-06
6.85931e-06
6.85912e-06
6.85893e-06
6.85875e-06
6.85857e-06
6.85838e-06
6.8582e-06
6.85802e-06
6.85784e-06
6.85766e-06
6.85748e-06
6.8573e-06
6.85713e-06
6.85695e-06
6.85677e-06
6.85659e-06
6.85642e-06
6.85624e-06
6.85607e-06
6.85589e-06
6.85571e-06
6.85554e-06
6.85536e-06
6.85518e-06
6.855e-06
6.85482e-06
6.85464e-06
6.85447e-06
6.85429e-06
6.85411e-06
6.85393e-06
6.85375e-06
6.85357e-06
6.85339e-06
6.85321e-06
6.85302e-06
6.85284e-06
6.85266e-06
6.85248e-06
6.85229e-06
6.85211e-06
6.85192e-06
6.85173e-06
6.85154e-06
6.85135e-06
6.85116e-06
6.85097e-06
6.85078e-06
6.85059e-06
6.85039e-06
6.8502e-06
6.85e-06
6.8498e-06
6.8496e-06
6.8494e-06
6.8492e-06
6.84899e-06
6.84879e-06
6.84858e-06
6.84838e-06
6.84817e-06
6.84796e-06
6.84775e-06
6.84754e-06
6.84732e-06
6.84711e-06
6.84689e-06
6.84667e-06
6.84646e-06
6.84624e-06
6.84602e-06
6.8458e-06
6.84557e-06
6.84535e-06
6.84513e-06
6.8449e-06
6.84468e-06
6.84445e-06
6.84423e-06
6.844e-06
6.84377e-06
6.84355e-06
6.84332e-06
6.84309e-06
6.84287e-06
6.84264e-06
6.84242e-06
6.84219e-06
6.84197e-06
6.84174e-06
6.84152e-06
6.8413e-06
6.84107e-06
6.84085e-06
6.84063e-06
6.84041e-06
6.8402e-06
6.83998e-06
6.83977e-06
6.83955e-06
6.83934e-06
6.83913e-06
6.83892e-06
6.83871e-06
6.83851e-06
6.8383e-06
6.8381e-06
6.83789e-06
6.83769e-06
6.83749e-06
6.83729e-06
6.83709e-06
6.83689e-06
6.83669e-06
6.83649e-06
6.83629e-06
6.83609e-06
6.83589e-06
6.83569e-06
6.83549e-06
6.83528e-06
6.83507e-06
6.83486e-06
6.83465e-06
6.83443e-06
6.83421e-06
6.83399e-06
6.83376e-06
6.83353e-06
6.83329e-06
6.83304e-06
6.83279e-06
6.83253e-06
6.83227e-06
6.832e-06
6.83172e-06
6.83144e-06
6.83115e-06
6.83085e-06
6.83054e-06
6.83023e-06
6.82991e-06
6.82958e-06
6.82924e-06
6.82889e-06
6.82854e-06
6.82818e-06
6.82781e-06
6.82744e-06
6.82705e-06
6.82667e-06
6.82627e-06
6.82588e-06
6.82547e-06
6.82507e-06
6.82466e-06
6.82426e-06
6.82391e-06
6.8237e-06
6.82388e-06
6.82522e-06
6.82974e-06
6.84261e-06
6.87443e-06
6.93479e-06
7.00869e-06
7.06808e-06
7.10695e-06
7.13252e-06
7.15076e-06
7.16459e-06
7.17525e-06
7.18337e-06
7.18909e-06
7.19338e-06
7.19628e-06
7.19787e-06
7.19844e-06
7.19839e-06
7.19806e-06
7.19772e-06
7.19747e-06
7.19738e-06
7.19742e-06
7.19758e-06
7.19782e-06
7.19812e-06
7.19846e-06
7.19884e-06
7.19925e-06
7.19968e-06
7.20015e-06
7.20065e-06
7.20119e-06
7.20178e-06
7.20241e-06
7.20311e-06
7.20386e-06
7.20463e-06
7.20546e-06
7.20636e-06
7.20733e-06
7.20837e-06
7.20948e-06
7.21066e-06
7.2119e-06
7.21321e-06
7.21456e-06
7.21596e-06
7.21739e-06
7.21884e-06
7.22027e-06
7.22168e-06
7.22303e-06
7.2243e-06
7.22544e-06
7.22642e-06
7.2272e-06
7.22772e-06
7.22795e-06
7.22782e-06
7.22728e-06
7.22627e-06
7.22474e-06
7.22261e-06
7.21984e-06
7.21637e-06
7.21213e-06
7.20708e-06
7.20118e-06
7.19437e-06
7.18663e-06
7.17793e-06
7.16825e-06
7.15759e-06
7.14595e-06
7.13334e-06
7.11978e-06
7.10532e-06
7.08999e-06
7.07385e-06
7.05698e-06
7.03944e-06
7.02131e-06
7.00269e-06
6.98367e-06
6.96435e-06
6.94483e-06
6.92522e-06
6.90561e-06
6.88612e-06
6.86683e-06
6.84786e-06
6.82929e-06
6.8112e-06
6.79368e-06
6.77679e-06
6.76061e-06
6.74518e-06
6.73056e-06
6.71677e-06
6.70386e-06
6.69183e-06
6.68073e-06
6.67055e-06
6.66129e-06
6.65295e-06
6.64549e-06
6.6389e-06
6.63315e-06
6.62821e-06
6.62404e-06
6.6206e-06
6.61785e-06
6.61573e-06
6.61421e-06
6.61322e-06
6.61273e-06
6.61267e-06
6.61301e-06
6.61369e-06
6.61466e-06
6.61589e-06
6.61733e-06
6.61894e-06
6.62069e-06
6.62253e-06
6.62445e-06
6.62642e-06
6.6284e-06
6.63038e-06
6.63234e-06
6.63426e-06
6.63613e-06
6.63794e-06
6.63967e-06
6.64133e-06
6.6429e-06
6.64437e-06
6.64576e-06
6.64705e-06
6.64824e-06
6.64935e-06
6.65036e-06
6.65127e-06
6.65211e-06
6.65286e-06
6.65352e-06
6.65412e-06
6.65463e-06
6.65509e-06
6.65547e-06
6.6558e-06
6.65607e-06
6.65629e-06
6.65647e-06
6.6566e-06
6.65669e-06
6.65674e-06
6.65676e-06
6.65675e-06
6.65671e-06
6.65665e-06
6.65656e-06
6.65646e-06
6.65633e-06
6.65619e-06
6.65604e-06
6.65587e-06
6.65569e-06
6.6555e-06
6.65531e-06
6.6551e-06
6.65489e-06
6.65467e-06
6.65444e-06
6.65421e-06
6.65397e-06
6.65373e-06
6.65349e-06
6.65324e-06
6.65299e-06
6.65274e-06
6.65249e-06
6.65223e-06
6.65197e-06
6.65171e-06
6.65144e-06
6.65118e-06
6.65091e-06
6.65064e-06
6.65037e-06
6.6501e-06
6.64983e-06
6.64955e-06
6.64928e-06
6.649e-06
6.64872e-06
6.64844e-06
6.64816e-06
6.64788e-06
6.6476e-06
6.64731e-06
6.64703e-06
6.64674e-06
6.64645e-06
6.64616e-06
6.64587e-06
6.64558e-06
6.64529e-06
6.64499e-06
6.6447e-06
6.6444e-06
6.6441e-06
6.6438e-06
6.6435e-06
6.6432e-06
6.6429e-06
6.64259e-06
6.64229e-06
6.64198e-06
6.64167e-06
6.64136e-06
6.64105e-06
6.64074e-06
)
;

boundaryField
{
    boundary
    {
        type            empty;
        value           nonuniform 0();
    }
    inlet
    {
        type            calculated;
        value           uniform -6.92628e-06;
    }
    outlet
    {
        type            calculated;
        value           uniform 6.64043e-06;
    }
}


// ************************************************************************* //
