/*--------------------------------*- C++ -*----------------------------------*\
  =========                 |
  \\      /  F ield         | OpenFOAM: The Open Source CFD Toolbox
   \\    /   O peration     | Website:  https://openfoam.org
    \\  /    A nd           | Version:  7
     \\/     M anipulation  |
\*---------------------------------------------------------------------------*/
FoamFile
{
    version     2.0;
    format      ascii;
    class       volScalarField;
    location    "0.00018";
    object      rho;
}
// * * * * * * * * * * * * * * * * * * * * * * * * * * * * * * * * * * * * * //

dimensions      [1 -3 0 0 0 0 0];

internalField   nonuniform List<scalar> 
500
(
0.864166
0.864106
0.864015
0.863891
0.863735
0.863544
0.863321
0.863064
0.862779
0.862471
0.862151
0.86183
0.861521
0.861232
0.860974
0.860751
0.860565
0.860414
0.860296
0.860207
0.860141
0.860094
0.860061
0.860039
0.860025
0.860015
0.86001
0.860006
0.860004
0.860003
0.860002
0.860001
0.860001
0.860001
0.860001
0.860001
0.860001
0.860001
0.860001
0.86
0.86
0.86
0.86
0.86
0.86
0.86
0.86
0.86
0.86
0.86
0.86
0.86
0.86
0.859999
0.859999
0.859999
0.859999
0.859999
0.859999
0.859999
0.859999
0.859998
0.859998
0.859998
0.859998
0.859998
0.859998
0.859998
0.859997
0.859997
0.859997
0.859997
0.859997
0.859996
0.859996
0.859996
0.859996
0.859996
0.859995
0.859995
0.859995
0.859995
0.859994
0.859994
0.859994
0.859993
0.859993
0.859993
0.859993
0.859992
0.859992
0.859991
0.859991
0.859991
0.85999
0.85999
0.85999
0.859989
0.859989
0.859988
0.859988
0.859988
0.859987
0.859987
0.859986
0.859986
0.859985
0.859985
0.859984
0.859984
0.859983
0.859983
0.859982
0.859981
0.859981
0.85998
0.85998
0.859979
0.859979
0.859978
0.859977
0.859977
0.859976
0.859976
0.859975
0.859975
0.859974
0.859974
0.859973
0.859973
0.859972
0.859972
0.859971
0.859971
0.85997
0.859969
0.859968
0.859968
0.859967
0.859966
0.859965
0.859965
0.859964
0.859963
0.859963
0.859962
0.859961
0.859961
0.85996
0.85996
0.859959
0.859959
0.859959
0.859958
0.859958
0.859958
0.859957
0.859957
0.859957
0.859957
0.859956
0.859956
0.859956
0.859956
0.859957
0.859957
0.859957
0.859957
0.859957
0.859958
0.859958
0.859959
0.859959
0.85996
0.859961
0.859962
0.859963
0.859964
0.859965
0.859966
0.859967
0.859969
0.85997
0.859972
0.859974
0.859976
0.859978
0.85998
0.859982
0.859985
0.859987
0.85999
0.859993
0.859996
0.859999
0.860002
0.860006
0.860009
0.860013
0.860017
0.860021
0.860025
0.86003
0.860034
0.860039
0.860044
0.860049
0.860054
0.86006
0.860065
0.860071
0.860077
0.860083
0.860089
0.860095
0.860102
0.860109
0.860116
0.860123
0.86013
0.860137
0.860145
0.860152
0.86016
0.860168
0.860176
0.860184
0.860192
0.860201
0.860209
0.860218
0.860227
0.860235
0.860244
0.860253
0.860262
0.860271
0.86028
0.86029
0.860299
0.860308
0.860318
0.860327
0.860337
0.860346
0.860356
0.860365
0.860375
0.860385
0.860395
0.860405
0.860415
0.860425
0.860435
0.860446
0.860456
0.860467
0.860477
0.860488
0.860498
0.860509
0.86052
0.860531
0.860542
0.860553
0.860565
0.860577
0.86059
0.860603
0.860616
0.860623
0.860604
0.860492
0.860073
0.858686
0.854351
0.841434
0.805818
0.724311
0.595101
0.465222
0.37146
0.310586
0.269627
0.240646
0.219921
0.20518
0.194604
0.186824
0.180908
0.176258
0.172495
0.169375
0.166738
0.164471
0.162498
0.160759
0.159213
0.157826
0.156572
0.155432
0.15439
0.153432
0.152548
0.15173
0.15097
0.150262
0.149601
0.148982
0.148403
0.147858
0.147348
0.146881
0.146449
0.146036
0.145643
0.145269
0.144912
0.144571
0.144246
0.143935
0.143637
0.143351
0.143077
0.142813
0.142559
0.142313
0.142074
0.141841
0.141614
0.14139
0.141169
0.14095
0.140731
0.140512
0.14029
0.140064
0.139834
0.139598
0.139355
0.139103
0.138842
0.138571
0.138289
0.137995
0.137689
0.13737
0.137039
0.136695
0.136338
0.135969
0.135589
0.135198
0.134798
0.134389
0.133973
0.133551
0.133125
0.132696
0.132266
0.131838
0.131412
0.13099
0.130575
0.130167
0.129769
0.129382
0.129007
0.128646
0.128299
0.127969
0.127654
0.127357
0.127078
0.126817
0.126574
0.126347
0.12614
0.125952
0.125782
0.125629
0.125493
0.125374
0.12527
0.12518
0.125105
0.125042
0.124992
0.124953
0.124924
0.124905
0.124894
0.12489
0.124893
0.124902
0.124916
0.124934
0.124956
0.12498
0.125007
0.125035
0.125065
0.125095
0.125125
0.125156
0.125186
0.125216
0.125245
0.125273
0.1253
0.125326
0.125351
0.125374
0.125396
0.125416
0.125436
0.125453
0.12547
0.125485
0.125499
0.125512
0.125523
0.125534
0.125543
0.125552
0.125559
0.125566
0.125572
0.125578
0.125583
0.125587
0.125591
0.125594
0.125596
0.125599
0.125601
0.125603
0.125604
0.125605
0.125606
0.125607
0.125607
0.125608
0.125608
0.125608
0.125608
0.125608
0.125608
0.125608
0.125608
0.125608
0.125607
0.125607
0.125607
0.125606
0.125606
0.125606
0.125605
0.125605
0.125604
0.125604
0.125603
0.125603
0.125602
0.125602
0.125601
0.125601
0.1256
0.1256
0.125599
0.125599
0.125598
0.125598
0.125598
0.125597
0.125597
0.125596
0.125596
0.125595
0.125595
0.125594
0.125594
0.125593
0.125593
0.125593
0.125592
0.125592
0.125591
0.125591
0.125591
0.12559
0.12559
0.125589
0.125589
0.125589
0.125588
0.125588
0.125588
0.125587
0.125587
)
;

boundaryField
{
    boundary
    {
        type            empty;
    }
    inlet
    {
        type            calculated;
        value           uniform 0.864192;
    }
    outlet
    {
        type            calculated;
        value           uniform 0.125587;
    }
}


// ************************************************************************* //
