/*--------------------------------*- C++ -*----------------------------------*\
  =========                 |
  \\      /  F ield         | OpenFOAM: The Open Source CFD Toolbox
   \\    /   O peration     | Website:  https://openfoam.org
    \\  /    A nd           | Version:  7
     \\/     M anipulation  |
\*---------------------------------------------------------------------------*/
FoamFile
{
    version     2.0;
    format      ascii;
    class       volScalarField;
    location    "0.00018";
    object      T;
}
// * * * * * * * * * * * * * * * * * * * * * * * * * * * * * * * * * * * * * //

dimensions      [0 0 0 1 0 0 0];

internalField   nonuniform List<scalar> 
500
(
300.009
300.03
300.062
300.104
300.159
300.225
300.303
300.392
300.492
300.599
300.71
300.822
300.93
301.031
301.121
301.199
301.265
301.317
301.359
301.39
301.413
301.429
301.441
301.449
301.454
301.457
301.459
301.46
301.461
301.461
301.462
301.462
301.462
301.462
301.462
301.462
301.462
301.462
301.462
301.462
301.462
301.462
301.462
301.462
301.462
301.462
301.462
301.462
301.462
301.462
301.462
301.462
301.462
301.462
301.462
301.462
301.462
301.462
301.462
301.462
301.462
301.462
301.462
301.462
301.462
301.463
301.463
301.463
301.463
301.463
301.463
301.463
301.463
301.463
301.463
301.463
301.463
301.463
301.463
301.463
301.463
301.463
301.464
301.464
301.464
301.464
301.464
301.464
301.464
301.464
301.464
301.464
301.465
301.465
301.465
301.465
301.465
301.465
301.465
301.465
301.466
301.466
301.466
301.466
301.466
301.466
301.467
301.467
301.467
301.467
301.467
301.468
301.468
301.468
301.468
301.468
301.469
301.469
301.469
301.469
301.469
301.47
301.47
301.47
301.47
301.47
301.471
301.471
301.471
301.471
301.471
301.472
301.472
301.472
301.472
301.473
301.473
301.473
301.474
301.474
301.474
301.474
301.475
301.475
301.475
301.476
301.476
301.476
301.476
301.476
301.477
301.477
301.477
301.477
301.477
301.478
301.478
301.478
301.478
301.478
301.478
301.478
301.478
301.478
301.478
301.478
301.478
301.478
301.478
301.478
301.478
301.478
301.478
301.478
301.478
301.477
301.477
301.477
301.477
301.476
301.476
301.475
301.475
301.474
301.474
301.473
301.473
301.472
301.471
301.471
301.47
301.469
301.468
301.467
301.466
301.465
301.464
301.463
301.461
301.46
301.459
301.457
301.456
301.455
301.453
301.451
301.45
301.448
301.446
301.444
301.442
301.44
301.438
301.436
301.434
301.432
301.43
301.427
301.425
301.422
301.42
301.417
301.415
301.412
301.41
301.407
301.404
301.401
301.398
301.395
301.393
301.39
301.387
301.384
301.38
301.377
301.374
301.371
301.368
301.365
301.362
301.358
301.355
301.352
301.349
301.345
301.342
301.339
301.335
301.332
301.328
301.325
301.322
301.318
301.314
301.311
301.307
301.304
301.3
301.296
301.293
301.289
301.285
301.282
301.278
301.274
301.27
301.266
301.262
301.261
301.264
301.282
301.348
301.55
302.154
303.934
309.111
323.823
362.361
444.969
575.598
729.681
883.215
1028.51
1162.64
1280.54
1378.88
1458.75
1523.56
1576.95
1621.78
1660.13
1693.46
1722.83
1748.98
1772.49
1793.78
1813.21
1831.03
1847.47
1862.69
1876.85
1890.05
1902.41
1913.99
1924.89
1935.14
1944.81
1953.95
1962.58
1970.75
1978.47
1985.57
1992.19
1998.52
2004.58
2010.38
2015.92
2021.23
2026.3
2031.17
2035.83
2040.31
2044.61
2048.75
2052.73
2056.59
2060.32
2063.96
2067.5
2070.98
2074.41
2077.81
2081.2
2084.6
2088.03
2091.52
2095.09
2098.75
2102.53
2106.46
2110.54
2114.8
2119.25
2123.92
2128.81
2133.93
2139.29
2144.9
2150.76
2156.87
2163.22
2169.8
2176.61
2183.63
2190.84
2198.23
2205.77
2213.44
2221.2
2229.04
2236.93
2244.82
2252.7
2260.53
2268.27
2275.91
2283.42
2290.75
2297.9
2304.84
2311.54
2317.99
2324.17
2330.07
2335.68
2341.03
2346.05
2350.75
2355.14
2359.23
2363.02
2366.51
2369.73
2372.66
2375.33
2377.75
2379.93
2381.89
2383.64
2385.19
2386.56
2387.77
2388.82
2389.74
2390.54
2391.22
2391.81
2392.3
2392.72
2393.08
2393.37
2393.61
2393.81
2393.97
2394.1
2394.2
2394.29
2394.35
2394.4
2394.43
2394.46
2394.48
2394.49
2394.5
2394.51
2394.51
2394.51
2394.52
2394.52
2394.52
2394.52
2394.52
2394.53
2394.53
2394.53
2394.54
2394.55
2394.55
2394.56
2394.57
2394.57
2394.58
2394.59
2394.6
2394.61
2394.62
2394.63
2394.64
2394.65
2394.66
2394.67
2394.67
2394.68
2394.69
2394.7
2394.71
2394.72
2394.73
2394.74
2394.75
2394.76
2394.77
2394.77
2394.78
2394.79
2394.8
2394.81
2394.82
2394.83
2394.83
2394.84
2394.85
2394.86
2394.87
2394.87
2394.88
2394.89
2394.9
2394.91
2394.91
2394.92
2394.93
2394.94
2394.94
2394.95
2394.96
2394.96
2394.97
2394.98
2394.98
2394.99
2395
2395
2395.01
2395.02
2395.02
2395.03
2395.03
2395.04
2395.05
2395.05
2395.06
2395.06
2395.07
2395.07
2395.08
2395.08
2395.09
2395.09
)
;

boundaryField
{
    boundary
    {
        type            empty;
    }
    inlet
    {
        type            fixedValue;
        value           uniform 300;
    }
    outlet
    {
        type            zeroGradient;
    }
}


// ************************************************************************* //
