/*--------------------------------*- C++ -*----------------------------------*\
  =========                 |
  \\      /  F ield         | OpenFOAM: The Open Source CFD Toolbox
   \\    /   O peration     | Website:  https://openfoam.org
    \\  /    A nd           | Version:  7
     \\/     M anipulation  |
\*---------------------------------------------------------------------------*/
FoamFile
{
    version     2.0;
    format      ascii;
    class       volVectorField;
    location    "0.00069";
    object      U;
}
// * * * * * * * * * * * * * * * * * * * * * * * * * * * * * * * * * * * * * //

dimensions      [0 1 -1 0 0 0 0];

internalField   nonuniform List<vector> 
126
(
(2.35286 0 0)
(2.35289 0 0)
(2.35291 0 0)
(2.35294 0 0)
(2.35296 0 0)
(2.35299 0 0)
(2.35302 0 0)
(2.35304 0 0)
(2.35307 0 0)
(2.35309 0 0)
(2.35312 0 0)
(2.35315 0 0)
(2.35317 0 0)
(2.3532 0 0)
(2.35322 0 0)
(2.35325 0 0)
(2.35327 0 0)
(2.3533 0 0)
(2.35332 0 0)
(2.35335 0 0)
(2.35337 0 0)
(2.3534 0 0)
(2.35342 0 0)
(2.35345 0 0)
(2.35347 0 0)
(2.35349 0 0)
(2.35352 0 0)
(2.35354 0 0)
(2.35357 0 0)
(2.35359 0 0)
(2.35361 0 0)
(2.35364 0 0)
(2.35366 0 0)
(2.35368 0 0)
(2.35371 0 0)
(2.35373 0 0)
(2.35375 0 0)
(2.35378 0 0)
(2.3538 0 0)
(2.35382 0 0)
(2.35385 0 0)
(2.35387 0 0)
(2.35389 0 0)
(2.35392 0 0)
(2.35394 0 0)
(2.35396 0 0)
(2.35398 0 0)
(2.35401 0 0)
(2.35403 0 0)
(2.35405 0 0)
(2.35408 0 0)
(2.3541 0 0)
(2.35412 0 0)
(2.35414 0 0)
(2.35416 0 0)
(2.35419 0 0)
(2.35421 0 0)
(2.35423 0 0)
(2.35425 0 0)
(2.35428 0 0)
(2.3543 0 0)
(2.35432 0 0)
(2.35434 0 0)
(2.35436 0 0)
(2.35438 0 0)
(2.35441 0 0)
(2.35443 0 0)
(2.35445 0 0)
(2.35447 0 0)
(2.35449 0 0)
(2.35452 0 0)
(2.35454 0 0)
(2.35456 0 0)
(2.35458 0 0)
(2.3546 0 0)
(2.35462 0 0)
(2.35465 0 0)
(2.35467 0 0)
(2.35469 0 0)
(2.35471 0 0)
(2.35473 0 0)
(2.35475 0 0)
(2.35477 0 0)
(2.3548 0 0)
(2.35482 0 0)
(2.35484 0 0)
(2.35486 0 0)
(2.35488 0 0)
(2.3549 0 0)
(2.35492 0 0)
(2.35495 0 0)
(2.35497 0 0)
(2.35499 0 0)
(2.35501 0 0)
(2.35503 0 0)
(2.35505 0 0)
(2.35507 0 0)
(2.3551 0 0)
(2.35512 0 0)
(2.35514 0 0)
(2.35516 0 0)
(2.35518 0 0)
(2.3552 0 0)
(2.35522 0 0)
(2.35525 0 0)
(2.35527 0 0)
(2.35529 0 0)
(2.35531 0 0)
(2.35533 0 0)
(2.35535 0 0)
(2.35538 0 0)
(2.3554 0 0)
(2.35542 0 0)
(2.35544 0 0)
(2.35546 0 0)
(2.35549 0 0)
(2.35551 0 0)
(2.35553 0 0)
(2.35555 0 0)
(2.35557 0 0)
(2.3556 0 0)
(2.35562 0 0)
(2.35564 0 0)
(2.35566 0 0)
(2.35568 0 0)
(2.35571 0 0)
)
;

boundaryField
{
    boundary
    {
        type            empty;
    }
    inlet
    {
        type            fixedValue;
        value           nonuniform 0();
    }
    outlet
    {
        type            zeroGradient;
    }
    procBoundary3to1
    {
        type            processor;
        value           uniform (2.35573 0 0);
    }
    procBoundary3to2
    {
        type            processor;
        value           uniform (2.35283 0 0);
    }
}


// ************************************************************************* //
