/*--------------------------------*- C++ -*----------------------------------*\
  =========                 |
  \\      /  F ield         | OpenFOAM: The Open Source CFD Toolbox
   \\    /   O peration     | Website:  https://openfoam.org
    \\  /    A nd           | Version:  7
     \\/     M anipulation  |
\*---------------------------------------------------------------------------*/
FoamFile
{
    version     2.0;
    format      ascii;
    class       volScalarField;
    location    "0.00064";
    object      H2O2;
}
// * * * * * * * * * * * * * * * * * * * * * * * * * * * * * * * * * * * * * //

dimensions      [0 0 0 0 0 0 0];

internalField   nonuniform List<scalar> 
125
(
1.98489e-52
6.37081e-52
1.26568e-51
2.08461e-51
3.09455e-51
4.29653e-51
5.69182e-51
7.28178e-51
9.0678e-51
1.10512e-50
1.32331e-50
1.56148e-50
1.81975e-50
2.09827e-50
2.39722e-50
2.71684e-50
3.05744e-50
3.41943e-50
3.80336e-50
4.2099e-50
4.63992e-50
5.09445e-50
5.57477e-50
6.08234e-50
6.61887e-50
7.18626e-50
7.7866e-50
8.4221e-50
9.09505e-50
9.80769e-50
1.05621e-49
1.136e-49
1.22029e-49
1.30914e-49
1.40256e-49
1.50044e-49
1.60258e-49
1.70867e-49
1.81826e-49
1.9308e-49
2.0456e-49
2.16189e-49
2.27878e-49
2.39536e-49
2.51064e-49
2.62365e-49
2.73344e-49
2.83911e-49
2.93987e-49
3.03502e-49
3.12399e-49
3.20636e-49
3.28187e-49
3.35039e-49
3.41195e-49
3.4667e-49
3.51491e-49
3.55693e-49
3.59319e-49
3.62417e-49
3.65038e-49
3.67233e-49
3.69055e-49
3.70552e-49
3.7177e-49
3.72752e-49
3.73537e-49
3.74158e-49
3.74645e-49
3.75024e-49
3.75316e-49
3.75539e-49
3.75709e-49
3.75836e-49
3.75931e-49
3.76001e-49
3.76053e-49
3.76091e-49
3.76119e-49
3.7614e-49
3.76155e-49
3.76166e-49
3.76174e-49
3.76181e-49
3.76186e-49
3.76191e-49
3.76195e-49
3.76199e-49
3.76202e-49
3.76206e-49
3.7621e-49
3.76213e-49
3.76217e-49
3.76222e-49
3.76226e-49
3.76231e-49
3.76236e-49
3.76241e-49
3.76246e-49
3.76252e-49
3.76258e-49
3.76265e-49
3.76271e-49
3.76278e-49
3.76286e-49
3.76294e-49
3.76302e-49
3.76311e-49
3.7632e-49
3.76329e-49
3.76339e-49
3.76349e-49
3.7636e-49
3.76371e-49
3.76383e-49
3.76395e-49
3.76407e-49
3.7642e-49
3.76434e-49
3.76447e-49
3.76459e-49
3.76465e-49
3.76441e-49
3.76303e-49
3.75711e-49
)
;

boundaryField
{
    boundary
    {
        type            empty;
    }
    inlet
    {
        type            fixedValue;
        value           uniform 0;
    }
    outlet
    {
        type            zeroGradient;
    }
    procBoundary2to3
    {
        type            processor;
        value           uniform 3.74523e-49;
    }
}


// ************************************************************************* //
