/*--------------------------------*- C++ -*----------------------------------*\
  =========                 |
  \\      /  F ield         | OpenFOAM: The Open Source CFD Toolbox
   \\    /   O peration     | Website:  https://openfoam.org
    \\  /    A nd           | Version:  7
     \\/     M anipulation  |
\*---------------------------------------------------------------------------*/
FoamFile
{
    version     2.0;
    format      ascii;
    class       volScalarField;
    location    "0.00015";
    object      HO2;
}
// * * * * * * * * * * * * * * * * * * * * * * * * * * * * * * * * * * * * * //

dimensions      [0 0 0 0 0 0 0];

internalField   nonuniform List<scalar> 
126
(
1.05638e-36
1.05664e-36
1.05699e-36
1.05747e-36
1.05814e-36
1.05906e-36
1.06021e-36
1.06156e-36
1.06301e-36
1.06448e-36
1.06586e-36
1.06708e-36
1.0681e-36
1.06891e-36
1.06954e-36
1.07e-36
1.07033e-36
1.07057e-36
1.07074e-36
1.07086e-36
1.07095e-36
1.07103e-36
1.07109e-36
1.07114e-36
1.07119e-36
1.07123e-36
1.07127e-36
1.07131e-36
1.07134e-36
1.07137e-36
1.0714e-36
1.07142e-36
1.07144e-36
1.07145e-36
1.07146e-36
1.07147e-36
1.07147e-36
1.07146e-36
1.07145e-36
1.07143e-36
1.07141e-36
1.07138e-36
1.07134e-36
1.07129e-36
1.07124e-36
1.07118e-36
1.07111e-36
1.07103e-36
1.07095e-36
1.07085e-36
1.07075e-36
1.07063e-36
1.0705e-36
1.07037e-36
1.07022e-36
1.07006e-36
1.06989e-36
1.0697e-36
1.06951e-36
1.0693e-36
1.06907e-36
1.06883e-36
1.06858e-36
1.06832e-36
1.06804e-36
1.06774e-36
1.06743e-36
1.0671e-36
1.06676e-36
1.0664e-36
1.06602e-36
1.06563e-36
1.06522e-36
1.06479e-36
1.06434e-36
1.06388e-36
1.0634e-36
1.0629e-36
1.06238e-36
1.06184e-36
1.06129e-36
1.06071e-36
1.06012e-36
1.05951e-36
1.05889e-36
1.05824e-36
1.05758e-36
1.05689e-36
1.05619e-36
1.05548e-36
1.05474e-36
1.05399e-36
1.05322e-36
1.05244e-36
1.05164e-36
1.05082e-36
1.04999e-36
1.04915e-36
1.04829e-36
1.04742e-36
1.04653e-36
1.04564e-36
1.04474e-36
1.0439e-36
1.04344e-36
1.04531e-36
1.06085e-36
1.15611e-36
1.71308e-36
4.93086e-36
2.34239e-35
1.29391e-34
7.35735e-34
4.20517e-33
2.40811e-32
1.38202e-31
7.95415e-31
4.59366e-30
2.66312e-29
1.55033e-28
9.06543e-28
5.32622e-27
3.14534e-26
1.86762e-25
1.11531e-24
6.69893e-24
)
;

boundaryField
{
    boundary
    {
        type            empty;
    }
    inlet
    {
        type            fixedValue;
        value           nonuniform 0();
    }
    outlet
    {
        type            zeroGradient;
    }
    procBoundary3to1
    {
        type            processor;
        value           uniform 4.26995e-23;
    }
    procBoundary3to2
    {
        type            processor;
        value           uniform 1.06418e-36;
    }
}


// ************************************************************************* //
