/*--------------------------------*- C++ -*----------------------------------*\
  =========                 |
  \\      /  F ield         | OpenFOAM: The Open Source CFD Toolbox
   \\    /   O peration     | Website:  https://openfoam.org
    \\  /    A nd           | Version:  7
     \\/     M anipulation  |
\*---------------------------------------------------------------------------*/
FoamFile
{
    version     2.0;
    format      ascii;
    class       volScalarField;
    location    "0.00015";
    object      p;
}
// * * * * * * * * * * * * * * * * * * * * * * * * * * * * * * * * * * * * * //

dimensions      [1 -1 -2 0 0 0 0];

internalField   nonuniform List<scalar> 
126
(
103049
103049
103048
103048
103048
103048
103048
103048
103048
103048
103047
103047
103047
103047
103047
103047
103047
103047
103046
103046
103046
103046
103046
103046
103046
103046
103045
103045
103045
103045
103045
103045
103045
103044
103044
103044
103044
103044
103044
103044
103044
103043
103043
103043
103043
103043
103043
103043
103043
103042
103042
103042
103042
103042
103042
103042
103042
103041
103041
103041
103041
103041
103041
103041
103041
103040
103040
103040
103040
103040
103040
103040
103040
103039
103039
103039
103039
103039
103039
103039
103039
103039
103038
103038
103038
103038
103038
103038
103038
103038
103038
103037
103037
103037
103037
103037
103037
103037
103037
103037
103036
103036
103036
103036
103036
103036
103036
103036
103036
103035
103035
103035
103035
103035
103035
103035
103035
103035
103035
103034
103034
103034
103034
103034
103034
103034
)
;

boundaryField
{
    boundary
    {
        type            empty;
    }
    inlet
    {
        type            zeroGradient;
    }
    outlet
    {
        type            waveTransmissive;
        gamma           1.4;
        value           nonuniform 0();
    }
    procBoundary3to1
    {
        type            processor;
        value           uniform 103034;
    }
    procBoundary3to2
    {
        type            processor;
        value           uniform 103049;
    }
}


// ************************************************************************* //
