/*--------------------------------*- C++ -*----------------------------------*\
  =========                 |
  \\      /  F ield         | OpenFOAM: The Open Source CFD Toolbox
   \\    /   O peration     | Website:  https://openfoam.org
    \\  /    A nd           | Version:  7
     \\/     M anipulation  |
\*---------------------------------------------------------------------------*/
FoamFile
{
    version     2.0;
    format      ascii;
    class       volScalarField;
    location    "0.00015";
    object      T;
}
// * * * * * * * * * * * * * * * * * * * * * * * * * * * * * * * * * * * * * //

dimensions      [0 0 0 1 0 0 0];

internalField   nonuniform List<scalar> 
126
(
301.451
301.451
301.452
301.452
301.452
301.452
301.452
301.452
301.452
301.452
301.453
301.453
301.453
301.453
301.453
301.454
301.454
301.454
301.454
301.454
301.454
301.454
301.455
301.455
301.455
301.455
301.455
301.455
301.455
301.455
301.455
301.455
301.455
301.455
301.455
301.455
301.455
301.455
301.455
301.455
301.454
301.454
301.454
301.454
301.454
301.453
301.453
301.453
301.452
301.452
301.452
301.451
301.451
301.45
301.45
301.449
301.448
301.448
301.447
301.446
301.445
301.445
301.444
301.443
301.442
301.441
301.44
301.439
301.437
301.436
301.435
301.434
301.432
301.431
301.429
301.428
301.426
301.424
301.423
301.421
301.419
301.417
301.415
301.413
301.411
301.409
301.406
301.404
301.402
301.399
301.397
301.394
301.392
301.389
301.387
301.384
301.381
301.378
301.375
301.373
301.37
301.367
301.364
301.361
301.357
301.354
301.351
301.348
301.345
301.342
301.338
301.335
301.332
301.328
301.325
301.322
301.318
301.315
301.312
301.308
301.305
301.301
301.298
301.294
301.291
301.287
)
;

boundaryField
{
    boundary
    {
        type            empty;
    }
    inlet
    {
        type            fixedValue;
        value           nonuniform 0();
    }
    outlet
    {
        type            zeroGradient;
    }
    procBoundary3to1
    {
        type            processor;
        value           uniform 301.284;
    }
    procBoundary3to2
    {
        type            processor;
        value           uniform 301.451;
    }
}


// ************************************************************************* //
