/*--------------------------------*- C++ -*----------------------------------*\
  =========                 |
  \\      /  F ield         | OpenFOAM: The Open Source CFD Toolbox
   \\    /   O peration     | Website:  https://openfoam.org
    \\  /    A nd           | Version:  7
     \\/     M anipulation  |
\*---------------------------------------------------------------------------*/
FoamFile
{
    version     2.0;
    format      ascii;
    class       volScalarField;
    location    "0.00016";
    object      H;
}
// * * * * * * * * * * * * * * * * * * * * * * * * * * * * * * * * * * * * * //

dimensions      [0 0 0 0 0 0 0];

internalField   nonuniform List<scalar> 
125
(
1.49885e-41
2.05298e-41
2.20065e-41
2.26689e-41
2.32293e-41
2.38528e-41
2.45804e-41
2.5417e-41
2.63478e-41
2.73423e-41
2.83597e-41
2.93544e-41
3.02837e-41
3.11139e-41
3.18238e-41
3.24056e-41
3.28637e-41
3.32106e-41
3.3464e-41
3.36427e-41
3.37647e-41
3.38454e-41
3.38971e-41
3.39294e-41
3.39489e-41
3.39604e-41
3.39669e-41
3.39705e-41
3.39724e-41
3.39733e-41
3.39737e-41
3.39737e-41
3.39737e-41
3.39735e-41
3.39733e-41
3.39731e-41
3.39728e-41
3.39726e-41
3.39723e-41
3.39721e-41
3.39718e-41
3.39715e-41
3.39713e-41
3.3971e-41
3.39708e-41
3.39705e-41
3.39703e-41
3.397e-41
3.39698e-41
3.39695e-41
3.39693e-41
3.3969e-41
3.39688e-41
3.39686e-41
3.39684e-41
3.39681e-41
3.39679e-41
3.39677e-41
3.39676e-41
3.39674e-41
3.39672e-41
3.39671e-41
3.39669e-41
3.39668e-41
3.39667e-41
3.39666e-41
3.39665e-41
3.39664e-41
3.39663e-41
3.39663e-41
3.39663e-41
3.39663e-41
3.39663e-41
3.39663e-41
3.39664e-41
3.39665e-41
3.39666e-41
3.39667e-41
3.39669e-41
3.3967e-41
3.39672e-41
3.39675e-41
3.39677e-41
3.3968e-41
3.39683e-41
3.39687e-41
3.39691e-41
3.39695e-41
3.39699e-41
3.39704e-41
3.39709e-41
3.39714e-41
3.3972e-41
3.39726e-41
3.39733e-41
3.39739e-41
3.39746e-41
3.39754e-41
3.39762e-41
3.3977e-41
3.39779e-41
3.39788e-41
3.39797e-41
3.39807e-41
3.39817e-41
3.39827e-41
3.39838e-41
3.39849e-41
3.39861e-41
3.39873e-41
3.39885e-41
3.39898e-41
3.39911e-41
3.39924e-41
3.39938e-41
3.39952e-41
3.39966e-41
3.39981e-41
3.39995e-41
3.40011e-41
3.40026e-41
3.40041e-41
3.40055e-41
3.40067e-41
3.40074e-41
)
;

boundaryField
{
    boundary
    {
        type            empty;
    }
    inlet
    {
        type            fixedValue;
        value           uniform 0;
    }
    outlet
    {
        type            zeroGradient;
    }
    procBoundary2to3
    {
        type            processor;
        value           uniform 3.40079e-41;
    }
}


// ************************************************************************* //
