/*--------------------------------*- C++ -*----------------------------------*\
  =========                 |
  \\      /  F ield         | OpenFOAM: The Open Source CFD Toolbox
   \\    /   O peration     | Website:  https://openfoam.org
    \\  /    A nd           | Version:  7
     \\/     M anipulation  |
\*---------------------------------------------------------------------------*/
FoamFile
{
    version     2.0;
    format      ascii;
    class       volScalarField;
    location    "0.00054";
    object      HO2;
}
// * * * * * * * * * * * * * * * * * * * * * * * * * * * * * * * * * * * * * //

dimensions      [0 0 0 0 0 0 0];

internalField   nonuniform List<scalar> 
125
(
1.54069e-19
6.55312e-19
2.78079e-18
1.1792e-17
4.99845e-17
2.11803e-16
8.97176e-16
3.79905e-15
1.60816e-14
6.80521e-14
2.8788e-13
1.2174e-12
5.14623e-12
2.17449e-11
9.18348e-11
3.87606e-10
1.63473e-09
6.88775e-09
2.89821e-08
1.21644e-07
5.08256e-07
2.09897e-06
8.48082e-06
3.26522e-05
0.000112892
0.000305661
0.000500619
0.000502668
0.000406819
0.0002962
0.00020861
0.000146115
0.000102098
7.16778e-05
5.16367e-05
3.62333e-05
2.77951e-05
2.23521e-05
1.87447e-05
1.62652e-05
1.44877e-05
1.31576e-05
1.21219e-05
1.12868e-05
1.05939e-05
1.00056e-05
9.49674e-06
9.05021e-06
8.65381e-06
8.29863e-06
7.97792e-06
7.6865e-06
7.42025e-06
7.17587e-06
6.95064e-06
6.74233e-06
6.54905e-06
6.36922e-06
6.20151e-06
6.04479e-06
5.89817e-06
5.76503e-06
5.64126e-06
5.52378e-06
5.41213e-06
5.30588e-06
5.20465e-06
5.10807e-06
5.01586e-06
4.92771e-06
4.84337e-06
4.7626e-06
4.68518e-06
4.61092e-06
4.53964e-06
4.47115e-06
4.40531e-06
4.34197e-06
4.281e-06
4.22227e-06
4.16566e-06
4.11107e-06
4.0584e-06
4.00756e-06
3.95844e-06
3.91098e-06
3.86509e-06
3.8207e-06
3.77774e-06
3.73614e-06
3.69585e-06
3.65681e-06
3.61896e-06
3.58225e-06
3.54663e-06
3.51205e-06
3.47848e-06
3.44586e-06
3.41415e-06
3.38333e-06
3.35335e-06
3.32418e-06
3.29579e-06
3.26815e-06
3.24122e-06
3.21498e-06
3.1894e-06
3.16447e-06
3.14014e-06
3.11641e-06
3.09325e-06
3.07064e-06
3.04856e-06
3.027e-06
3.00593e-06
2.98534e-06
2.96522e-06
2.94554e-06
2.9263e-06
2.90748e-06
2.88907e-06
2.87105e-06
2.85341e-06
2.83613e-06
2.81921e-06
)
;

boundaryField
{
    boundary
    {
        type            empty;
    }
    inlet
    {
        type            fixedValue;
        value           nonuniform 0();
    }
    outlet
    {
        type            zeroGradient;
    }
    procBoundary1to0
    {
        type            processor;
        value           uniform 2.80264e-06;
    }
    procBoundary1to3
    {
        type            processor;
        value           uniform 3.60964e-20;
    }
}


// ************************************************************************* //
