/*--------------------------------*- C++ -*----------------------------------*\
  =========                 |
  \\      /  F ield         | OpenFOAM: The Open Source CFD Toolbox
   \\    /   O peration     | Website:  https://openfoam.org
    \\  /    A nd           | Version:  7
     \\/     M anipulation  |
\*---------------------------------------------------------------------------*/
FoamFile
{
    version     2.0;
    format      ascii;
    class       volScalarField;
    location    "0.00093";
    object      O;
}
// * * * * * * * * * * * * * * * * * * * * * * * * * * * * * * * * * * * * * //

dimensions      [0 0 0 0 0 0 0];

internalField   nonuniform List<scalar> 
125
(
1.57788e-47
3.76513e-47
5.96503e-47
8.16615e-47
1.03659e-46
1.25635e-46
1.47584e-46
1.69503e-46
1.91386e-46
2.13225e-46
2.35011e-46
2.56737e-46
2.78394e-46
2.99974e-46
3.2147e-46
3.42879e-46
3.64199e-46
3.85432e-46
4.06585e-46
4.27669e-46
4.48696e-46
4.69685e-46
4.90656e-46
5.11631e-46
5.32636e-46
5.53696e-46
5.74836e-46
5.96082e-46
6.1746e-46
6.38993e-46
6.60707e-46
6.82625e-46
7.04774e-46
7.2718e-46
7.49872e-46
7.72882e-46
7.96247e-46
8.20009e-46
8.44214e-46
8.68917e-46
8.94177e-46
9.20059e-46
9.46635e-46
9.73981e-46
1.00218e-45
1.03131e-45
1.06145e-45
1.09269e-45
1.12509e-45
1.15874e-45
1.19368e-45
1.22996e-45
1.26761e-45
1.30664e-45
1.34703e-45
1.38876e-45
1.43177e-45
1.47596e-45
1.52122e-45
1.56743e-45
1.6144e-45
1.66197e-45
1.70991e-45
1.75801e-45
1.80603e-45
1.85373e-45
1.90085e-45
1.94715e-45
1.99238e-45
2.03632e-45
2.07875e-45
2.11948e-45
2.15835e-45
2.19521e-45
2.22994e-45
2.26247e-45
2.29275e-45
2.32075e-45
2.34648e-45
2.36998e-45
2.3913e-45
2.41052e-45
2.42774e-45
2.44307e-45
2.45662e-45
2.46854e-45
2.47894e-45
2.48798e-45
2.49577e-45
2.50244e-45
2.50813e-45
2.51295e-45
2.517e-45
2.52039e-45
2.52321e-45
2.52555e-45
2.52746e-45
2.52903e-45
2.5303e-45
2.53133e-45
2.53216e-45
2.53283e-45
2.53336e-45
2.53378e-45
2.53412e-45
2.53438e-45
2.53459e-45
2.53476e-45
2.5349e-45
2.53501e-45
2.53509e-45
2.53517e-45
2.53523e-45
2.53529e-45
2.53534e-45
2.53538e-45
2.53543e-45
2.53547e-45
2.53551e-45
2.53554e-45
2.53556e-45
2.53552e-45
2.53534e-45
2.53474e-45
2.53292e-45
)
;

boundaryField
{
    boundary
    {
        type            empty;
    }
    inlet
    {
        type            fixedValue;
        value           uniform 0;
    }
    outlet
    {
        type            zeroGradient;
    }
    procBoundary2to3
    {
        type            processor;
        value           uniform 2.53029e-45;
    }
}


// ************************************************************************* //
