/*--------------------------------*- C++ -*----------------------------------*\
  =========                 |
  \\      /  F ield         | OpenFOAM: The Open Source CFD Toolbox
   \\    /   O peration     | Website:  https://openfoam.org
    \\  /    A nd           | Version:  7
     \\/     M anipulation  |
\*---------------------------------------------------------------------------*/
FoamFile
{
    version     2.0;
    format      ascii;
    class       surfaceScalarField;
    location    "0.00093";
    object      phi;
}
// * * * * * * * * * * * * * * * * * * * * * * * * * * * * * * * * * * * * * //

dimensions      [1 0 -1 0 0 0 0];

internalField   nonuniform List<scalar> 
124
(
6.93098e-06
6.93097e-06
6.93096e-06
6.93095e-06
6.93094e-06
6.93094e-06
6.93094e-06
6.93094e-06
6.93094e-06
6.93095e-06
6.93096e-06
6.93097e-06
6.931e-06
6.93102e-06
6.93106e-06
6.93111e-06
6.93116e-06
6.93123e-06
6.9313e-06
6.93138e-06
6.93146e-06
6.93155e-06
6.93165e-06
6.93174e-06
6.93183e-06
6.93192e-06
6.932e-06
6.93207e-06
6.93213e-06
6.93217e-06
6.9322e-06
6.93222e-06
6.93222e-06
6.9322e-06
6.93217e-06
6.93211e-06
6.93203e-06
6.93193e-06
6.93181e-06
6.93167e-06
6.93149e-06
6.93129e-06
6.93106e-06
6.9308e-06
6.9305e-06
6.93017e-06
6.92979e-06
6.92937e-06
6.9289e-06
6.92839e-06
6.92782e-06
6.92721e-06
6.92654e-06
6.92581e-06
6.92504e-06
6.92421e-06
6.92333e-06
6.9224e-06
6.92143e-06
6.92042e-06
6.91938e-06
6.9183e-06
6.9172e-06
6.91609e-06
6.91497e-06
6.91385e-06
6.91273e-06
6.91163e-06
6.91054e-06
6.90948e-06
6.90846e-06
6.90747e-06
6.90652e-06
6.90562e-06
6.90477e-06
6.90397e-06
6.90323e-06
6.90254e-06
6.9019e-06
6.90132e-06
6.90079e-06
6.90031e-06
6.89988e-06
6.89949e-06
6.89915e-06
6.89885e-06
6.89858e-06
6.89835e-06
6.89815e-06
6.89798e-06
6.89783e-06
6.8977e-06
6.89759e-06
6.8975e-06
6.89743e-06
6.89736e-06
6.89731e-06
6.89726e-06
6.89722e-06
6.89719e-06
6.89716e-06
6.89714e-06
6.89712e-06
6.8971e-06
6.89709e-06
6.89707e-06
6.89706e-06
6.89705e-06
6.89703e-06
6.89702e-06
6.89701e-06
6.897e-06
6.89699e-06
6.89698e-06
6.89697e-06
6.89695e-06
6.89694e-06
6.89693e-06
6.89691e-06
6.8969e-06
6.89689e-06
6.89687e-06
6.89686e-06
6.89684e-06
)
;

boundaryField
{
    boundary
    {
        type            empty;
        value           nonuniform 0();
    }
    inlet
    {
        type            calculated;
        value           uniform -6.93097e-06;
    }
    outlet
    {
        type            calculated;
        value           nonuniform 0();
    }
    procBoundary2to3
    {
        type            processor;
        value           uniform 6.89683e-06;
    }
}


// ************************************************************************* //
