/*--------------------------------*- C++ -*----------------------------------*\
  =========                 |
  \\      /  F ield         | OpenFOAM: The Open Source CFD Toolbox
   \\    /   O peration     | Website:  https://openfoam.org
    \\  /    A nd           | Version:  7
     \\/     M anipulation  |
\*---------------------------------------------------------------------------*/
FoamFile
{
    version     2.0;
    format      ascii;
    class       volScalarField;
    location    "0.00088";
    object      H;
}
// * * * * * * * * * * * * * * * * * * * * * * * * * * * * * * * * * * * * * //

dimensions      [0 0 0 0 0 0 0];

internalField   nonuniform List<scalar> 
500
(
1.48613e-41
2.01352e-41
2.12769e-41
2.15273e-41
2.15851e-41
2.16007e-41
2.16063e-41
2.16086e-41
2.16085e-41
2.16061e-41
2.16009e-41
2.15928e-41
2.15816e-41
2.15672e-41
2.155e-41
2.15301e-41
2.15082e-41
2.14847e-41
2.14604e-41
2.1436e-41
2.14123e-41
2.13902e-41
2.13703e-41
2.13533e-41
2.13399e-41
2.13305e-41
2.13255e-41
2.13253e-41
2.13302e-41
2.13404e-41
2.1356e-41
2.13772e-41
2.14044e-41
2.14376e-41
2.14774e-41
2.15242e-41
2.15783e-41
2.16406e-41
2.17118e-41
2.17927e-41
2.18842e-41
2.19874e-41
2.21033e-41
2.22332e-41
2.23781e-41
2.25391e-41
2.27172e-41
2.29135e-41
2.31288e-41
2.33637e-41
2.36188e-41
2.38943e-41
2.41902e-41
2.45062e-41
2.48418e-41
2.5196e-41
2.55677e-41
2.59552e-41
2.63566e-41
2.67699e-41
2.71925e-41
2.76217e-41
2.80548e-41
2.84886e-41
2.89203e-41
2.93467e-41
2.97648e-41
3.0172e-41
3.05656e-41
3.09432e-41
3.13028e-41
3.16429e-41
3.1962e-41
3.22593e-41
3.25343e-41
3.27867e-41
3.30168e-41
3.32249e-41
3.34119e-41
3.35787e-41
3.37265e-41
3.38565e-41
3.39701e-41
3.40686e-41
3.41536e-41
3.42263e-41
3.42882e-41
3.43405e-41
3.43844e-41
3.44211e-41
3.44515e-41
3.44766e-41
3.44971e-41
3.45139e-41
3.45275e-41
3.45385e-41
3.45473e-41
3.45543e-41
3.45599e-41
3.45643e-41
3.45679e-41
3.45706e-41
3.45729e-41
3.45746e-41
3.45761e-41
3.45772e-41
3.45782e-41
3.4579e-41
3.45797e-41
3.45803e-41
3.45808e-41
3.45814e-41
3.45819e-41
3.45824e-41
3.45828e-41
3.45833e-41
3.45838e-41
3.45844e-41
3.45849e-41
3.45854e-41
3.4586e-41
3.45866e-41
3.45871e-41
3.45876e-41
3.45877e-41
3.45879e-41
3.45887e-41
3.45896e-41
3.45906e-41
3.45916e-41
3.45928e-41
3.4594e-41
3.45954e-41
3.45969e-41
3.45985e-41
3.46002e-41
3.4602e-41
3.46038e-41
3.46056e-41
3.46073e-41
3.4609e-41
3.46106e-41
3.46122e-41
3.46136e-41
3.46149e-41
3.46161e-41
3.46172e-41
3.46182e-41
3.46192e-41
3.46202e-41
3.46212e-41
3.46222e-41
3.46232e-41
3.46244e-41
3.46256e-41
3.46268e-41
3.46282e-41
3.46297e-41
3.46313e-41
3.46329e-41
3.46347e-41
3.46365e-41
3.46384e-41
3.46403e-41
3.46423e-41
3.46444e-41
3.46465e-41
3.46486e-41
3.46507e-41
3.46529e-41
3.4655e-41
3.46572e-41
3.46595e-41
3.46617e-41
3.4664e-41
3.46662e-41
3.46685e-41
3.46709e-41
3.46732e-41
3.46756e-41
3.4678e-41
3.46804e-41
3.46828e-41
3.46852e-41
3.46876e-41
3.46901e-41
3.46925e-41
3.4695e-41
3.46974e-41
3.46998e-41
3.47023e-41
3.47046e-41
3.4707e-41
3.47093e-41
3.47116e-41
3.47138e-41
3.4716e-41
3.47181e-41
3.47201e-41
3.4722e-41
3.47238e-41
3.47256e-41
3.47272e-41
3.47288e-41
3.47302e-41
3.47315e-41
3.47328e-41
3.47342e-41
3.47366e-41
3.47421e-41
3.47583e-41
3.48091e-41
3.49708e-41
3.54866e-41
3.71284e-41
4.23382e-41
5.88211e-41
1.10824e-40
2.74455e-40
7.88066e-40
2.39649e-39
7.42263e-39
2.30977e-38
7.18945e-38
2.23546e-37
6.94136e-37
2.1524e-36
6.66564e-36
2.06182e-35
6.37087e-35
1.96669e-34
6.06608e-34
1.86964e-33
5.7587e-33
1.77275e-32
5.45467e-32
1.67776e-31
5.15921e-31
1.58635e-30
4.87834e-30
1.50086e-29
4.62168e-29
1.42544e-28
4.40774e-28
1.36845e-27
4.27445e-27
1.34715e-26
4.30046e-26
1.39739e-25
4.64915e-25
1.5937e-24
5.69092e-24
2.10588e-23
8.09983e-23
3.23523e-22
1.33614e-21
5.67328e-21
2.46225e-20
1.0869e-19
4.86165e-19
2.19846e-18
1.0042e-17
4.63644e-17
2.16875e-16
1.03203e-15
5.02628e-15
2.52453e-14
1.31846e-13
7.34459e-13
4.7769e-12
4.12732e-11
3.93853e-10
3.66881e-09
3.4406e-08
3.13249e-07
2.60365e-06
1.76235e-05
8.27037e-05
0.000241685
0.000494252
0.000820984
0.00118384
0.00151544
0.00175474
0.00188521
0.00192705
0.0019075
0.00185438
0.0017849
0.00170952
0.00163411
0.0015617
0.00149367
0.00143048
0.00137211
0.00131828
0.00126865
0.00122281
0.0011804
0.00114106
0.00110448
0.00107038
0.00103852
0.00100866
0.000980633
0.000954261
0.000929397
0.000905912
0.00088369
0.000862631
0.000842642
0.000823642
0.000806088
0.000789717
0.000773989
0.000758868
0.000744316
0.000730303
0.000716797
0.000703771
0.000691198
0.000679054
0.000667316
0.000655965
0.00064498
0.000634344
0.000624038
0.000614049
0.00060436
0.000594958
0.00058583
0.000576964
0.000568348
0.000559971
0.000551823
0.000543896
0.000536179
0.000528664
0.000521343
0.000514209
0.000507254
0.000500471
0.000493854
0.000487397
0.000481094
0.000474939
0.000468927
0.000463053
0.000457312
0.0004517
0.000446212
0.000440844
0.000435593
0.000430454
0.000425424
0.000420499
0.000415676
0.000410952
0.000406323
0.000401788
0.000397343
0.000392986
0.000388714
0.000384524
0.000380414
0.000376383
0.000372427
0.000368546
0.000364736
0.000360997
0.000357327
0.000353723
0.000350185
0.000346712
0.000343302
0.000339955
0.000336659
0.000333409
0.000330214
0.000327072
0.000323983
0.000320945
0.000317957
0.000315017
0.000312125
0.000309278
0.000306478
0.000303721
0.000301007
0.000298336
0.000295706
0.000293116
0.000290565
0.000288053
0.000285579
0.000283141
0.00028074
0.000278374
0.000276042
0.000273744
0.00027148
0.000269248
0.000267048
0.000264879
0.000262741
0.000260632
0.000258553
0.000256503
0.000254481
0.000252487
0.00025052
0.000248579
0.000246665
0.000244776
0.000242912
0.000241073
0.000239259
0.000237468
0.0002357
0.000233956
0.000232234
0.000230534
0.000228855
0.000227198
0.000225562
0.000223947
0.000222352
0.000220776
0.00021922
0.000217684
0.000216166
0.000214667
0.000213186
0.000211723
0.000210278
0.00020885
0.000207439
0.000206044
0.000204667
0.000203306
0.000201961
0.000200631
0.000199317
0.000198019
0.000196736
0.000195467
0.000194213
0.000192974
0.000191749
0.000190538
0.000189341
0.000188158
0.000186988
0.000185832
0.000184689
0.000183559
0.000182441
0.000181337
0.000180245
0.000179165
0.000178098
0.000177043
0.000176
0.000174969
0.000173949
0.000172941
0.000171945
0.00017096
0.000169987
0.000169025
0.000168073
0.000167133
0.000166204
0.000165286
0.000164379
0.000163482
0.000162596
0.000161721
0.000160856
0.000160002
0.000159158
0.000158326
0.000157504
0.000156692
0.000155892
0.000155103
0.000154326
0.00015356
0.000152808
0.000152069
0.000151346
0.00015064
0.000149955
0.000149295
0.000148665
0.000148076
0.000147541
0.000147081
0.000146725
0.000146519
)
;

boundaryField
{
    boundary
    {
        type            empty;
    }
    inlet
    {
        type            fixedValue;
        value           uniform 0;
    }
    outlet
    {
        type            zeroGradient;
    }
}


// ************************************************************************* //
