/*--------------------------------*- C++ -*----------------------------------*\
  =========                 |
  \\      /  F ield         | OpenFOAM: The Open Source CFD Toolbox
   \\    /   O peration     | Website:  https://openfoam.org
    \\  /    A nd           | Version:  7
     \\/     M anipulation  |
\*---------------------------------------------------------------------------*/
FoamFile
{
    version     2.0;
    format      ascii;
    class       volScalarField;
    location    "0.00088";
    object      H2O2;
}
// * * * * * * * * * * * * * * * * * * * * * * * * * * * * * * * * * * * * * //

dimensions      [0 0 0 0 0 0 0];

internalField   nonuniform List<scalar> 
500
(
1.99278e-52
6.40254e-52
1.27282e-51
2.09697e-51
3.11254e-51
4.31922e-51
5.71648e-51
7.30363e-51
9.07977e-51
1.10439e-50
1.31948e-50
1.55314e-50
1.80529e-50
2.07584e-50
2.36476e-50
2.67208e-50
2.99785e-50
3.34222e-50
3.70538e-50
4.08759e-50
4.48913e-50
4.91037e-50
5.35168e-50
5.81347e-50
6.29615e-50
6.80017e-50
7.32598e-50
7.87404e-50
8.44488e-50
9.03905e-50
9.6572e-50
1.03001e-49
1.09685e-49
1.16635e-49
1.23864e-49
1.31385e-49
1.39215e-49
1.47372e-49
1.55878e-49
1.64756e-49
1.74032e-49
1.83731e-49
1.93884e-49
2.04517e-49
2.15658e-49
2.27334e-49
2.39568e-49
2.52379e-49
2.65781e-49
2.7978e-49
2.94375e-49
3.09555e-49
3.25298e-49
3.4157e-49
3.58329e-49
3.75515e-49
3.93061e-49
4.10887e-49
4.28902e-49
4.4701e-49
4.65105e-49
4.83078e-49
5.00819e-49
5.18218e-49
5.35168e-49
5.5157e-49
5.67332e-49
5.82373e-49
5.96624e-49
6.10029e-49
6.22546e-49
6.34151e-49
6.44829e-49
6.54584e-49
6.63428e-49
6.71388e-49
6.785e-49
6.84807e-49
6.9036e-49
6.95212e-49
6.99422e-49
7.03049e-49
7.0615e-49
7.08783e-49
7.11003e-49
7.12862e-49
7.14407e-49
7.15684e-49
7.16731e-49
7.17584e-49
7.18274e-49
7.1883e-49
7.19274e-49
7.19626e-49
7.19905e-49
7.20124e-49
7.20296e-49
7.20429e-49
7.20533e-49
7.20614e-49
7.20676e-49
7.20725e-49
7.20763e-49
7.20793e-49
7.20817e-49
7.20837e-49
7.20853e-49
7.20867e-49
7.2088e-49
7.20892e-49
7.20904e-49
7.20915e-49
7.20926e-49
7.20937e-49
7.20948e-49
7.2096e-49
7.20972e-49
7.20985e-49
7.20998e-49
7.21011e-49
7.21022e-49
7.21023e-49
7.20984e-49
7.20784e-49
7.19953e-49
7.18306e-49
7.18325e-49
7.18345e-49
7.18366e-49
7.18389e-49
7.18412e-49
7.18438e-49
7.18464e-49
7.18492e-49
7.18522e-49
7.18553e-49
7.18585e-49
7.18618e-49
7.18652e-49
7.18687e-49
7.18723e-49
7.18759e-49
7.18797e-49
7.18835e-49
7.18876e-49
7.18919e-49
7.18965e-49
7.19016e-49
7.19071e-49
7.19133e-49
7.19202e-49
7.1928e-49
7.19367e-49
7.19463e-49
7.1957e-49
7.19686e-49
7.19812e-49
7.19947e-49
7.20089e-49
7.20237e-49
7.20388e-49
7.20541e-49
7.20694e-49
7.20843e-49
7.20987e-49
7.21124e-49
7.21252e-49
7.2137e-49
7.21478e-49
7.21574e-49
7.21661e-49
7.21738e-49
7.21806e-49
7.21869e-49
7.21927e-49
7.21983e-49
7.22039e-49
7.22097e-49
7.22159e-49
7.22227e-49
7.223e-49
7.22382e-49
7.22472e-49
7.22569e-49
7.22675e-49
7.22788e-49
7.22908e-49
7.23033e-49
7.23162e-49
7.23294e-49
7.23428e-49
7.23562e-49
7.23695e-49
7.23825e-49
7.23952e-49
7.24075e-49
7.24193e-49
7.24306e-49
7.2442e-49
7.2456e-49
7.24852e-49
7.25893e-49
7.30528e-49
7.52185e-49
8.53895e-49
1.3299e-48
3.54623e-48
1.38104e-47
6.10937e-47
2.77784e-46
1.26582e-45
5.74892e-45
2.59939e-44
1.16998e-43
5.24278e-43
2.33932e-42
1.03954e-41
4.60156e-41
2.0294e-40
8.91906e-40
3.90708e-39
1.70632e-38
7.43084e-38
3.22759e-37
1.39855e-36
6.04676e-36
2.60919e-35
1.12386e-34
4.83304e-34
2.07544e-33
8.90122e-33
3.81332e-32
1.63203e-31
6.97865e-31
2.98178e-30
1.27313e-29
5.43231e-29
2.31647e-28
9.87206e-28
4.20461e-27
1.78968e-26
7.61274e-26
3.23602e-25
1.37457e-24
5.8343e-24
2.47437e-23
1.04854e-22
4.43962e-22
1.87825e-21
7.94007e-21
3.35419e-20
1.42408e-19
6.02397e-19
2.54232e-18
1.07227e-17
4.52186e-17
1.90708e-16
8.045e-16
3.39504e-15
1.43341e-14
6.05524e-14
2.55947e-13
1.08251e-12
4.5812e-12
1.93989e-11
8.21878e-11
3.48374e-10
1.47727e-09
6.26611e-09
2.65808e-08
1.12693e-07
4.76513e-07
1.99475e-06
8.05698e-06
2.89473e-05
7.54821e-05
0.000115285
0.000120497
7.9197e-05
3.66089e-05
1.46497e-05
6.68839e-06
4.58564e-06
4.53321e-06
5.07831e-06
5.78638e-06
6.26697e-06
6.57843e-06
6.73673e-06
6.77547e-06
6.72801e-06
6.62168e-06
6.47702e-06
6.30865e-06
6.12697e-06
5.93908e-06
5.74983e-06
5.56245e-06
5.3791e-06
5.20114e-06
5.02941e-06
4.86437e-06
4.70623e-06
4.55502e-06
4.41066e-06
4.27296e-06
4.14171e-06
4.01666e-06
3.89754e-06
3.7841e-06
3.6761e-06
3.57334e-06
3.47859e-06
3.38945e-06
3.30386e-06
3.22165e-06
3.14265e-06
3.0667e-06
2.99367e-06
2.92339e-06
2.85575e-06
2.79062e-06
2.72787e-06
2.6674e-06
2.6091e-06
2.55286e-06
2.49858e-06
2.44619e-06
2.39559e-06
2.3467e-06
2.29944e-06
2.25374e-06
2.20953e-06
2.16675e-06
2.12533e-06
2.08521e-06
2.04635e-06
2.00868e-06
1.97215e-06
1.93672e-06
1.90235e-06
1.86899e-06
1.83659e-06
1.80513e-06
1.77456e-06
1.74485e-06
1.71597e-06
1.68788e-06
1.66056e-06
1.63397e-06
1.60809e-06
1.58289e-06
1.55836e-06
1.53445e-06
1.51116e-06
1.48846e-06
1.46633e-06
1.44475e-06
1.4237e-06
1.40317e-06
1.38313e-06
1.36357e-06
1.34447e-06
1.32582e-06
1.30761e-06
1.28982e-06
1.27243e-06
1.25544e-06
1.23883e-06
1.22259e-06
1.20672e-06
1.19119e-06
1.17602e-06
1.16118e-06
1.14668e-06
1.13251e-06
1.11863e-06
1.10496e-06
1.09156e-06
1.07844e-06
1.06558e-06
1.05298e-06
1.04062e-06
1.02851e-06
1.01663e-06
1.00498e-06
9.93555e-07
9.82345e-07
9.71346e-07
9.60551e-07
9.49956e-07
9.39555e-07
9.29343e-07
9.19315e-07
9.09467e-07
8.99794e-07
8.90291e-07
8.80955e-07
8.71781e-07
8.62766e-07
8.53905e-07
8.45195e-07
8.36633e-07
8.28215e-07
8.19938e-07
8.11798e-07
8.03793e-07
7.95919e-07
7.88174e-07
7.80554e-07
7.73058e-07
7.65682e-07
7.58424e-07
7.51281e-07
7.4425e-07
7.37331e-07
7.30519e-07
7.23813e-07
7.17211e-07
7.1071e-07
7.04308e-07
6.98004e-07
6.91795e-07
6.8568e-07
6.79656e-07
6.73722e-07
6.67875e-07
6.62115e-07
6.56439e-07
6.50846e-07
6.45333e-07
6.39901e-07
6.34546e-07
6.29268e-07
6.24064e-07
6.18935e-07
6.13877e-07
6.0889e-07
6.03973e-07
5.99124e-07
5.94343e-07
5.89627e-07
5.84975e-07
5.80387e-07
5.75862e-07
5.71397e-07
5.66993e-07
5.62648e-07
5.58361e-07
5.54131e-07
5.49957e-07
5.45839e-07
5.41775e-07
5.37764e-07
5.33805e-07
5.29899e-07
5.26042e-07
5.22236e-07
5.18479e-07
5.1477e-07
5.11108e-07
5.07493e-07
5.03924e-07
5.00399e-07
4.96919e-07
4.93482e-07
4.90088e-07
4.86735e-07
4.83424e-07
4.80153e-07
4.76923e-07
4.73731e-07
4.70577e-07
4.67461e-07
4.64382e-07
4.61339e-07
4.58332e-07
4.5536e-07
4.52422e-07
4.49517e-07
4.46646e-07
4.43807e-07
4.41e-07
4.38225e-07
4.35481e-07
4.32767e-07
4.30084e-07
4.27432e-07
4.2481e-07
4.2222e-07
4.19664e-07
4.17145e-07
4.14666e-07
4.12235e-07
4.09866e-07
4.0758e-07
4.05414e-07
4.03438e-07
4.01777e-07
4.00685e-07
)
;

boundaryField
{
    boundary
    {
        type            empty;
    }
    inlet
    {
        type            fixedValue;
        value           uniform 0;
    }
    outlet
    {
        type            zeroGradient;
    }
}


// ************************************************************************* //
