/*--------------------------------*- C++ -*----------------------------------*\
  =========                 |
  \\      /  F ield         | OpenFOAM: The Open Source CFD Toolbox
   \\    /   O peration     | Website:  https://openfoam.org
    \\  /    A nd           | Version:  7
     \\/     M anipulation  |
\*---------------------------------------------------------------------------*/
FoamFile
{
    version     2.0;
    format      ascii;
    class       volScalarField;
    location    "0.00088";
    object      HO2;
}
// * * * * * * * * * * * * * * * * * * * * * * * * * * * * * * * * * * * * * //

dimensions      [0 0 0 0 0 0 0];

internalField   nonuniform List<scalar> 
500
(
5.59305e-38
1.27296e-37
1.98934e-37
2.70634e-37
3.42345e-37
4.14043e-37
4.85709e-37
5.57317e-37
6.28842e-37
7.00256e-37
7.71531e-37
8.42645e-37
9.13581e-37
9.84332e-37
1.0549e-36
1.1253e-36
1.19557e-36
1.26574e-36
1.33585e-36
1.40598e-36
1.47618e-36
1.54652e-36
1.61706e-36
1.68787e-36
1.75901e-36
1.83053e-36
1.90249e-36
1.97492e-36
2.04787e-36
2.12138e-36
2.19551e-36
2.2703e-36
2.34581e-36
2.42213e-36
2.49934e-36
2.57756e-36
2.65691e-36
2.73755e-36
2.81965e-36
2.90339e-36
2.98898e-36
3.07664e-36
3.1666e-36
3.25908e-36
3.35429e-36
3.45245e-36
3.55372e-36
3.65826e-36
3.76615e-36
3.87745e-36
3.99213e-36
4.11011e-36
4.23122e-36
4.35522e-36
4.48176e-36
4.61045e-36
4.74079e-36
4.87221e-36
5.00411e-36
5.1358e-36
5.26657e-36
5.39571e-36
5.52249e-36
5.64618e-36
5.76612e-36
5.88167e-36
5.99227e-36
6.09741e-36
6.1967e-36
6.28982e-36
6.37655e-36
6.45676e-36
6.53043e-36
6.59762e-36
6.65846e-36
6.71316e-36
6.762e-36
6.80529e-36
6.84341e-36
6.87672e-36
6.90564e-36
6.93057e-36
6.9519e-36
6.97004e-36
6.98536e-36
6.99821e-36
7.00891e-36
7.01776e-36
7.02504e-36
7.03099e-36
7.03582e-36
7.03971e-36
7.04283e-36
7.04532e-36
7.0473e-36
7.04885e-36
7.05007e-36
7.05103e-36
7.05177e-36
7.05235e-36
7.0528e-36
7.05316e-36
7.05343e-36
7.05365e-36
7.05383e-36
7.05397e-36
7.05409e-36
7.0542e-36
7.05429e-36
7.05438e-36
7.05446e-36
7.05454e-36
7.05462e-36
7.05469e-36
7.05478e-36
7.05486e-36
7.05494e-36
7.05503e-36
7.05513e-36
7.05522e-36
7.0553e-36
7.05534e-36
7.05518e-36
7.05422e-36
7.05016e-36
7.04212e-36
7.04225e-36
7.0424e-36
7.04255e-36
7.0427e-36
7.04287e-36
7.04305e-36
7.04324e-36
7.04345e-36
7.04366e-36
7.04388e-36
7.04411e-36
7.04435e-36
7.04459e-36
7.04484e-36
7.04509e-36
7.04534e-36
7.0456e-36
7.04586e-36
7.04613e-36
7.0464e-36
7.0467e-36
7.04701e-36
7.04735e-36
7.04772e-36
7.04813e-36
7.04858e-36
7.04908e-36
7.04963e-36
7.05024e-36
7.0509e-36
7.05161e-36
7.05236e-36
7.05315e-36
7.05397e-36
7.05481e-36
7.05565e-36
7.05649e-36
7.05731e-36
7.0581e-36
7.05885e-36
7.05955e-36
7.06021e-36
7.06081e-36
7.06136e-36
7.06186e-36
7.06231e-36
7.06273e-36
7.06313e-36
7.0635e-36
7.06388e-36
7.06426e-36
7.06466e-36
7.06509e-36
7.06555e-36
7.06605e-36
7.0666e-36
7.06719e-36
7.06782e-36
7.0685e-36
7.06922e-36
7.06998e-36
7.07076e-36
7.07156e-36
7.07237e-36
7.07319e-36
7.07401e-36
7.07482e-36
7.07561e-36
7.07638e-36
7.07712e-36
7.07784e-36
7.07852e-36
7.07916e-36
7.07976e-36
7.08032e-36
7.08084e-36
7.08132e-36
7.08175e-36
7.08214e-36
7.08249e-36
7.0828e-36
7.08307e-36
7.0833e-36
7.0835e-36
7.08371e-36
7.08404e-36
7.08484e-36
7.08726e-36
7.09496e-36
7.11963e-36
7.19841e-36
7.44906e-36
8.24389e-36
1.0757e-35
1.86828e-35
4.36247e-35
1.21968e-34
3.67673e-34
1.13745e-33
3.5477e-33
1.10951e-32
3.47492e-32
1.09022e-31
3.42974e-31
1.0834e-30
3.44262e-30
1.10287e-29
3.57149e-29
1.17263e-28
3.91595e-28
1.33416e-27
4.64932e-27
1.66001e-26
6.07555e-26
2.27756e-25
8.72835e-25
3.41031e-24
1.35429e-23
5.44931e-23
2.21535e-22
9.07714e-22
3.74102e-21
1.54839e-20
6.42833e-20
2.67464e-19
1.12082e-18
4.68772e-18
1.95851e-17
8.18481e-17
3.42227e-16
1.43169e-15
5.99247e-15
2.50941e-14
1.05132e-13
4.40624e-13
1.84735e-12
7.74716e-12
3.24944e-11
1.36301e-10
5.71688e-10
2.3973e-09
1.00485e-08
4.20808e-08
1.7585e-07
7.30805e-07
3.00013e-06
1.20075e-05
4.53514e-05
0.000150149
0.000368094
0.000517469
0.000483463
0.0003773
0.000270975
0.00019033
0.000133208
9.30029e-05
6.54401e-05
4.7488e-05
3.36844e-05
2.61616e-05
2.12831e-05
1.80214e-05
1.57556e-05
1.41129e-05
1.28705e-05
1.18938e-05
1.11e-05
1.04372e-05
9.87142e-06
9.38012e-06
8.94761e-06
8.56266e-06
8.21701e-06
7.90438e-06
7.61987e-06
7.35961e-06
7.12047e-06
6.89985e-06
6.69562e-06
6.50597e-06
6.32936e-06
6.16449e-06
6.01027e-06
5.86575e-06
5.73021e-06
5.60681e-06
5.49186e-06
5.38254e-06
5.27844e-06
5.17919e-06
5.08446e-06
4.99394e-06
4.90736e-06
4.82447e-06
4.74505e-06
4.66887e-06
4.59576e-06
4.52552e-06
4.45801e-06
4.39306e-06
4.33053e-06
4.2703e-06
4.21224e-06
4.15624e-06
4.1022e-06
4.05002e-06
3.9996e-06
3.95087e-06
3.90374e-06
3.85813e-06
3.81399e-06
3.77123e-06
3.72981e-06
3.68965e-06
3.65071e-06
3.61294e-06
3.57628e-06
3.5407e-06
3.50614e-06
3.47257e-06
3.43994e-06
3.40823e-06
3.37739e-06
3.34739e-06
3.31821e-06
3.28981e-06
3.26216e-06
3.23524e-06
3.20902e-06
3.18348e-06
3.15859e-06
3.13434e-06
3.11069e-06
3.08763e-06
3.06515e-06
3.04322e-06
3.02182e-06
3.00093e-06
2.98055e-06
2.96065e-06
2.94123e-06
2.92225e-06
2.90372e-06
2.88562e-06
2.86794e-06
2.85066e-06
2.83379e-06
2.81733e-06
2.80129e-06
2.78558e-06
2.77009e-06
2.75492e-06
2.74007e-06
2.72552e-06
2.71127e-06
2.6973e-06
2.68361e-06
2.6702e-06
2.65704e-06
2.64414e-06
2.63149e-06
2.61908e-06
2.60689e-06
2.59494e-06
2.5832e-06
2.57167e-06
2.56036e-06
2.54924e-06
2.53832e-06
2.52759e-06
2.51705e-06
2.50669e-06
2.49651e-06
2.4865e-06
2.47666e-06
2.46699e-06
2.45748e-06
2.44813e-06
2.43893e-06
2.42988e-06
2.42099e-06
2.41224e-06
2.40363e-06
2.39516e-06
2.38683e-06
2.37864e-06
2.37057e-06
2.36264e-06
2.35483e-06
2.34715e-06
2.33958e-06
2.33214e-06
2.32481e-06
2.3176e-06
2.3105e-06
2.30351e-06
2.29663e-06
2.28986e-06
2.28318e-06
2.27661e-06
2.27014e-06
2.26376e-06
2.25748e-06
2.2513e-06
2.2452e-06
2.2392e-06
2.23328e-06
2.22745e-06
2.2217e-06
2.21603e-06
2.21045e-06
2.20495e-06
2.19952e-06
2.19418e-06
2.18891e-06
2.18371e-06
2.17858e-06
2.17353e-06
2.16855e-06
2.16364e-06
2.1588e-06
2.15402e-06
2.14931e-06
2.14467e-06
2.14009e-06
2.13557e-06
2.13111e-06
2.12672e-06
2.12238e-06
2.1181e-06
2.11388e-06
2.10972e-06
2.10561e-06
2.10155e-06
2.09754e-06
2.09359e-06
2.08968e-06
2.08582e-06
2.08201e-06
2.07825e-06
2.07452e-06
2.07084e-06
2.0672e-06
2.06359e-06
2.06003e-06
2.05649e-06
2.05299e-06
2.04952e-06
2.04608e-06
2.04266e-06
2.03927e-06
2.0359e-06
2.03254e-06
2.02921e-06
2.02589e-06
2.02258e-06
2.01927e-06
2.01598e-06
2.01269e-06
2.00939e-06
2.0061e-06
2.0028e-06
1.99948e-06
1.99616e-06
1.99282e-06
1.98947e-06
1.98611e-06
1.98275e-06
1.97941e-06
1.97613e-06
1.97301e-06
1.97024e-06
1.96828e-06
)
;

boundaryField
{
    boundary
    {
        type            empty;
    }
    inlet
    {
        type            fixedValue;
        value           uniform 0;
    }
    outlet
    {
        type            zeroGradient;
    }
}


// ************************************************************************* //
