/*--------------------------------*- C++ -*----------------------------------*\
  =========                 |
  \\      /  F ield         | OpenFOAM: The Open Source CFD Toolbox
   \\    /   O peration     | Website:  https://openfoam.org
    \\  /    A nd           | Version:  7
     \\/     M anipulation  |
\*---------------------------------------------------------------------------*/
FoamFile
{
    version     2.0;
    format      ascii;
    class       volScalarField;
    location    "0.00088";
    object      O;
}
// * * * * * * * * * * * * * * * * * * * * * * * * * * * * * * * * * * * * * //

dimensions      [0 0 0 0 0 0 0];

internalField   nonuniform List<scalar> 
500
(
1.57761e-47
3.76421e-47
5.9632e-47
8.16308e-47
1.0361e-46
1.2556e-46
1.4747e-46
1.69334e-46
1.91139e-46
2.12878e-46
2.34541e-46
2.5612e-46
2.77611e-46
2.99012e-46
3.20327e-46
3.41562e-46
3.62729e-46
3.83843e-46
4.04923e-46
4.25989e-46
4.47067e-46
4.68181e-46
4.89355e-46
5.10615e-46
5.31983e-46
5.53484e-46
5.75138e-46
5.96966e-46
6.18988e-46
6.41228e-46
6.63707e-46
6.86451e-46
7.09492e-46
7.32863e-46
7.56607e-46
7.80769e-46
8.05405e-46
8.30575e-46
8.56348e-46
8.82799e-46
9.10006e-46
9.38054e-46
9.67028e-46
9.97012e-46
1.02809e-45
1.06034e-45
1.09383e-45
1.12862e-45
1.16475e-45
1.20225e-45
1.24111e-45
1.28133e-45
1.32285e-45
1.36561e-45
1.4095e-45
1.4544e-45
1.50015e-45
1.54658e-45
1.59348e-45
1.64063e-45
1.68778e-45
1.73469e-45
1.7811e-45
1.82676e-45
1.87141e-45
1.91481e-45
1.95674e-45
1.997e-45
2.03541e-45
2.07181e-45
2.10608e-45
2.13815e-45
2.16795e-45
2.19546e-45
2.22068e-45
2.24365e-45
2.26443e-45
2.28311e-45
2.29978e-45
2.31456e-45
2.32758e-45
2.33897e-45
2.34886e-45
2.35741e-45
2.36474e-45
2.37098e-45
2.37627e-45
2.38072e-45
2.38443e-45
2.38752e-45
2.39007e-45
2.39216e-45
2.39386e-45
2.39524e-45
2.39636e-45
2.39725e-45
2.39796e-45
2.39853e-45
2.39898e-45
2.39933e-45
2.39961e-45
2.39983e-45
2.4e-45
2.40013e-45
2.40024e-45
2.40033e-45
2.4004e-45
2.40046e-45
2.40051e-45
2.40056e-45
2.4006e-45
2.40064e-45
2.40068e-45
2.40072e-45
2.40075e-45
2.40079e-45
2.40083e-45
2.40087e-45
2.40091e-45
2.40094e-45
2.40096e-45
2.40093e-45
2.40075e-45
2.40015e-45
2.39834e-45
2.3957e-45
2.39576e-45
2.39582e-45
2.39589e-45
2.39596e-45
2.39604e-45
2.39612e-45
2.3962e-45
2.39629e-45
2.39639e-45
2.39649e-45
2.3966e-45
2.39671e-45
2.39683e-45
2.39696e-45
2.39709e-45
2.39723e-45
2.39737e-45
2.39753e-45
2.3977e-45
2.39788e-45
2.39807e-45
2.39829e-45
2.39852e-45
2.39878e-45
2.39906e-45
2.39936e-45
2.39968e-45
2.40002e-45
2.40038e-45
2.40075e-45
2.40114e-45
2.40153e-45
2.40193e-45
2.40233e-45
2.40273e-45
2.40312e-45
2.4035e-45
2.40386e-45
2.40421e-45
2.40454e-45
2.40485e-45
2.40514e-45
2.40542e-45
2.40568e-45
2.40592e-45
2.40615e-45
2.40637e-45
2.40657e-45
2.40677e-45
2.40697e-45
2.40716e-45
2.40735e-45
2.40754e-45
2.40773e-45
2.40792e-45
2.40812e-45
2.40832e-45
2.40852e-45
2.40873e-45
2.40894e-45
2.40916e-45
2.40939e-45
2.40962e-45
2.40988e-45
2.41023e-45
2.41087e-45
2.41256e-45
2.41789e-45
2.4359e-45
2.49777e-45
2.71069e-45
3.44093e-45
5.93415e-45
1.44055e-44
4.30495e-44
1.39435e-43
4.62219e-43
1.53813e-42
5.10789e-42
1.68986e-41
5.56709e-41
1.82621e-40
5.96548e-40
1.94069e-39
6.28835e-39
2.02975e-38
6.52728e-38
2.09155e-37
6.67908e-37
2.1259e-36
6.74548e-36
2.13402e-35
6.73241e-35
2.11836e-34
6.64901e-34
2.08216e-33
6.50642e-33
2.02913e-32
6.31665e-32
1.96308e-31
6.09155e-31
1.88763e-30
5.842e-30
1.806e-29
5.5774e-29
1.72088e-28
5.30536e-28
1.63439e-27
5.0316e-27
1.54806e-26
4.7601e-26
1.46288e-25
4.49337e-25
1.37946e-24
4.23276e-24
1.29811e-23
3.97898e-23
1.21899e-22
3.73248e-22
1.14226e-21
3.49386e-21
1.06815e-20
3.26408e-20
9.97043e-20
3.04453e-19
9.33552e-19
2.8572e-18
8.72744e-18
2.66433e-17
8.13311e-17
2.48303e-16
7.58245e-16
2.31617e-15
7.07752e-15
2.16349e-14
6.61596e-14
2.02393e-13
6.19375e-13
1.89607e-12
5.80604e-12
1.77833e-11
5.44792e-11
1.66926e-10
5.11596e-10
1.56912e-09
4.82798e-09
1.5058e-08
4.95254e-08
1.92528e-07
1.03789e-06
7.19008e-06
4.24372e-05
0.000187485
0.000653964
0.00162534
0.00295421
0.00427055
0.00529487
0.00596127
0.00631947
0.00644158
0.00643282
0.00634617
0.00621582
0.0060632
0.00590133
0.00573786
0.00557715
0.00542156
0.00527227
0.00512975
0.00499407
0.00486507
0.00474249
0.00462599
0.0045152
0.00440978
0.00430938
0.00421368
0.00412236
0.00403515
0.00395178
0.00387202
0.00379564
0.00372246
0.00365233
0.00358714
0.00352552
0.00346594
0.00340827
0.00335243
0.00329832
0.00324585
0.00319495
0.00314555
0.00309758
0.00305098
0.00300569
0.00296165
0.00291881
0.00287712
0.00283653
0.002797
0.00275849
0.00272095
0.00268435
0.00264866
0.00261383
0.00257985
0.00254667
0.00251427
0.00248262
0.00245169
0.00242146
0.00239191
0.00236302
0.00233475
0.0023071
0.00228004
0.00225355
0.00222762
0.00220222
0.00217735
0.00215298
0.00212911
0.00210571
0.00208278
0.0020603
0.00203825
0.00201663
0.00199543
0.00197463
0.00195421
0.00193418
0.00191453
0.00189523
0.00187628
0.00185768
0.00183941
0.00182147
0.00180384
0.00178652
0.00176951
0.00175279
0.00173636
0.00172021
0.00170434
0.00168875
0.00167344
0.00165841
0.0016436
0.00162894
0.00161451
0.0016003
0.00158631
0.00157253
0.00155896
0.0015456
0.00153243
0.00151945
0.00150666
0.00149406
0.00148164
0.00146939
0.00145731
0.0014454
0.00143366
0.00142207
0.00141065
0.00139938
0.00138826
0.00137729
0.00136646
0.00135578
0.00134524
0.00133483
0.00132456
0.00131443
0.00130442
0.00129455
0.0012848
0.00127518
0.00126568
0.0012563
0.00124704
0.00123789
0.00122886
0.00121995
0.00121114
0.00120245
0.00119386
0.00118538
0.001177
0.00116872
0.00116055
0.00115248
0.0011445
0.00113662
0.00112883
0.00112114
0.00111354
0.00110603
0.0010986
0.00109127
0.00108402
0.00107685
0.00106977
0.00106277
0.00105585
0.00104901
0.00104225
0.00103557
0.00102896
0.00102242
0.00101596
0.00100958
0.00100326
0.000997016
0.000990841
0.000984736
0.000978698
0.000972728
0.000966824
0.000960985
0.000955211
0.0009495
0.000943852
0.000938267
0.000932743
0.000927279
0.000921874
0.000916529
0.000911242
0.000906011
0.000900838
0.000895719
0.000890656
0.000885646
0.00088069
0.000875786
0.000870933
0.000866131
0.000861379
0.000856676
0.000852021
0.000847414
0.000842852
0.000838337
0.000833866
0.000829439
0.000825055
0.000820714
0.000816414
0.000812154
0.000807934
0.000803754
0.000799612
0.000795507
0.000791441
0.000787411
0.000783419
0.000779465
0.000775549
0.000771674
0.000767844
0.000764065
0.000760345
0.000756699
0.000753153
0.000749744
0.000746537
0.000743644
0.000741255
0.000739722
)
;

boundaryField
{
    boundary
    {
        type            empty;
    }
    inlet
    {
        type            fixedValue;
        value           uniform 0;
    }
    outlet
    {
        type            zeroGradient;
    }
}


// ************************************************************************* //
