/*--------------------------------*- C++ -*----------------------------------*\
  =========                 |
  \\      /  F ield         | OpenFOAM: The Open Source CFD Toolbox
   \\    /   O peration     | Website:  https://openfoam.org
    \\  /    A nd           | Version:  7
     \\/     M anipulation  |
\*---------------------------------------------------------------------------*/
FoamFile
{
    version     2.0;
    format      ascii;
    class       volScalarField;
    location    "0.00088";
    object      OH;
}
// * * * * * * * * * * * * * * * * * * * * * * * * * * * * * * * * * * * * * //

dimensions      [0 0 0 0 0 0 0];

internalField   nonuniform List<scalar> 
500
(
9.38497e-48
1.82914e-47
2.43825e-47
2.85086e-47
3.12987e-47
3.31876e-47
3.44693e-47
3.53417e-47
3.59373e-47
3.63449e-47
3.66238e-47
3.68138e-47
3.69419e-47
3.70262e-47
3.70793e-47
3.71102e-47
3.71253e-47
3.71296e-47
3.7127e-47
3.71209e-47
3.7114e-47
3.71087e-47
3.7107e-47
3.71108e-47
3.71215e-47
3.71404e-47
3.71684e-47
3.72063e-47
3.72548e-47
3.73144e-47
3.73854e-47
3.74683e-47
3.75637e-47
3.76722e-47
3.77946e-47
3.79318e-47
3.80851e-47
3.82559e-47
3.84459e-47
3.86571e-47
3.88915e-47
3.91515e-47
3.94396e-47
3.97583e-47
4.01102e-47
4.04979e-47
4.09238e-47
4.13903e-47
4.18993e-47
4.24525e-47
4.30513e-47
4.36963e-47
4.43879e-47
4.51254e-47
4.59079e-47
4.67335e-47
4.75995e-47
4.85025e-47
4.94384e-47
5.04023e-47
5.13887e-47
5.23915e-47
5.34042e-47
5.44198e-47
5.54312e-47
5.64315e-47
5.74137e-47
5.8371e-47
5.92974e-47
6.01873e-47
6.10357e-47
6.18386e-47
6.25929e-47
6.32961e-47
6.3947e-47
6.45449e-47
6.50902e-47
6.55838e-47
6.60275e-47
6.64234e-47
6.67741e-47
6.70827e-47
6.73524e-47
6.75863e-47
6.77879e-47
6.79606e-47
6.81074e-47
6.82314e-47
6.83355e-47
6.84224e-47
6.84944e-47
6.85538e-47
6.86024e-47
6.8642e-47
6.86741e-47
6.86999e-47
6.87207e-47
6.87372e-47
6.87504e-47
6.87608e-47
6.87691e-47
6.87757e-47
6.87809e-47
6.8785e-47
6.87883e-47
6.87911e-47
6.87933e-47
6.87952e-47
6.87968e-47
6.87982e-47
6.87996e-47
6.88008e-47
6.8802e-47
6.88031e-47
6.88043e-47
6.88055e-47
6.88067e-47
6.88079e-47
6.88092e-47
6.88105e-47
6.88118e-47
6.8813e-47
6.8814e-47
6.8814e-47
6.88113e-47
6.88067e-47
6.88085e-47
6.88106e-47
6.88128e-47
6.88152e-47
6.88179e-47
6.88209e-47
6.88241e-47
6.88277e-47
6.88315e-47
6.88355e-47
6.88396e-47
6.88438e-47
6.88481e-47
6.88522e-47
6.88563e-47
6.88602e-47
6.88639e-47
6.88673e-47
6.88705e-47
6.88735e-47
6.88764e-47
6.88791e-47
6.88817e-47
6.88844e-47
6.8887e-47
6.88898e-47
6.88927e-47
6.88958e-47
6.88992e-47
6.89027e-47
6.89065e-47
6.89105e-47
6.89148e-47
6.89192e-47
6.89238e-47
6.89286e-47
6.89335e-47
6.89386e-47
6.89437e-47
6.89488e-47
6.8954e-47
6.89593e-47
6.89646e-47
6.89699e-47
6.89752e-47
6.89805e-47
6.89859e-47
6.89913e-47
6.89967e-47
6.90022e-47
6.90077e-47
6.90132e-47
6.90188e-47
6.90245e-47
6.90301e-47
6.90359e-47
6.90416e-47
6.90474e-47
6.90533e-47
6.90592e-47
6.9065e-47
6.90709e-47
6.90768e-47
6.90827e-47
6.90888e-47
6.90952e-47
6.91035e-47
6.9118e-47
6.91547e-47
6.92683e-47
6.9647e-47
7.09342e-47
7.53185e-47
9.0208e-47
1.40555e-46
3.09999e-46
8.77577e-46
2.76986e-45
9.04962e-45
2.97957e-44
9.8031e-44
3.21495e-43
1.05025e-42
3.41718e-42
1.10744e-41
3.57519e-41
1.1499e-40
3.68523e-40
1.177e-39
3.74683e-39
1.18903e-38
3.76211e-38
1.18701e-37
3.73533e-37
1.17255e-36
3.6722e-36
1.1476e-35
3.57927e-35
1.1143e-34
3.46326e-34
1.07474e-33
3.33061e-33
1.03087e-32
3.18711e-32
9.84375e-32
3.03769e-31
9.36683e-31
2.8864e-30
8.88961e-30
2.73666e-29
8.42224e-29
2.59165e-28
7.97554e-28
2.45534e-27
7.56522e-27
2.33433e-26
7.21999e-26
2.24144e-25
6.99783e-25
2.20299e-24
7.0186e-24
2.27362e-23
7.53135e-23
2.56685e-22
9.05361e-22
3.33664e-21
1.27601e-20
5.06165e-20
2.07683e-19
8.76599e-19
3.78327e-18
1.66029e-17
7.37475e-17
3.3038e-16
1.48881e-15
6.73612e-15
3.056e-14
1.38893e-13
6.32016e-13
2.87819e-12
1.31145e-11
5.9782e-11
2.73978e-10
1.27176e-09
5.95509e-09
2.8067e-08
1.34725e-07
6.86772e-07
4.03081e-06
2.74027e-05
0.000164471
0.000514475
0.000782801
0.000935749
0.00126472
0.00199595
0.0031446
0.00451198
0.00586199
0.00720894
0.00819809
0.00897703
0.00958488
0.0100587
0.0104303
0.0107241
0.0109586
0.0111473
0.0113
0.0114241
0.0115249
0.0116068
0.011673
0.0117259
0.0117677
0.0117999
0.011824
0.0118411
0.011852
0.0118576
0.0118586
0.0118556
0.0118489
0.0118392
0.0118266
0.0118116
0.011795
0.0117771
0.0117577
0.011737
0.0117149
0.0116917
0.0116675
0.0116423
0.0116162
0.0115894
0.0115619
0.0115338
0.0115052
0.011476
0.0114464
0.0114164
0.011386
0.0113553
0.0113244
0.0112932
0.0112618
0.0112302
0.0111985
0.0111666
0.0111346
0.0111026
0.0110704
0.0110383
0.0110061
0.0109739
0.0109416
0.0109095
0.0108773
0.0108451
0.0108131
0.010781
0.0107491
0.0107172
0.0106854
0.0106537
0.0106222
0.0105907
0.0105593
0.0105281
0.010497
0.010466
0.0104352
0.0104045
0.0103739
0.0103435
0.0103133
0.0102832
0.0102533
0.0102235
0.0101939
0.0101644
0.0101352
0.0101061
0.0100771
0.0100483
0.0100197
0.00999134
0.00996313
0.00993516
0.00990728
0.00987936
0.00985159
0.00982397
0.00979649
0.00976916
0.00974196
0.00971491
0.00968799
0.0096612
0.00963455
0.00960803
0.00958164
0.00955538
0.00952924
0.00950323
0.00947735
0.0094516
0.00942597
0.00940046
0.00937508
0.00934982
0.00932469
0.00929969
0.00927481
0.00925005
0.00922543
0.00920093
0.00917655
0.00915231
0.00912819
0.0091042
0.00908035
0.00905662
0.00903302
0.00900955
0.00898621
0.008963
0.00893992
0.00891697
0.00889416
0.00887147
0.00884891
0.00882648
0.00880418
0.008782
0.00875996
0.00873804
0.00871625
0.00869458
0.00867304
0.00865162
0.00863033
0.00860916
0.00858811
0.00856719
0.00854638
0.0085257
0.00850513
0.00848469
0.00846436
0.00844416
0.00842407
0.0084041
0.00838425
0.00836451
0.00834489
0.00832539
0.008306
0.00828673
0.00826758
0.00824854
0.00822962
0.00821082
0.00819213
0.00817355
0.00815509
0.00813674
0.00811851
0.00810039
0.00808239
0.00806449
0.00804672
0.00802905
0.00801149
0.00799404
0.00797671
0.00795948
0.00794235
0.00792534
0.00790843
0.00789162
0.00787492
0.00785831
0.00784181
0.0078254
0.0078091
0.00779288
0.00777676
0.00776073
0.00774479
0.00772894
0.00771317
0.00769749
0.00768189
0.00766637
0.00765093
0.00763557
0.00762028
0.00760508
0.00758995
0.00757491
0.00755996
0.00754512
0.00753039
0.00751582
0.00750144
0.00748733
0.00747359
0.00746041
0.00744807
0.00743701
0.00742798
0.00742223
)
;

boundaryField
{
    boundary
    {
        type            empty;
    }
    inlet
    {
        type            fixedValue;
        value           uniform 0;
    }
    outlet
    {
        type            zeroGradient;
    }
}


// ************************************************************************* //
