/*--------------------------------*- C++ -*----------------------------------*\
  =========                 |
  \\      /  F ield         | OpenFOAM: The Open Source CFD Toolbox
   \\    /   O peration     | Website:  https://openfoam.org
    \\  /    A nd           | Version:  7
     \\/     M anipulation  |
\*---------------------------------------------------------------------------*/
FoamFile
{
    version     2.0;
    format      ascii;
    class       volScalarField;
    location    "0.00088";
    object      T;
}
// * * * * * * * * * * * * * * * * * * * * * * * * * * * * * * * * * * * * * //

dimensions      [0 0 0 1 0 0 0];

internalField   nonuniform List<scalar> 
500
(
300.001
300.002
300.002
300.003
300.004
300.005
300.005
300.005
300.005
300.005
300.004
300.003
300.001
299.999
299.997
299.994
299.99
299.987
299.983
299.98
299.976
299.973
299.97
299.967
299.965
299.964
299.963
299.963
299.964
299.965
299.968
299.971
299.975
299.98
299.986
299.993
300.001
300.01
300.02
300.032
300.046
300.061
300.078
300.096
300.117
300.14
300.165
300.193
300.223
300.255
300.29
300.327
300.366
300.408
300.452
300.497
300.544
300.593
300.642
300.692
300.742
300.793
300.843
300.892
300.941
300.988
301.033
301.077
301.119
301.159
301.196
301.231
301.263
301.293
301.32
301.345
301.368
301.388
301.406
301.422
301.437
301.449
301.46
301.469
301.477
301.484
301.49
301.495
301.499
301.502
301.505
301.507
301.509
301.511
301.512
301.513
301.514
301.515
301.515
301.516
301.516
301.516
301.516
301.517
301.517
301.517
301.517
301.517
301.517
301.517
301.517
301.517
301.517
301.517
301.517
301.517
301.517
301.517
301.518
301.518
301.518
301.518
301.518
301.518
301.518
301.518
301.518
301.518
301.518
301.518
301.518
301.518
301.518
301.519
301.519
301.519
301.519
301.519
301.519
301.52
301.52
301.52
301.52
301.52
301.52
301.52
301.521
301.521
301.521
301.521
301.521
301.521
301.521
301.521
301.521
301.521
301.522
301.522
301.522
301.522
301.522
301.522
301.523
301.523
301.523
301.523
301.523
301.523
301.524
301.524
301.524
301.524
301.524
301.525
301.525
301.525
301.525
301.526
301.526
301.526
301.526
301.526
301.527
301.527
301.527
301.527
301.528
301.528
301.528
301.528
301.528
301.529
301.529
301.529
301.529
301.53
301.53
301.53
301.53
301.53
301.53
301.531
301.531
301.531
301.531
301.531
301.531
301.531
301.531
301.532
301.532
301.532
301.532
301.532
301.532
301.532
301.531
301.531
301.531
301.531
301.531
301.531
301.531
301.53
301.53
301.53
301.529
301.529
301.529
301.528
301.528
301.527
301.527
301.526
301.526
301.525
301.524
301.524
301.523
301.522
301.521
301.52
301.519
301.518
301.517
301.516
301.515
301.514
301.512
301.511
301.51
301.508
301.506
301.505
301.503
301.502
301.5
301.498
301.497
301.495
301.493
301.491
301.489
301.487
301.486
301.485
301.486
301.494
301.52
301.597
301.821
302.462
304.29
309.493
324.054
361.932
443.246
572.633
726.166
879.589
1024.87
1158.95
1276.53
1372.77
1453.87
1523.13
1578.44
1622.79
1660.87
1693.97
1723.13
1749.13
1772.54
1793.79
1813.22
1831.08
1847.58
1862.89
1877.17
1890.51
1903.03
1914.81
1925.92
1936.42
1946.36
1955.8
1964.78
1973.33
1981.49
1989.28
1996.72
2003.83
2010.45
2016.69
2022.73
2028.58
2034.24
2039.73
2045.05
2050.22
2055.24
2060.11
2064.85
2069.46
2073.95
2078.32
2082.58
2086.74
2090.79
2094.74
2098.59
2102.36
2106.04
2109.64
2113.15
2116.59
2119.95
2123.24
2126.47
2129.62
2132.71
2135.74
2138.71
2141.62
2144.48
2147.28
2150.02
2152.72
2155.37
2157.97
2160.53
2163.04
2165.5
2167.93
2170.31
2172.65
2174.96
2177.23
2179.46
2181.66
2183.82
2185.95
2188.05
2190.11
2192.14
2194.15
2196.12
2198.07
2199.99
2201.88
2203.74
2205.58
2207.39
2209.18
2210.94
2212.67
2214.38
2216.07
2217.74
2219.39
2221.02
2222.63
2224.22
2225.78
2227.33
2228.86
2230.37
2231.85
2233.32
2234.78
2236.21
2237.63
2239.03
2240.41
2241.78
2243.13
2244.47
2245.78
2247.09
2248.38
2249.65
2250.91
2252.16
2253.39
2254.61
2255.81
2257.01
2258.19
2259.35
2260.51
2261.65
2262.78
2263.9
2265.01
2266.1
2267.19
2268.26
2269.33
2270.38
2271.42
2272.45
2273.48
2274.49
2275.49
2276.49
2277.47
2278.44
2279.41
2280.37
2281.31
2282.25
2283.18
2284.1
2285.02
2285.92
2286.82
2287.71
2288.59
2289.46
2290.33
2291.19
2292.04
2292.88
2293.71
2294.54
2295.37
2296.18
2296.99
2297.79
2298.58
2299.37
2300.15
2300.93
2301.7
2302.46
2303.22
2303.97
2304.71
2305.45
2306.18
2306.91
2307.63
2308.35
2309.06
2309.76
2310.46
2311.16
2311.85
2312.53
2313.21
2313.88
2314.55
2315.22
2315.87
2316.53
2317.17
2317.82
2318.46
2319.09
2319.72
2320.34
2320.96
2321.57
2322.18
2322.79
2323.39
2323.98
2324.57
2325.15
2325.73
2326.31
2326.88
2327.44
2328
2328.55
2329.08
2329.61
2330.1
2330.52
2330.8
)
;

boundaryField
{
    boundary
    {
        type            empty;
    }
    inlet
    {
        type            fixedValue;
        value           uniform 300;
    }
    outlet
    {
        type            zeroGradient;
    }
}


// ************************************************************************* //
