/*--------------------------------*- C++ -*----------------------------------*\
  =========                 |
  \\      /  F ield         | OpenFOAM: The Open Source CFD Toolbox
   \\    /   O peration     | Website:  https://openfoam.org
    \\  /    A nd           | Version:  7
     \\/     M anipulation  |
\*---------------------------------------------------------------------------*/
FoamFile
{
    version     2.0;
    format      ascii;
    class       volVectorField;
    location    "0.00088";
    object      U;
}
// * * * * * * * * * * * * * * * * * * * * * * * * * * * * * * * * * * * * * //

dimensions      [0 1 -1 0 0 0 0];

internalField   nonuniform List<vector> 
500
(
(2.34893 0 0)
(2.34891 0 0)
(2.34889 0 0)
(2.34887 0 0)
(2.34885 0 0)
(2.34883 0 0)
(2.34881 0 0)
(2.34879 0 0)
(2.34876 0 0)
(2.34874 0 0)
(2.34872 0 0)
(2.3487 0 0)
(2.34867 0 0)
(2.34865 0 0)
(2.34863 0 0)
(2.3486 0 0)
(2.34858 0 0)
(2.34856 0 0)
(2.34854 0 0)
(2.34852 0 0)
(2.34851 0 0)
(2.34849 0 0)
(2.34847 0 0)
(2.34846 0 0)
(2.34845 0 0)
(2.34843 0 0)
(2.34842 0 0)
(2.34841 0 0)
(2.34839 0 0)
(2.34838 0 0)
(2.34837 0 0)
(2.34836 0 0)
(2.34835 0 0)
(2.34834 0 0)
(2.34832 0 0)
(2.34831 0 0)
(2.34831 0 0)
(2.3483 0 0)
(2.34829 0 0)
(2.34828 0 0)
(2.34828 0 0)
(2.34827 0 0)
(2.34827 0 0)
(2.34827 0 0)
(2.34827 0 0)
(2.34827 0 0)
(2.34827 0 0)
(2.34827 0 0)
(2.34827 0 0)
(2.34827 0 0)
(2.34827 0 0)
(2.34827 0 0)
(2.34827 0 0)
(2.34827 0 0)
(2.34827 0 0)
(2.34827 0 0)
(2.34826 0 0)
(2.34825 0 0)
(2.34824 0 0)
(2.34822 0 0)
(2.34821 0 0)
(2.34818 0 0)
(2.34816 0 0)
(2.34814 0 0)
(2.34811 0 0)
(2.34808 0 0)
(2.34804 0 0)
(2.34801 0 0)
(2.34797 0 0)
(2.34793 0 0)
(2.34789 0 0)
(2.34785 0 0)
(2.34781 0 0)
(2.34777 0 0)
(2.34773 0 0)
(2.34769 0 0)
(2.34765 0 0)
(2.34761 0 0)
(2.34757 0 0)
(2.34754 0 0)
(2.3475 0 0)
(2.34747 0 0)
(2.34744 0 0)
(2.34741 0 0)
(2.34738 0 0)
(2.34735 0 0)
(2.34732 0 0)
(2.34729 0 0)
(2.34727 0 0)
(2.34724 0 0)
(2.34722 0 0)
(2.3472 0 0)
(2.34717 0 0)
(2.34715 0 0)
(2.34713 0 0)
(2.34711 0 0)
(2.34709 0 0)
(2.34707 0 0)
(2.34705 0 0)
(2.34703 0 0)
(2.34701 0 0)
(2.34699 0 0)
(2.34697 0 0)
(2.34695 0 0)
(2.34693 0 0)
(2.34691 0 0)
(2.34689 0 0)
(2.34687 0 0)
(2.34685 0 0)
(2.34683 0 0)
(2.34681 0 0)
(2.34679 0 0)
(2.34677 0 0)
(2.34676 0 0)
(2.34674 0 0)
(2.34672 0 0)
(2.3467 0 0)
(2.34668 0 0)
(2.34666 0 0)
(2.34664 0 0)
(2.34662 0 0)
(2.3466 0 0)
(2.34658 0 0)
(2.34656 0 0)
(2.34654 0 0)
(2.34652 0 0)
(2.3465 0 0)
(2.34649 0 0)
(2.34647 0 0)
(2.34645 0 0)
(2.34643 0 0)
(2.34641 0 0)
(2.34639 0 0)
(2.34637 0 0)
(2.34635 0 0)
(2.34633 0 0)
(2.34631 0 0)
(2.34629 0 0)
(2.34628 0 0)
(2.34626 0 0)
(2.34624 0 0)
(2.34622 0 0)
(2.3462 0 0)
(2.34618 0 0)
(2.34616 0 0)
(2.34614 0 0)
(2.34612 0 0)
(2.3461 0 0)
(2.34608 0 0)
(2.34606 0 0)
(2.34604 0 0)
(2.34603 0 0)
(2.34601 0 0)
(2.34599 0 0)
(2.34597 0 0)
(2.34595 0 0)
(2.34593 0 0)
(2.34591 0 0)
(2.34589 0 0)
(2.34587 0 0)
(2.34585 0 0)
(2.34584 0 0)
(2.34582 0 0)
(2.3458 0 0)
(2.34578 0 0)
(2.34576 0 0)
(2.34574 0 0)
(2.34572 0 0)
(2.3457 0 0)
(2.34568 0 0)
(2.34566 0 0)
(2.34564 0 0)
(2.34563 0 0)
(2.34561 0 0)
(2.34559 0 0)
(2.34557 0 0)
(2.34555 0 0)
(2.34553 0 0)
(2.34551 0 0)
(2.34549 0 0)
(2.34547 0 0)
(2.34545 0 0)
(2.34544 0 0)
(2.34542 0 0)
(2.3454 0 0)
(2.34538 0 0)
(2.34536 0 0)
(2.34534 0 0)
(2.34532 0 0)
(2.3453 0 0)
(2.34528 0 0)
(2.34526 0 0)
(2.34525 0 0)
(2.34523 0 0)
(2.34521 0 0)
(2.34519 0 0)
(2.34517 0 0)
(2.34515 0 0)
(2.34513 0 0)
(2.34511 0 0)
(2.34509 0 0)
(2.34507 0 0)
(2.34506 0 0)
(2.34504 0 0)
(2.34502 0 0)
(2.345 0 0)
(2.34498 0 0)
(2.34496 0 0)
(2.34494 0 0)
(2.34492 0 0)
(2.3449 0 0)
(2.34488 0 0)
(2.34487 0 0)
(2.34485 0 0)
(2.34483 0 0)
(2.34481 0 0)
(2.34479 0 0)
(2.34477 0 0)
(2.34475 0 0)
(2.34473 0 0)
(2.34471 0 0)
(2.34469 0 0)
(2.34468 0 0)
(2.34466 0 0)
(2.34464 0 0)
(2.34462 0 0)
(2.3446 0 0)
(2.34458 0 0)
(2.34456 0 0)
(2.34454 0 0)
(2.34452 0 0)
(2.3445 0 0)
(2.34448 0 0)
(2.34447 0 0)
(2.34445 0 0)
(2.34443 0 0)
(2.34441 0 0)
(2.34439 0 0)
(2.34437 0 0)
(2.34435 0 0)
(2.34433 0 0)
(2.34431 0 0)
(2.34429 0 0)
(2.34427 0 0)
(2.34425 0 0)
(2.34424 0 0)
(2.34422 0 0)
(2.3442 0 0)
(2.34418 0 0)
(2.34416 0 0)
(2.34414 0 0)
(2.34412 0 0)
(2.3441 0 0)
(2.34408 0 0)
(2.34406 0 0)
(2.34404 0 0)
(2.34402 0 0)
(2.344 0 0)
(2.34398 0 0)
(2.34396 0 0)
(2.34395 0 0)
(2.34393 0 0)
(2.34391 0 0)
(2.34389 0 0)
(2.34386 0 0)
(2.34384 0 0)
(2.34383 0 0)
(2.34385 0 0)
(2.34397 0 0)
(2.34448 0 0)
(2.34618 0 0)
(2.35145 0 0)
(2.36654 0 0)
(2.40595 0 0)
(2.50114 0 0)
(2.72026 0 0)
(3.18781 0 0)
(4.06289 0 0)
(5.2354 0 0)
(6.47161 0 0)
(7.61644 0 0)
(8.62523 0 0)
(9.48735 0 0)
(10.2006 0 0)
(10.7878 0 0)
(11.2763 0 0)
(11.673 0 0)
(11.9892 0 0)
(12.2498 0 0)
(12.4743 0 0)
(12.6716 0 0)
(12.8467 0 0)
(13.0034 0 0)
(13.1448 0 0)
(13.2734 0 0)
(13.3911 0 0)
(13.4994 0 0)
(13.5996 0 0)
(13.6926 0 0)
(13.7793 0 0)
(13.8603 0 0)
(13.9364 0 0)
(14.0079 0 0)
(14.0753 0 0)
(14.139 0 0)
(14.1993 0 0)
(14.2566 0 0)
(14.311 0 0)
(14.3628 0 0)
(14.4121 0 0)
(14.4591 0 0)
(14.504 0 0)
(14.5458 0 0)
(14.5849 0 0)
(14.6229 0 0)
(14.6596 0 0)
(14.695 0 0)
(14.7294 0 0)
(14.7626 0 0)
(14.7949 0 0)
(14.8261 0 0)
(14.8565 0 0)
(14.8859 0 0)
(14.9146 0 0)
(14.9424 0 0)
(14.9695 0 0)
(14.9958 0 0)
(15.0215 0 0)
(15.0465 0 0)
(15.0709 0 0)
(15.0946 0 0)
(15.1178 0 0)
(15.1405 0 0)
(15.1626 0 0)
(15.1841 0 0)
(15.2052 0 0)
(15.2259 0 0)
(15.246 0 0)
(15.2657 0 0)
(15.285 0 0)
(15.3039 0 0)
(15.3224 0 0)
(15.3406 0 0)
(15.3583 0 0)
(15.3757 0 0)
(15.3928 0 0)
(15.4095 0 0)
(15.4259 0 0)
(15.442 0 0)
(15.4578 0 0)
(15.4733 0 0)
(15.4885 0 0)
(15.5035 0 0)
(15.5182 0 0)
(15.5326 0 0)
(15.5468 0 0)
(15.5607 0 0)
(15.5744 0 0)
(15.5879 0 0)
(15.6011 0 0)
(15.6142 0 0)
(15.627 0 0)
(15.6396 0 0)
(15.6521 0 0)
(15.6643 0 0)
(15.6763 0 0)
(15.6882 0 0)
(15.6998 0 0)
(15.7113 0 0)
(15.7227 0 0)
(15.7338 0 0)
(15.7448 0 0)
(15.7557 0 0)
(15.7663 0 0)
(15.7768 0 0)
(15.7871 0 0)
(15.7973 0 0)
(15.8074 0 0)
(15.8174 0 0)
(15.8272 0 0)
(15.8369 0 0)
(15.8465 0 0)
(15.8559 0 0)
(15.8652 0 0)
(15.8744 0 0)
(15.8835 0 0)
(15.8925 0 0)
(15.9013 0 0)
(15.9101 0 0)
(15.9187 0 0)
(15.9272 0 0)
(15.9356 0 0)
(15.944 0 0)
(15.9522 0 0)
(15.9603 0 0)
(15.9683 0 0)
(15.9762 0 0)
(15.9841 0 0)
(15.9918 0 0)
(15.9995 0 0)
(16.007 0 0)
(16.0145 0 0)
(16.0219 0 0)
(16.0292 0 0)
(16.0365 0 0)
(16.0436 0 0)
(16.0507 0 0)
(16.0577 0 0)
(16.0646 0 0)
(16.0715 0 0)
(16.0782 0 0)
(16.0849 0 0)
(16.0916 0 0)
(16.0981 0 0)
(16.1046 0 0)
(16.111 0 0)
(16.1174 0 0)
(16.1237 0 0)
(16.1299 0 0)
(16.136 0 0)
(16.1421 0 0)
(16.1482 0 0)
(16.1541 0 0)
(16.16 0 0)
(16.1659 0 0)
(16.1717 0 0)
(16.1774 0 0)
(16.1831 0 0)
(16.1887 0 0)
(16.1943 0 0)
(16.1998 0 0)
(16.2053 0 0)
(16.2107 0 0)
(16.2161 0 0)
(16.2214 0 0)
(16.2266 0 0)
(16.2318 0 0)
(16.237 0 0)
(16.2421 0 0)
(16.2472 0 0)
(16.2522 0 0)
(16.2572 0 0)
(16.2621 0 0)
(16.267 0 0)
(16.2718 0 0)
(16.2766 0 0)
(16.2813 0 0)
(16.286 0 0)
(16.2907 0 0)
(16.2953 0 0)
(16.2999 0 0)
(16.3045 0 0)
(16.309 0 0)
(16.3134 0 0)
(16.3178 0 0)
(16.3222 0 0)
(16.3266 0 0)
(16.3309 0 0)
(16.3351 0 0)
(16.3394 0 0)
(16.3436 0 0)
(16.3477 0 0)
(16.3519 0 0)
(16.356 0 0)
(16.36 0 0)
(16.364 0 0)
(16.368 0 0)
(16.372 0 0)
(16.3759 0 0)
(16.3798 0 0)
(16.3837 0 0)
(16.3875 0 0)
(16.3913 0 0)
(16.3951 0 0)
(16.3988 0 0)
(16.4025 0 0)
(16.4062 0 0)
(16.4098 0 0)
(16.4134 0 0)
(16.417 0 0)
(16.4206 0 0)
(16.4241 0 0)
(16.4276 0 0)
(16.4311 0 0)
(16.4346 0 0)
(16.438 0 0)
(16.4414 0 0)
(16.4448 0 0)
(16.4481 0 0)
(16.4515 0 0)
(16.4548 0 0)
(16.4581 0 0)
(16.4614 0 0)
(16.4647 0 0)
(16.468 0 0)
(16.4712 0 0)
(16.4744 0 0)
(16.4775 0 0)
(16.4801 0 0)
(16.4819 0 0)
)
;

boundaryField
{
    boundary
    {
        type            empty;
    }
    inlet
    {
        type            fixedValue;
        value           uniform (2.34893 0 0);
    }
    outlet
    {
        type            zeroGradient;
    }
}


// ************************************************************************* //
