/*--------------------------------*- C++ -*----------------------------------*\
  =========                 |
  \\      /  F ield         | OpenFOAM: The Open Source CFD Toolbox
   \\    /   O peration     | Website:  https://openfoam.org
    \\  /    A nd           | Version:  7
     \\/     M anipulation  |
\*---------------------------------------------------------------------------*/
FoamFile
{
    version     2.0;
    format      ascii;
    class       volScalarField;
    location    "0.00057";
    object      H2;
}
// * * * * * * * * * * * * * * * * * * * * * * * * * * * * * * * * * * * * * //

dimensions      [0 0 0 0 0 0 0];

internalField   nonuniform List<scalar> 
500
(
0.0285116
0.0285116
0.0285116
0.0285116
0.0285116
0.0285116
0.0285116
0.0285116
0.0285116
0.0285116
0.0285116
0.0285116
0.0285116
0.0285116
0.0285116
0.0285116
0.0285116
0.0285116
0.0285116
0.0285116
0.0285116
0.0285116
0.0285116
0.0285116
0.0285116
0.0285116
0.0285116
0.0285116
0.0285116
0.0285116
0.0285116
0.0285116
0.0285116
0.0285116
0.0285116
0.0285116
0.0285116
0.0285116
0.0285116
0.0285116
0.0285116
0.0285116
0.0285116
0.0285116
0.0285116
0.0285116
0.0285116
0.0285116
0.0285116
0.0285116
0.0285116
0.0285116
0.0285116
0.0285116
0.0285116
0.0285116
0.0285116
0.0285116
0.0285116
0.0285116
0.0285116
0.0285116
0.0285116
0.0285116
0.0285116
0.0285116
0.0285116
0.0285116
0.0285116
0.0285116
0.0285116
0.0285116
0.0285116
0.0285116
0.0285116
0.0285116
0.0285116
0.0285116
0.0285116
0.0285116
0.0285116
0.0285116
0.0285116
0.0285116
0.0285116
0.0285116
0.0285116
0.0285116
0.0285116
0.0285116
0.0285116
0.0285116
0.0285116
0.0285116
0.0285116
0.0285116
0.0285116
0.0285116
0.0285116
0.0285116
0.0285116
0.0285116
0.0285116
0.0285116
0.0285116
0.0285116
0.0285116
0.0285116
0.0285116
0.0285116
0.0285116
0.0285116
0.0285116
0.0285116
0.0285116
0.0285116
0.0285116
0.0285116
0.0285116
0.0285116
0.0285116
0.0285116
0.0285116
0.0285116
0.0285116
0.0285116
0.0285116
0.0285116
0.0285116
0.0285116
0.0285116
0.0285116
0.0285116
0.0285116
0.0285116
0.0285116
0.0285116
0.0285116
0.0285116
0.0285116
0.0285116
0.0285116
0.0285116
0.0285116
0.0285116
0.0285116
0.0285116
0.0285116
0.0285116
0.0285116
0.0285116
0.0285116
0.0285116
0.0285116
0.0285116
0.0285116
0.0285116
0.0285116
0.0285116
0.0285116
0.0285116
0.0285116
0.0285116
0.0285116
0.0285116
0.0285116
0.0285116
0.0285116
0.0285116
0.0285116
0.0285116
0.0285116
0.0285116
0.0285116
0.0285116
0.0285116
0.0285116
0.0285116
0.0285116
0.0285116
0.0285116
0.0285116
0.0285116
0.0285116
0.0285116
0.0285116
0.0285116
0.0285116
0.0285116
0.0285116
0.0285116
0.0285116
0.0285116
0.0285116
0.0285116
0.0285116
0.0285116
0.0285116
0.0285116
0.0285116
0.0285116
0.0285116
0.0285116
0.0285116
0.0285116
0.0285116
0.0285116
0.0285116
0.0285116
0.0285116
0.0285116
0.0285116
0.0285116
0.0285116
0.0285116
0.0285116
0.0285116
0.0285116
0.0285116
0.0285116
0.0285116
0.0285116
0.0285116
0.0285116
0.0285116
0.0285116
0.0285116
0.0285116
0.0285116
0.0285116
0.0285116
0.0285116
0.0285116
0.0285116
0.0285116
0.0285116
0.0285116
0.0285116
0.0285116
0.0285116
0.0285116
0.0285116
0.0285116
0.0285116
0.0285116
0.0285116
0.0285116
0.0285116
0.0285116
0.0285116
0.0285116
0.0285116
0.0285116
0.0285116
0.0285116
0.0285116
0.0285116
0.0285116
0.0285116
0.0285116
0.0285116
0.0285116
0.0285115
0.0285115
0.0285114
0.0285112
0.0285107
0.0285098
0.0285078
0.0285038
0.0284953
0.0284776
0.0284408
0.0283643
0.0282069
0.0278888
0.0272753
0.0261916
0.0245045
0.0222618
0.0196344
0.0167119
0.0136434
0.0107604
0.00840662
0.00671096
0.00549702
0.00478629
0.00434653
0.00407565
0.00390686
0.00379864
0.00372588
0.00367369
0.00363335
0.00359979
0.00357009
0.00354259
0.00351638
0.00349095
0.00346603
0.0034415
0.00341731
0.00339343
0.00336986
0.00334662
0.00332371
0.00330115
0.00327894
0.00325709
0.00323561
0.0032145
0.00319438
0.00317507
0.00315603
0.00313725
0.00311873
0.00310047
0.00308246
0.00306469
0.00304718
0.0030299
0.00301287
0.00299607
0.00297949
0.00296315
0.00294702
0.00293111
0.00291542
0.00289993
0.00288465
0.00286957
0.00285468
0.00283998
0.00282548
0.00281115
0.00279701
0.00278304
0.00276924
0.00275561
0.00274214
0.00272884
0.00271569
0.0027027
0.00268986
0.00267717
0.00266462
0.00265222
0.00263996
0.00262783
0.00261584
0.00260398
0.00259225
0.00258065
0.00256918
0.00255783
0.0025466
0.00253549
0.00252451
0.00251364
0.00250289
0.00249225
0.00248173
0.00247132
0.00246102
0.00245083
0.00244076
0.00243079
0.00242093
0.00241118
0.00240153
0.002392
0.00238256
0.00237324
0.00236402
0.0023549
0.00234587
0.00233691
0.00232804
0.00231927
0.00231058
0.00230199
0.00229349
0.00228507
0.00227674
0.0022685
0.00226035
0.00225227
0.00224429
0.00223638
0.00222856
0.00222082
0.00221316
0.00220559
0.00219809
0.00219068
0.00218334
0.00217608
0.00216891
0.00216181
0.0021548
0.00214786
0.00214101
0.00213424
0.00212755
0.00212094
0.00211442
0.00210798
0.00210162
0.00209535
0.00208917
0.00208308
0.00207708
0.00207117
0.00206535
0.00205963
0.002054
0.00204848
0.00204305
0.00203773
0.00203251
0.00202741
0.00202241
0.00201753
0.00201277
0.00200812
0.0020036
0.00199922
0.00199497
0.00199086
0.00198691
0.00198313
0.00197909
0.00197562
0.00197227
0.00196905
0.00196598
0.00196306
0.00196031
0.00195774
0.00195533
0.00195311
0.00195106
0.0019492
0.00194753
0.00194604
0.00194475
0.00194365
0.00194275
0.00194204
0.00194152
0.0019412
0.00194107
0.00194114
0.00194139
0.00194183
0.00194245
0.00194324
0.00194421
0.00194534
0.00194662
0.00194805
0.00194962
0.00195131
0.00195311
0.00195502
0.001957
0.00195905
0.00196116
0.00196329
0.00196544
0.00196758
0.00196969
0.00197175
0.00197374
0.00197563
0.0019774
0.00197902
0.00198047
0.00198173
0.00198276
0.00198356
0.00198409
0.00198433
0.00198427
0.00198389
0.00198318
0.00198214
0.00198075
0.00197903
0.001977
0.00197469
0.00197213
0.00196941
0.0019666
0.00196382
0.00196121
0.00195895
0.00195722
0.00195625
)
;

boundaryField
{
    boundary
    {
        type            empty;
    }
    inlet
    {
        type            fixedValue;
        value           uniform 0.0285116;
    }
    outlet
    {
        type            zeroGradient;
    }
}


// ************************************************************************* //
