/*--------------------------------*- C++ -*----------------------------------*\
  =========                 |
  \\      /  F ield         | OpenFOAM: The Open Source CFD Toolbox
   \\    /   O peration     | Website:  https://openfoam.org
    \\  /    A nd           | Version:  7
     \\/     M anipulation  |
\*---------------------------------------------------------------------------*/
FoamFile
{
    version     2.0;
    format      ascii;
    class       volScalarField;
    location    "0.00057";
    object      H2O;
}
// * * * * * * * * * * * * * * * * * * * * * * * * * * * * * * * * * * * * * //

dimensions      [0 0 0 0 0 0 0];

internalField   nonuniform List<scalar> 
500
(
7.88197e-48
2.27823e-47
4.10114e-47
6.15119e-47
8.35703e-47
1.06706e-46
1.30594e-46
1.55017e-46
1.79829e-46
2.04935e-46
2.30277e-46
2.5582e-46
2.81553e-46
3.0748e-46
3.3362e-46
3.60004e-46
3.86678e-46
4.13703e-46
4.41152e-46
4.69113e-46
4.97687e-46
5.26991e-46
5.57149e-46
5.88295e-46
6.20566e-46
6.54095e-46
6.89009e-46
7.25415e-46
7.63397e-46
8.03005e-46
8.44246e-46
8.87079e-46
9.31406e-46
9.77073e-46
1.02387e-45
1.07151e-45
1.11969e-45
1.16803e-45
1.21614e-45
1.26361e-45
1.31e-45
1.35493e-45
1.398e-45
1.43888e-45
1.47728e-45
1.51297e-45
1.54579e-45
1.57566e-45
1.60255e-45
1.62648e-45
1.64757e-45
1.66594e-45
1.68177e-45
1.69528e-45
1.70667e-45
1.71618e-45
1.72403e-45
1.73045e-45
1.73564e-45
1.73979e-45
1.74309e-45
1.74567e-45
1.74768e-45
1.74923e-45
1.75041e-45
1.7513e-45
1.75196e-45
1.75246e-45
1.75282e-45
1.75309e-45
1.75328e-45
1.75342e-45
1.75352e-45
1.75359e-45
1.75364e-45
1.75368e-45
1.75371e-45
1.75373e-45
1.75375e-45
1.75376e-45
1.75378e-45
1.75379e-45
1.7538e-45
1.75382e-45
1.75383e-45
1.75385e-45
1.75386e-45
1.75388e-45
1.75389e-45
1.75391e-45
1.75393e-45
1.75395e-45
1.75397e-45
1.75399e-45
1.75402e-45
1.75404e-45
1.75407e-45
1.7541e-45
1.75413e-45
1.75416e-45
1.75419e-45
1.75423e-45
1.75426e-45
1.7543e-45
1.75434e-45
1.75438e-45
1.75442e-45
1.75447e-45
1.75451e-45
1.75456e-45
1.75461e-45
1.75467e-45
1.75472e-45
1.75478e-45
1.75484e-45
1.7549e-45
1.75496e-45
1.75503e-45
1.75509e-45
1.75516e-45
1.75522e-45
1.75526e-45
1.7552e-45
1.75477e-45
1.75296e-45
1.74958e-45
1.74967e-45
1.74978e-45
1.7499e-45
1.75006e-45
1.75025e-45
1.75049e-45
1.75077e-45
1.75112e-45
1.75153e-45
1.752e-45
1.75253e-45
1.7531e-45
1.7537e-45
1.75432e-45
1.75493e-45
1.75551e-45
1.75605e-45
1.75654e-45
1.75696e-45
1.75731e-45
1.75758e-45
1.75779e-45
1.75794e-45
1.75803e-45
1.75808e-45
1.75809e-45
1.75808e-45
1.75806e-45
1.75804e-45
1.75802e-45
1.75801e-45
1.75802e-45
1.75806e-45
1.75812e-45
1.75822e-45
1.75834e-45
1.7585e-45
1.75868e-45
1.75889e-45
1.75912e-45
1.75937e-45
1.75963e-45
1.7599e-45
1.76018e-45
1.76045e-45
1.76071e-45
1.76097e-45
1.76122e-45
1.76145e-45
1.76167e-45
1.76187e-45
1.76206e-45
1.76223e-45
1.76239e-45
1.76253e-45
1.76266e-45
1.76278e-45
1.76288e-45
1.76297e-45
1.76304e-45
1.7631e-45
1.76316e-45
1.76319e-45
1.76322e-45
1.76323e-45
1.76323e-45
1.76322e-45
1.76319e-45
1.76315e-45
1.76309e-45
1.76302e-45
1.76294e-45
1.76283e-45
1.76272e-45
1.76264e-45
1.76273e-45
1.76361e-45
1.76789e-45
1.7865e-45
1.86483e-45
2.19011e-45
3.52928e-45
9.00384e-45
3.12406e-44
1.21034e-43
4.81729e-43
1.92417e-42
7.67262e-42
3.05305e-41
1.21355e-40
4.82605e-40
1.92376e-39
7.70231e-39
3.10387e-38
1.26135e-37
5.17717e-37
2.14835e-36
9.01567e-36
3.82439e-35
1.63793e-34
7.07094e-34
3.07077e-33
1.33879e-32
5.84809e-32
2.55491e-31
1.11464e-30
4.85007e-30
2.10276e-29
9.0769e-29
3.89903e-28
1.66606e-27
7.08014e-27
2.99206e-26
1.2574e-25
5.25512e-25
2.18456e-24
9.03452e-24
3.71803e-23
1.52304e-22
6.21208e-22
2.52368e-21
1.02153e-20
4.12128e-20
1.65778e-19
6.65077e-19
2.67718e-18
1.072e-17
4.27577e-17
1.7021e-16
6.76689e-16
2.68761e-15
1.06662e-14
4.23052e-14
1.67717e-13
6.64676e-13
2.63346e-12
1.04316e-11
4.13144e-11
1.63597e-10
6.47696e-10
2.56371e-09
1.01446e-08
4.01262e-08
1.58623e-07
6.26497e-07
2.47104e-06
9.72388e-06
3.80953e-05
0.000147774
0.000559367
0.00199176
0.00618735
0.0153214
0.0294506
0.0471422
0.0685393
0.0935339
0.119408
0.142093
0.159122
0.173725
0.182197
0.187891
0.191783
0.194533
0.196564
0.198141
0.199427
0.200519
0.20148
0.202347
0.203143
0.203885
0.204583
0.205243
0.20587
0.206469
0.207041
0.20759
0.208117
0.208624
0.209111
0.209582
0.210035
0.210473
0.210896
0.211291
0.211668
0.212036
0.212394
0.212743
0.213084
0.213417
0.213743
0.21406
0.214371
0.214675
0.214973
0.215264
0.215549
0.215828
0.216102
0.21637
0.216633
0.216891
0.217144
0.217393
0.217636
0.217876
0.218111
0.218342
0.218568
0.218791
0.21901
0.219226
0.219437
0.219646
0.21985
0.220052
0.22025
0.220445
0.220637
0.220826
0.221013
0.221196
0.221377
0.221555
0.22173
0.221903
0.222073
0.222241
0.222407
0.22257
0.222732
0.222891
0.223048
0.223203
0.223356
0.223507
0.223656
0.223803
0.223949
0.224093
0.224235
0.224376
0.224514
0.224652
0.224788
0.224922
0.225055
0.225186
0.225317
0.225446
0.225574
0.2257
0.225826
0.22595
0.226072
0.226194
0.226314
0.226434
0.226552
0.226669
0.226785
0.2269
0.227014
0.227127
0.227239
0.227349
0.227459
0.227568
0.227677
0.227784
0.22789
0.227996
0.2281
0.228204
0.228308
0.22841
0.228512
0.228613
0.228713
0.228813
0.228913
0.229012
0.22911
0.229208
0.229305
0.229402
0.229499
0.229596
0.229692
0.229789
0.229885
0.229981
0.230077
0.230173
0.230269
0.230365
0.230462
0.230559
0.230656
0.230753
0.23085
0.230948
0.231058
0.231183
0.231283
0.231385
0.231489
0.231595
0.231701
0.231809
0.231919
0.23203
0.232142
0.232256
0.232372
0.232489
0.232608
0.232729
0.232852
0.232976
0.233102
0.23323
0.23336
0.233492
0.233625
0.233759
0.233896
0.234033
0.234172
0.234313
0.234454
0.234596
0.234739
0.234883
0.235027
0.235171
0.235316
0.23546
0.235604
0.235748
0.235891
0.236033
0.236173
0.236313
0.236451
0.236587
0.236722
0.236854
0.236985
0.237113
0.237238
0.237361
0.237481
0.237599
0.237713
0.237825
0.237933
0.238038
0.238141
0.23824
0.238336
0.238428
0.238517
0.238603
0.238685
0.238763
0.238837
0.238905
0.238966
0.239016
0.239049
)
;

boundaryField
{
    boundary
    {
        type            empty;
    }
    inlet
    {
        type            fixedValue;
        value           uniform 0;
    }
    outlet
    {
        type            zeroGradient;
    }
}


// ************************************************************************* //
