/*--------------------------------*- C++ -*----------------------------------*\
  =========                 |
  \\      /  F ield         | OpenFOAM: The Open Source CFD Toolbox
   \\    /   O peration     | Website:  https://openfoam.org
    \\  /    A nd           | Version:  7
     \\/     M anipulation  |
\*---------------------------------------------------------------------------*/
FoamFile
{
    version     2.0;
    format      ascii;
    class       volScalarField;
    location    "0.00057";
    object      H2O2;
}
// * * * * * * * * * * * * * * * * * * * * * * * * * * * * * * * * * * * * * //

dimensions      [0 0 0 0 0 0 0];

internalField   nonuniform List<scalar> 
500
(
1.99481e-52
6.41102e-52
1.27531e-51
2.10293e-51
3.12478e-51
4.34161e-51
5.75418e-51
7.36323e-51
9.16961e-51
1.11744e-50
1.3379e-50
1.57853e-50
1.83958e-50
2.12139e-50
2.42441e-50
2.7492e-50
3.09649e-50
3.46719e-50
3.86241e-50
4.28345e-50
4.73185e-50
5.20935e-50
5.71786e-50
6.25941e-50
6.83609e-50
7.44992e-50
8.10274e-50
8.79604e-50
9.53081e-50
1.03074e-49
1.11251e-49
1.19826e-49
1.2877e-49
1.38044e-49
1.47597e-49
1.57365e-49
1.67275e-49
1.77241e-49
1.87176e-49
1.96986e-49
2.06576e-49
2.15857e-49
2.24745e-49
2.33167e-49
2.41059e-49
2.48373e-49
2.55077e-49
2.61153e-49
2.66598e-49
2.71422e-49
2.75649e-49
2.7931e-49
2.82445e-49
2.85102e-49
2.87327e-49
2.89171e-49
2.90682e-49
2.91907e-49
2.9289e-49
2.93671e-49
2.94284e-49
2.94761e-49
2.95129e-49
2.95409e-49
2.9562e-49
2.95779e-49
2.95896e-49
2.95982e-49
2.96045e-49
2.96091e-49
2.96123e-49
2.96147e-49
2.96163e-49
2.96175e-49
2.96184e-49
2.9619e-49
2.96195e-49
2.96199e-49
2.96202e-49
2.96205e-49
2.96207e-49
2.9621e-49
2.96212e-49
2.96214e-49
2.96217e-49
2.96219e-49
2.96222e-49
2.96225e-49
2.96228e-49
2.96232e-49
2.96235e-49
2.96239e-49
2.96243e-49
2.96247e-49
2.96251e-49
2.96256e-49
2.96261e-49
2.96266e-49
2.96272e-49
2.96277e-49
2.96283e-49
2.9629e-49
2.96296e-49
2.96303e-49
2.96311e-49
2.96318e-49
2.96326e-49
2.96334e-49
2.96343e-49
2.96352e-49
2.96362e-49
2.96371e-49
2.96381e-49
2.96392e-49
2.96403e-49
2.96414e-49
2.96426e-49
2.96438e-49
2.96451e-49
2.96463e-49
2.96474e-49
2.96479e-49
2.96458e-49
2.96335e-49
2.95805e-49
2.94743e-49
2.94758e-49
2.94776e-49
2.94796e-49
2.94822e-49
2.94853e-49
2.94892e-49
2.94942e-49
2.95002e-49
2.95077e-49
2.95166e-49
2.95269e-49
2.95386e-49
2.95514e-49
2.95651e-49
2.9579e-49
2.95927e-49
2.96057e-49
2.96174e-49
2.96274e-49
2.96354e-49
2.96413e-49
2.9645e-49
2.96468e-49
2.96468e-49
2.96456e-49
2.96435e-49
2.9641e-49
2.96385e-49
2.96363e-49
2.96349e-49
2.96345e-49
2.96353e-49
2.96373e-49
2.96405e-49
2.96451e-49
2.96508e-49
2.96575e-49
2.96651e-49
2.96733e-49
2.9682e-49
2.96909e-49
2.96999e-49
2.97089e-49
2.97176e-49
2.9726e-49
2.97339e-49
2.97414e-49
2.97482e-49
2.97546e-49
2.97603e-49
2.97655e-49
2.97702e-49
2.97743e-49
2.9778e-49
2.97813e-49
2.97842e-49
2.97867e-49
2.97888e-49
2.97907e-49
2.97923e-49
2.97936e-49
2.97946e-49
2.97954e-49
2.9796e-49
2.97963e-49
2.97963e-49
2.97961e-49
2.97957e-49
2.97949e-49
2.97939e-49
2.97926e-49
2.9791e-49
2.97891e-49
2.97869e-49
2.97843e-49
2.97814e-49
2.97782e-49
2.97749e-49
2.97732e-49
2.97831e-49
2.98656e-49
3.03862e-49
3.35169e-49
5.20469e-49
1.60588e-48
7.90378e-48
4.41056e-47
2.50256e-46
1.41313e-45
7.91071e-45
4.38707e-44
2.40985e-43
1.31112e-42
7.06506e-42
3.7706e-41
1.99309e-40
1.04345e-39
5.4108e-39
2.77918e-38
1.41405e-37
7.12759e-37
3.55951e-36
1.7614e-35
8.63772e-35
4.19835e-34
2.02285e-33
9.6634e-33
4.57786e-32
2.15106e-31
1.00276e-30
4.63883e-30
2.13012e-29
9.71214e-29
4.39824e-28
1.97901e-27
8.85079e-27
3.93598e-26
1.74115e-25
7.66503e-25
3.35948e-24
1.46654e-23
6.37913e-23
2.76595e-22
1.19594e-21
5.15829e-21
2.23322e-20
9.61694e-20
4.1264e-19
1.76757e-18
7.56342e-18
3.23388e-17
1.38191e-16
5.90265e-16
2.52046e-15
1.076e-14
4.59276e-14
1.96009e-13
8.36422e-13
3.56874e-12
1.52241e-11
6.49312e-11
2.76847e-10
1.17986e-09
5.02501e-09
2.13794e-08
9.07975e-08
3.84145e-07
1.60875e-06
6.52777e-06
2.39758e-05
6.66834e-05
0.000110231
0.00012307
8.73715e-05
4.23871e-05
1.71307e-05
7.48566e-06
4.74429e-06
4.47718e-06
4.96942e-06
5.68669e-06
6.19652e-06
6.53807e-06
6.72122e-06
6.77844e-06
6.74382e-06
6.646e-06
6.50668e-06
6.34139e-06
6.16123e-06
5.9738e-06
5.78429e-06
5.59618e-06
5.41179e-06
5.23261e-06
5.05956e-06
4.89314e-06
4.73362e-06
4.58105e-06
4.43536e-06
4.2964e-06
4.16394e-06
4.03775e-06
3.91759e-06
3.80321e-06
3.69443e-06
3.59417e-06
3.49989e-06
3.40942e-06
3.32258e-06
3.23918e-06
3.15906e-06
3.08205e-06
3.00802e-06
2.93681e-06
2.86829e-06
2.80233e-06
2.73881e-06
2.6776e-06
2.61861e-06
2.56172e-06
2.50684e-06
2.45388e-06
2.40274e-06
2.35334e-06
2.30561e-06
2.25947e-06
2.21484e-06
2.17166e-06
2.12987e-06
2.08941e-06
2.05022e-06
2.01224e-06
1.97543e-06
1.93974e-06
1.90511e-06
1.87152e-06
1.8389e-06
1.80724e-06
1.77648e-06
1.74659e-06
1.71754e-06
1.6893e-06
1.66183e-06
1.63511e-06
1.60911e-06
1.5838e-06
1.55915e-06
1.53514e-06
1.51176e-06
1.48897e-06
1.46675e-06
1.44509e-06
1.42397e-06
1.40336e-06
1.38325e-06
1.36362e-06
1.34445e-06
1.32574e-06
1.30746e-06
1.2896e-06
1.27215e-06
1.2551e-06
1.23842e-06
1.22212e-06
1.20617e-06
1.19057e-06
1.17532e-06
1.16039e-06
1.14579e-06
1.13148e-06
1.11745e-06
1.10371e-06
1.09024e-06
1.07704e-06
1.06411e-06
1.05143e-06
1.03901e-06
1.02682e-06
1.01487e-06
1.00315e-06
9.91658e-07
9.80379e-07
9.69312e-07
9.58452e-07
9.47792e-07
9.37329e-07
9.27057e-07
9.1697e-07
9.07066e-07
8.97338e-07
8.87782e-07
8.78395e-07
8.69172e-07
8.60108e-07
8.51201e-07
8.42445e-07
8.33838e-07
8.25375e-07
8.17053e-07
8.08869e-07
8.00819e-07
7.92899e-07
7.85108e-07
7.7744e-07
7.69894e-07
7.62466e-07
7.55154e-07
7.47954e-07
7.40864e-07
7.33881e-07
7.27003e-07
7.20226e-07
7.13548e-07
7.06967e-07
7.0048e-07
6.94085e-07
6.87779e-07
6.8156e-07
6.75425e-07
6.69373e-07
6.63402e-07
6.57511e-07
6.51704e-07
6.45928e-07
6.39891e-07
6.32814e-07
6.27344e-07
6.21819e-07
6.16311e-07
6.10841e-07
6.05411e-07
6.00021e-07
5.94666e-07
5.89342e-07
5.84046e-07
5.78773e-07
5.7352e-07
5.68282e-07
5.63057e-07
5.57841e-07
5.5263e-07
5.4742e-07
5.42209e-07
5.36992e-07
5.31766e-07
5.26527e-07
5.21274e-07
5.16002e-07
5.10708e-07
5.0539e-07
5.00045e-07
4.94671e-07
4.89266e-07
4.83827e-07
4.78354e-07
4.72845e-07
4.673e-07
4.61719e-07
4.56101e-07
4.50449e-07
4.44763e-07
4.39044e-07
4.33297e-07
4.27523e-07
4.21726e-07
4.15911e-07
4.10083e-07
4.04246e-07
3.98408e-07
3.92573e-07
3.8675e-07
3.80946e-07
3.75168e-07
3.69424e-07
3.63722e-07
3.58072e-07
3.5248e-07
3.46958e-07
3.41512e-07
3.36153e-07
3.3089e-07
3.25731e-07
3.20687e-07
3.15769e-07
3.10987e-07
3.06355e-07
3.0189e-07
2.97616e-07
2.93568e-07
2.89802e-07
2.86418e-07
2.83607e-07
2.8176e-07
)
;

boundaryField
{
    boundary
    {
        type            empty;
    }
    inlet
    {
        type            fixedValue;
        value           uniform 0;
    }
    outlet
    {
        type            zeroGradient;
    }
}


// ************************************************************************* //
