/*--------------------------------*- C++ -*----------------------------------*\
  =========                 |
  \\      /  F ield         | OpenFOAM: The Open Source CFD Toolbox
   \\    /   O peration     | Website:  https://openfoam.org
    \\  /    A nd           | Version:  7
     \\/     M anipulation  |
\*---------------------------------------------------------------------------*/
FoamFile
{
    version     2.0;
    format      ascii;
    class       volScalarField;
    location    "0.00057";
    object      O2;
}
// * * * * * * * * * * * * * * * * * * * * * * * * * * * * * * * * * * * * * //

dimensions      [0 0 0 0 0 0 0];

internalField   nonuniform List<scalar> 
500
(
0.226269
0.226269
0.226269
0.226269
0.226269
0.226269
0.226269
0.226269
0.226269
0.226269
0.226269
0.226269
0.226269
0.226269
0.226269
0.226269
0.226269
0.226269
0.226269
0.226269
0.226269
0.226269
0.226269
0.226269
0.226269
0.226269
0.226269
0.226269
0.226269
0.226269
0.226269
0.226269
0.226269
0.226269
0.226269
0.226269
0.226269
0.226269
0.226269
0.226269
0.226269
0.226269
0.226269
0.226269
0.226269
0.226269
0.226269
0.226269
0.226269
0.226269
0.226269
0.226269
0.226269
0.226269
0.226269
0.226269
0.226269
0.226269
0.226269
0.226269
0.226269
0.226269
0.226269
0.226269
0.226269
0.226269
0.226269
0.226269
0.226269
0.226269
0.226269
0.226269
0.226269
0.226269
0.226269
0.226269
0.226269
0.226269
0.226269
0.226269
0.226269
0.226269
0.226269
0.226269
0.226269
0.226269
0.226269
0.226269
0.226269
0.226269
0.226269
0.226269
0.226269
0.226269
0.226269
0.226269
0.226269
0.226269
0.226269
0.226269
0.226269
0.226269
0.226269
0.226269
0.226269
0.226269
0.226269
0.226269
0.226269
0.226269
0.226269
0.226269
0.226269
0.226269
0.226269
0.226269
0.226269
0.226269
0.226269
0.226269
0.226269
0.226269
0.226269
0.226269
0.226269
0.226269
0.226269
0.226269
0.226269
0.226269
0.226269
0.226269
0.226269
0.226269
0.226269
0.226269
0.226269
0.226269
0.226269
0.226269
0.226269
0.226269
0.226269
0.226269
0.226269
0.226269
0.226269
0.226269
0.226269
0.226269
0.226269
0.226269
0.226269
0.226269
0.226269
0.226269
0.226269
0.226269
0.226269
0.226269
0.226269
0.226269
0.226269
0.226269
0.226269
0.226269
0.226269
0.226269
0.226269
0.226269
0.226269
0.226269
0.226269
0.226269
0.226269
0.226269
0.226269
0.226269
0.226269
0.226269
0.226269
0.226269
0.226269
0.226269
0.226269
0.226269
0.226269
0.226269
0.226269
0.226269
0.226269
0.226269
0.226269
0.226269
0.226269
0.226269
0.226269
0.226269
0.226269
0.226269
0.226269
0.226269
0.226269
0.226269
0.226269
0.226269
0.226269
0.226269
0.226269
0.226269
0.226269
0.226269
0.226269
0.226269
0.226269
0.226269
0.226269
0.226269
0.226269
0.226269
0.226269
0.226269
0.226269
0.226269
0.226269
0.226269
0.226269
0.226269
0.226269
0.226269
0.226269
0.226269
0.226269
0.226269
0.226269
0.226269
0.226269
0.226269
0.226269
0.226269
0.226269
0.226269
0.226269
0.226269
0.226269
0.226269
0.226269
0.226269
0.226269
0.226269
0.226269
0.226269
0.226269
0.226269
0.226269
0.226269
0.226269
0.226269
0.226269
0.226269
0.226269
0.226269
0.226269
0.226269
0.226269
0.226269
0.226269
0.226269
0.22627
0.226271
0.226273
0.226275
0.226278
0.22627
0.226201
0.225876
0.224695
0.221315
0.213754
0.20188
0.18674
0.167385
0.143387
0.117479
0.0941623
0.0764359
0.0606736
0.0515685
0.0454182
0.0412292
0.0383066
0.0361947
0.0346037
0.0333523
0.0323274
0.0314581
0.0306995
0.0300227
0.0294088
0.0288449
0.0283221
0.027834
0.0273759
0.026944
0.0265355
0.026148
0.0257796
0.0254286
0.0250936
0.0247734
0.0244671
0.0241741
0.0239023
0.0236443
0.0233946
0.0231526
0.022918
0.0226903
0.0224692
0.0222544
0.0220455
0.0218423
0.0216445
0.0214517
0.0212639
0.0210808
0.0209021
0.0207277
0.0205575
0.0203911
0.0202286
0.0200697
0.0199144
0.0197624
0.0196137
0.0194681
0.0193256
0.019186
0.0190492
0.0189152
0.0187839
0.0186551
0.0185289
0.018405
0.0182835
0.0181643
0.0180473
0.0179325
0.0178197
0.0177089
0.0176001
0.0174932
0.0173882
0.0172849
0.0171833
0.0170834
0.0169852
0.0168884
0.0167932
0.0166995
0.0166072
0.0165163
0.0164266
0.0163383
0.0162512
0.0161652
0.0160805
0.0159968
0.0159142
0.0158327
0.0157521
0.0156726
0.015594
0.0155163
0.0154395
0.0153636
0.0152887
0.0152143
0.0151407
0.0150679
0.0149959
0.0149246
0.0148541
0.0147843
0.0147152
0.0146468
0.0145791
0.014512
0.0144456
0.0143799
0.0143147
0.0142502
0.0141863
0.014123
0.0140603
0.0139981
0.0139365
0.0138754
0.0138148
0.0137547
0.0136951
0.013636
0.0135773
0.013519
0.0134611
0.0134036
0.0133464
0.0132896
0.0132331
0.0131768
0.0131208
0.013065
0.0130095
0.012954
0.0128987
0.0128435
0.0127884
0.0127333
0.0126782
0.012623
0.0125677
0.0125123
0.0124566
0.0124008
0.0123447
0.0122882
0.0122314
0.0121743
0.0121169
0.0120592
0.0120008
0.0119325
0.0118547
0.0117936
0.0117307
0.0116664
0.0116008
0.011534
0.0114659
0.0113963
0.0113252
0.0112526
0.0111784
0.0111024
0.0110248
0.0109454
0.0108641
0.010781
0.010696
0.0106091
0.0105204
0.0104297
0.0103372
0.0102428
0.0101466
0.0100487
0.00994909
0.00984787
0.00974512
0.00964096
0.0095355
0.00942887
0.00932121
0.00921269
0.00910346
0.00899371
0.00888361
0.00877336
0.00866317
0.00855325
0.0084438
0.00833505
0.00822722
0.00812052
0.00801517
0.00791139
0.00780939
0.00770939
0.00761157
0.00751614
0.00742327
0.00733313
0.0072459
0.00716171
0.00708069
0.00700298
0.00692867
0.00685785
0.0067906
0.00672697
0.006667
0.00661072
0.00655813
0.00650925
0.00646407
0.00642266
0.00638517
0.00635207
0.00632463
0.00630627
)
;

boundaryField
{
    boundary
    {
        type            empty;
    }
    inlet
    {
        type            fixedValue;
        value           uniform 0.226269;
    }
    outlet
    {
        type            zeroGradient;
    }
}


// ************************************************************************* //
