/*--------------------------------*- C++ -*----------------------------------*\
  =========                 |
  \\      /  F ield         | OpenFOAM: The Open Source CFD Toolbox
   \\    /   O peration     | Website:  https://openfoam.org
    \\  /    A nd           | Version:  7
     \\/     M anipulation  |
\*---------------------------------------------------------------------------*/
FoamFile
{
    version     2.0;
    format      ascii;
    class       volScalarField;
    location    "0.00057";
    object      Qdot;
}
// * * * * * * * * * * * * * * * * * * * * * * * * * * * * * * * * * * * * * //

dimensions      [1 -1 -3 0 0 0 0];

internalField   nonuniform List<scalar> 
500
(
-2.45044e-27
-1.85823e-27
-1.72984e-27
-1.70211e-27
-1.69666e-27
-1.69646e-27
-1.69772e-27
-1.69952e-27
-1.7016e-27
-1.70386e-27
-1.70625e-27
-1.70876e-27
-1.71141e-27
-1.71423e-27
-1.71729e-27
-1.72065e-27
-1.72439e-27
-1.72861e-27
-1.73344e-27
-1.73901e-27
-1.74547e-27
-1.75297e-27
-1.7617e-27
-1.77183e-27
-1.78355e-27
-1.79704e-27
-1.81248e-27
-1.83003e-27
-1.84982e-27
-1.87198e-27
-1.89656e-27
-1.92359e-27
-1.95306e-27
-1.98488e-27
-2.01891e-27
-2.05495e-27
-2.09273e-27
-2.13193e-27
-2.17218e-27
-2.21308e-27
-2.25417e-27
-2.29501e-27
-2.33516e-27
-2.37416e-27
-2.41164e-27
-2.44723e-27
-2.48064e-27
-2.51166e-27
-2.54011e-27
-2.56592e-27
-2.58906e-27
-2.60958e-27
-2.62758e-27
-2.64319e-27
-2.65659e-27
-2.66796e-27
-2.67752e-27
-2.68546e-27
-2.692e-27
-2.69732e-27
-2.70162e-27
-2.70506e-27
-2.70778e-27
-2.70991e-27
-2.71156e-27
-2.71284e-27
-2.71381e-27
-2.71455e-27
-2.71511e-27
-2.71552e-27
-2.71583e-27
-2.71605e-27
-2.71622e-27
-2.71634e-27
-2.71643e-27
-2.7165e-27
-2.71655e-27
-2.71658e-27
-2.71662e-27
-2.71664e-27
-2.71667e-27
-2.71669e-27
-2.71671e-27
-2.71673e-27
-2.71675e-27
-2.71677e-27
-2.71679e-27
-2.71681e-27
-2.71683e-27
-2.71686e-27
-2.71688e-27
-2.71691e-27
-2.71694e-27
-2.71697e-27
-2.717e-27
-2.71704e-27
-2.71707e-27
-2.71711e-27
-2.71715e-27
-2.71719e-27
-2.71723e-27
-2.71727e-27
-2.71732e-27
-2.71737e-27
-2.71742e-27
-2.71747e-27
-2.71753e-27
-2.71758e-27
-2.71764e-27
-2.71771e-27
-2.71777e-27
-2.71784e-27
-2.71791e-27
-2.71798e-27
-2.71805e-27
-2.71813e-27
-2.71821e-27
-2.71829e-27
-2.71838e-27
-2.71847e-27
-2.71856e-27
-2.71865e-27
-2.71875e-27
-2.71888e-27
-2.71916e-27
-2.71964e-27
-2.71954e-27
-2.71946e-27
-2.71942e-27
-2.71942e-27
-2.71947e-27
-2.71955e-27
-2.71967e-27
-2.71982e-27
-2.71997e-27
-2.72014e-27
-2.72031e-27
-2.72048e-27
-2.72064e-27
-2.72081e-27
-2.72096e-27
-2.72112e-27
-2.72127e-27
-2.72143e-27
-2.72158e-27
-2.72174e-27
-2.72189e-27
-2.72205e-27
-2.7222e-27
-2.72236e-27
-2.72252e-27
-2.72268e-27
-2.72285e-27
-2.72301e-27
-2.72318e-27
-2.72335e-27
-2.72352e-27
-2.72369e-27
-2.72387e-27
-2.72405e-27
-2.72423e-27
-2.72441e-27
-2.7246e-27
-2.72479e-27
-2.72497e-27
-2.72516e-27
-2.72536e-27
-2.72555e-27
-2.72574e-27
-2.72592e-27
-2.72611e-27
-2.72629e-27
-2.72647e-27
-2.72665e-27
-2.72681e-27
-2.72698e-27
-2.72714e-27
-2.72729e-27
-2.72743e-27
-2.72757e-27
-2.72769e-27
-2.72781e-27
-2.72792e-27
-2.72802e-27
-2.72811e-27
-2.72819e-27
-2.72825e-27
-2.72831e-27
-2.72835e-27
-2.72838e-27
-2.72839e-27
-2.72839e-27
-2.72838e-27
-2.72835e-27
-2.7283e-27
-2.72823e-27
-2.72815e-27
-2.72804e-27
-2.72792e-27
-2.72778e-27
-2.72761e-27
-2.72742e-27
-2.72721e-27
-2.72697e-27
-2.72671e-27
-2.72642e-27
-2.72611e-27
-2.72576e-27
-2.72539e-27
-2.72497e-27
-2.72449e-27
-2.72382e-27
-2.72253e-27
-2.71893e-27
-2.70663e-27
-2.66156e-27
-2.49364e-27
-1.86875e-27
4.42743e-28
8.93009e-27
3.98531e-26
1.5164e-25
5.52601e-25
1.97964e-24
7.01955e-24
2.46834e-23
8.61255e-23
2.98255e-22
1.02527e-21
3.4989e-21
1.18559e-20
3.98944e-20
1.33334e-19
4.42704e-19
1.46059e-18
4.78968e-18
1.56162e-17
5.06396e-17
1.63386e-16
5.24735e-16
1.67836e-15
5.34933e-15
1.70016e-14
5.393e-14
1.70922e-13
5.42019e-13
1.72311e-12
5.50549e-12
1.77388e-11
5.78859e-11
1.92321e-10
6.57545e-10
2.31045e-09
8.39192e-09
3.16439e-08
1.23929e-07
5.02738e-07
2.10242e-06
9.01225e-06
3.93778e-05
0.000174544
0.000781897
0.00353021
0.0160372
0.0732492
0.336438
1.55586
7.26257
34.6705
180.968
1095.98
7723.93
59545.1
521857
4.90429e+06
4.64849e+07
3.98645e+08
2.39536e+09
7.55639e+09
1.23348e+10
1.37841e+10
1.39218e+10
1.39295e+10
1.34807e+10
1.22261e+10
1.03625e+10
8.39281e+09
6.82462e+09
5.66358e+09
4.77657e+09
4.09866e+09
3.57213e+09
3.15509e+09
2.81815e+09
2.54085e+09
2.30894e+09
2.11221e+09
1.94329e+09
1.79673e+09
1.66844e+09
1.55525e+09
1.45471e+09
1.36485e+09
1.28413e+09
1.21125e+09
1.14518e+09
1.08504e+09
1.03009e+09
9.79738e+08
9.33459e+08
8.90828e+08
8.51537e+08
8.16198e+08
7.83863e+08
7.53466e+08
7.24949e+08
6.98128e+08
6.72864e+08
6.49021e+08
6.26494e+08
6.05183e+08
5.84995e+08
5.65851e+08
5.47674e+08
5.304e+08
5.13965e+08
4.98315e+08
4.83396e+08
4.69163e+08
4.55572e+08
4.42583e+08
4.30159e+08
4.18268e+08
4.06877e+08
3.95958e+08
3.85484e+08
3.7543e+08
3.65773e+08
3.56491e+08
3.47565e+08
3.38976e+08
3.30706e+08
3.2274e+08
3.15061e+08
3.07657e+08
3.00512e+08
2.93615e+08
2.86955e+08
2.8052e+08
2.74299e+08
2.68283e+08
2.62463e+08
2.56829e+08
2.51374e+08
2.4609e+08
2.4097e+08
2.36006e+08
2.31192e+08
2.26522e+08
2.2199e+08
2.1759e+08
2.13317e+08
2.09166e+08
2.05132e+08
2.0121e+08
1.97398e+08
1.93689e+08
1.9008e+08
1.86569e+08
1.8315e+08
1.79821e+08
1.76579e+08
1.73421e+08
1.70345e+08
1.67349e+08
1.64433e+08
1.61585e+08
1.58801e+08
1.56081e+08
1.53427e+08
1.50836e+08
1.48306e+08
1.45835e+08
1.43422e+08
1.41064e+08
1.3876e+08
1.36508e+08
1.34307e+08
1.32155e+08
1.3005e+08
1.27992e+08
1.25979e+08
1.2401e+08
1.22082e+08
1.20197e+08
1.18351e+08
1.16544e+08
1.14775e+08
1.13042e+08
1.11346e+08
1.09684e+08
1.08057e+08
1.06462e+08
1.049e+08
1.03368e+08
1.01868e+08
1.00396e+08
9.89543e+07
9.75403e+07
9.61538e+07
9.47941e+07
9.34605e+07
9.21523e+07
9.08688e+07
8.96098e+07
8.83745e+07
8.71622e+07
8.59726e+07
8.48049e+07
8.36588e+07
8.25338e+07
8.14293e+07
8.03449e+07
7.92801e+07
7.82347e+07
7.72084e+07
7.6202e+07
7.52186e+07
7.42691e+07
7.34079e+07
7.26543e+07
7.10539e+07
7.016e+07
6.93289e+07
6.8471e+07
6.76114e+07
6.67577e+07
6.5913e+07
6.50785e+07
6.42544e+07
6.34407e+07
6.26369e+07
6.18428e+07
6.10579e+07
6.02805e+07
5.95125e+07
5.8752e+07
5.79985e+07
5.72516e+07
5.65107e+07
5.57755e+07
5.50453e+07
5.43196e+07
5.35979e+07
5.28792e+07
5.21639e+07
5.14508e+07
5.07396e+07
5.00296e+07
4.93203e+07
4.86114e+07
4.79022e+07
4.71924e+07
4.64814e+07
4.57689e+07
4.50545e+07
4.43379e+07
4.36187e+07
4.28968e+07
4.21718e+07
4.14436e+07
4.07121e+07
3.99773e+07
3.92391e+07
3.84974e+07
3.77525e+07
3.70045e+07
3.62534e+07
3.54996e+07
3.47434e+07
3.39848e+07
3.32245e+07
3.24627e+07
3.16998e+07
3.09363e+07
3.01727e+07
2.94095e+07
2.86472e+07
2.78865e+07
2.71278e+07
2.63718e+07
2.56188e+07
2.48696e+07
2.41241e+07
2.33827e+07
2.26444e+07
2.19079e+07
2.11764e+07
2.04718e+07
1.9915e+07
)
;

boundaryField
{
    boundary
    {
        type            empty;
    }
    inlet
    {
        type            calculated;
        value           uniform 0;
    }
    outlet
    {
        type            calculated;
        value           uniform 0;
    }
}


// ************************************************************************* //
