/*--------------------------------*- C++ -*----------------------------------*\
  =========                 |
  \\      /  F ield         | OpenFOAM: The Open Source CFD Toolbox
   \\    /   O peration     | Website:  https://openfoam.org
    \\  /    A nd           | Version:  7
     \\/     M anipulation  |
\*---------------------------------------------------------------------------*/
FoamFile
{
    version     2.0;
    format      ascii;
    class       volScalarField;
    location    "0.00057";
    object      rho;
}
// * * * * * * * * * * * * * * * * * * * * * * * * * * * * * * * * * * * * * //

dimensions      [1 -3 0 0 0 0 0];

internalField   nonuniform List<scalar> 
500
(
0.865242
0.865255
0.865263
0.865266
0.865264
0.865258
0.86525
0.865239
0.865228
0.865215
0.865202
0.865188
0.865173
0.865157
0.86514
0.865121
0.8651
0.865077
0.86505
0.865019
0.864984
0.864943
0.864895
0.86484
0.864777
0.864705
0.864624
0.864532
0.864429
0.864315
0.864191
0.864055
0.86391
0.863756
0.863593
0.863424
0.86325
0.863072
0.862893
0.862714
0.862538
0.862366
0.862199
0.86204
0.861889
0.861748
0.861617
0.861497
0.861388
0.861291
0.861203
0.861127
0.86106
0.861002
0.860953
0.860911
0.860876
0.860847
0.860823
0.860803
0.860788
0.860775
0.860765
0.860757
0.860751
0.860746
0.860743
0.86074
0.860738
0.860736
0.860735
0.860734
0.860734
0.860733
0.860733
0.860733
0.860732
0.860732
0.860732
0.860732
0.860732
0.860732
0.860732
0.860732
0.860731
0.860731
0.860731
0.860731
0.860731
0.860731
0.860731
0.860731
0.86073
0.86073
0.86073
0.86073
0.86073
0.86073
0.860729
0.860729
0.860729
0.860729
0.860729
0.860728
0.860728
0.860728
0.860728
0.860728
0.860727
0.860727
0.860727
0.860726
0.860726
0.860726
0.860726
0.860725
0.860725
0.860725
0.860724
0.860724
0.860724
0.860723
0.860723
0.860722
0.860721
0.860719
0.86072
0.86072
0.86072
0.86072
0.86072
0.860719
0.860719
0.860718
0.860718
0.860717
0.860716
0.860716
0.860715
0.860715
0.860714
0.860713
0.860713
0.860712
0.860712
0.860711
0.86071
0.86071
0.860709
0.860708
0.860708
0.860707
0.860707
0.860706
0.860705
0.860705
0.860704
0.860703
0.860703
0.860702
0.860701
0.8607
0.8607
0.860699
0.860698
0.860698
0.860697
0.860696
0.860695
0.860695
0.860694
0.860693
0.860692
0.860692
0.860691
0.86069
0.86069
0.860689
0.860689
0.860688
0.860688
0.860687
0.860687
0.860686
0.860686
0.860685
0.860685
0.860685
0.860685
0.860684
0.860684
0.860684
0.860684
0.860684
0.860684
0.860684
0.860685
0.860685
0.860685
0.860686
0.860686
0.860687
0.860687
0.860688
0.860689
0.86069
0.860691
0.860692
0.860693
0.860695
0.860696
0.860698
0.860699
0.860701
0.860703
0.860705
0.860707
0.860709
0.860712
0.860714
0.860717
0.86072
0.860723
0.860726
0.860729
0.860733
0.860736
0.86074
0.860744
0.860748
0.860752
0.860756
0.860761
0.860765
0.86077
0.860775
0.86078
0.860786
0.860791
0.860797
0.860803
0.860809
0.860815
0.860821
0.860827
0.860834
0.860841
0.860848
0.860855
0.860862
0.860869
0.860876
0.860884
0.860892
0.8609
0.860908
0.860917
0.860925
0.860933
0.860941
0.860949
0.860958
0.860966
0.860975
0.860984
0.860994
0.861003
0.861012
0.861013
0.860987
0.860873
0.860479
0.859232
0.855457
0.844436
0.814159
0.74271
0.620834
0.487806
0.3869
0.320877
0.276892
0.245995
0.223958
0.208577
0.197165
0.188267
0.18184
0.177064
0.173201
0.170014
0.167327
0.165022
0.163015
0.161248
0.159675
0.158263
0.156986
0.155825
0.154762
0.153786
0.152884
0.152048
0.15127
0.150544
0.149865
0.149228
0.148629
0.148064
0.14753
0.147026
0.146549
0.14611
0.145699
0.145304
0.144925
0.144561
0.144211
0.143874
0.143548
0.143235
0.142932
0.142639
0.142357
0.142083
0.141818
0.141561
0.141312
0.14107
0.140836
0.140608
0.140387
0.140171
0.139962
0.139758
0.13956
0.139366
0.139178
0.138994
0.138814
0.138639
0.138468
0.138301
0.138138
0.137978
0.137822
0.13767
0.13752
0.137374
0.137231
0.13709
0.136953
0.136818
0.136686
0.136557
0.13643
0.136305
0.136183
0.136063
0.135946
0.13583
0.135716
0.135605
0.135495
0.135387
0.135282
0.135178
0.135075
0.134975
0.134876
0.134778
0.134683
0.134588
0.134496
0.134404
0.134315
0.134226
0.134139
0.134053
0.133969
0.133886
0.133803
0.133723
0.133643
0.133564
0.133487
0.13341
0.133335
0.13326
0.133187
0.133114
0.133043
0.132972
0.132902
0.132833
0.132765
0.132698
0.132632
0.132566
0.132501
0.132437
0.132374
0.132311
0.132249
0.132188
0.132127
0.132067
0.132008
0.131949
0.131891
0.131833
0.131776
0.13172
0.131664
0.131609
0.131555
0.131501
0.131447
0.131394
0.131342
0.131291
0.13124
0.131189
0.131139
0.13109
0.131042
0.130994
0.130947
0.1309
0.130855
0.130806
0.13076
0.130702
0.130659
0.130616
0.130574
0.130532
0.130491
0.130451
0.130412
0.130374
0.130336
0.130299
0.130262
0.130227
0.130192
0.130158
0.130124
0.130092
0.130059
0.130027
0.129996
0.129965
0.129935
0.129904
0.129874
0.129843
0.129813
0.129782
0.12975
0.129718
0.129685
0.129651
0.129616
0.12958
0.129541
0.129501
0.129459
0.129415
0.129368
0.129318
0.129265
0.129209
0.12915
0.129088
0.129021
0.128951
0.128878
0.1288
0.128718
0.128633
0.128543
0.12845
0.128352
0.128251
0.128147
0.128039
0.127928
0.127814
0.127698
0.127579
0.127458
0.127336
0.127212
0.127088
0.126964
0.126843
0.126727
0.126626
0.126557
)
;

boundaryField
{
    boundary
    {
        type            empty;
    }
    inlet
    {
        type            calculated;
        value           uniform 0.865228;
    }
    outlet
    {
        type            calculated;
        value           uniform 0.126557;
    }
}


// ************************************************************************* //
