/*--------------------------------*- C++ -*----------------------------------*\
  =========                 |
  \\      /  F ield         | OpenFOAM: The Open Source CFD Toolbox
   \\    /   O peration     | Website:  https://openfoam.org
    \\  /    A nd           | Version:  7
     \\/     M anipulation  |
\*---------------------------------------------------------------------------*/
FoamFile
{
    version     2.0;
    format      ascii;
    class       volScalarField;
    location    "0.00057";
    object      T;
}
// * * * * * * * * * * * * * * * * * * * * * * * * * * * * * * * * * * * * * //

dimensions      [0 0 0 1 0 0 0];

internalField   nonuniform List<scalar> 
500
(
299.995
299.99
299.988
299.987
299.988
299.99
299.992
299.996
300
300.004
300.009
300.014
300.019
300.025
300.031
300.037
300.044
300.052
300.062
300.072
300.085
300.099
300.115
300.134
300.156
300.181
300.21
300.242
300.277
300.317
300.36
300.407
300.457
300.511
300.568
300.627
300.687
300.749
300.812
300.874
300.935
300.996
301.054
301.109
301.162
301.211
301.257
301.299
301.337
301.371
301.402
301.429
301.452
301.472
301.489
301.504
301.516
301.526
301.535
301.542
301.547
301.552
301.555
301.558
301.56
301.562
301.563
301.564
301.565
301.565
301.565
301.566
301.566
301.566
301.566
301.566
301.566
301.566
301.566
301.567
301.567
301.567
301.567
301.567
301.567
301.567
301.567
301.567
301.567
301.567
301.567
301.567
301.567
301.567
301.567
301.567
301.567
301.567
301.567
301.567
301.567
301.567
301.567
301.567
301.567
301.568
301.568
301.568
301.568
301.568
301.568
301.568
301.568
301.568
301.568
301.568
301.568
301.569
301.569
301.569
301.569
301.569
301.569
301.569
301.57
301.57
301.57
301.57
301.57
301.57
301.57
301.57
301.57
301.57
301.571
301.571
301.571
301.571
301.571
301.572
301.572
301.572
301.572
301.572
301.573
301.573
301.573
301.573
301.573
301.574
301.574
301.574
301.574
301.574
301.575
301.575
301.575
301.575
301.575
301.576
301.576
301.576
301.576
301.577
301.577
301.577
301.577
301.578
301.578
301.578
301.578
301.578
301.579
301.579
301.579
301.579
301.579
301.58
301.58
301.58
301.58
301.58
301.58
301.581
301.581
301.581
301.581
301.581
301.581
301.581
301.581
301.581
301.581
301.581
301.581
301.581
301.581
301.581
301.58
301.58
301.58
301.58
301.58
301.579
301.579
301.579
301.578
301.578
301.577
301.577
301.576
301.576
301.575
301.575
301.574
301.573
301.572
301.571
301.571
301.57
301.569
301.568
301.567
301.566
301.564
301.563
301.562
301.56
301.559
301.558
301.556
301.555
301.553
301.551
301.55
301.548
301.546
301.544
301.542
301.54
301.538
301.536
301.534
301.532
301.529
301.527
301.525
301.522
301.52
301.517
301.515
301.512
301.509
301.506
301.503
301.5
301.498
301.495
301.492
301.489
301.486
301.483
301.48
301.477
301.474
301.471
301.469
301.469
301.474
301.495
301.56
301.749
302.293
303.847
308.266
320.652
353.342
426.208
548.317
699.654
853.83
1000.55
1136.74
1257.39
1356.97
1441.13
1512.79
1569.91
1615.58
1654.69
1688.57
1718.36
1744.88
1768.71
1790.31
1810.04
1828.16
1844.89
1860.41
1874.86
1888.36
1901.02
1912.92
1924.14
1934.75
1944.79
1954.32
1963.37
1971.99
1980.21
1988.05
1995.53
2002.48
2009.02
2015.35
2021.46
2027.38
2033.11
2038.66
2044.04
2049.26
2054.33
2059.25
2064.04
2068.69
2073.22
2077.63
2081.93
2086.12
2090.2
2094.18
2098.07
2101.87
2105.57
2109.2
2112.74
2116.2
2119.59
2122.91
2126.16
2129.34
2132.45
2135.5
2138.5
2141.43
2144.31
2147.14
2149.91
2152.63
2155.3
2157.93
2160.51
2163.04
2165.53
2167.98
2170.39
2172.75
2175.08
2177.37
2179.63
2181.85
2184.03
2186.18
2188.3
2190.38
2192.43
2194.45
2196.44
2198.41
2200.34
2202.24
2204.12
2205.97
2207.79
2209.59
2211.36
2213.11
2214.83
2216.53
2218.21
2219.86
2221.5
2223.11
2224.7
2226.27
2227.82
2229.35
2230.87
2232.36
2233.84
2235.3
2236.74
2238.16
2239.57
2240.96
2242.34
2243.69
2245.04
2246.37
2247.68
2248.98
2250.26
2251.54
2252.79
2254.04
2255.27
2256.48
2257.68
2258.87
2260.05
2261.22
2262.37
2263.51
2264.63
2265.75
2266.85
2267.94
2269.01
2270.07
2271.12
2272.16
2273.18
2274.18
2275.18
2276.15
2277.12
2278.06
2278.99
2279.91
2280.79
2281.74
2282.63
2283.72
2284.55
2285.37
2286.17
2286.96
2287.72
2288.47
2289.2
2289.91
2290.59
2291.26
2291.91
2292.54
2293.15
2293.74
2294.31
2294.87
2295.4
2295.93
2296.43
2296.92
2297.41
2297.88
2298.34
2298.8
2299.26
2299.71
2300.17
2300.64
2301.12
2301.61
2302.12
2302.66
2303.22
2303.81
2304.44
2305.11
2305.83
2306.59
2307.41
2308.29
2309.23
2310.24
2311.32
2312.48
2313.71
2315.01
2316.4
2317.87
2319.42
2321.06
2322.77
2324.57
2326.44
2328.39
2330.41
2332.49
2334.64
2336.85
2339.1
2341.4
2343.73
2346.08
2348.42
2350.73
2352.91
2354.82
2356.12
)
;

boundaryField
{
    boundary
    {
        type            empty;
    }
    inlet
    {
        type            fixedValue;
        value           uniform 300;
    }
    outlet
    {
        type            zeroGradient;
    }
}


// ************************************************************************* //
