/*--------------------------------*- C++ -*----------------------------------*\
  =========                 |
  \\      /  F ield         | OpenFOAM: The Open Source CFD Toolbox
   \\    /   O peration     | Website:  https://openfoam.org
    \\  /    A nd           | Version:  7
     \\/     M anipulation  |
\*---------------------------------------------------------------------------*/
FoamFile
{
    version     2.0;
    format      ascii;
    class       volVectorField;
    location    "0.00057";
    object      U;
}
// * * * * * * * * * * * * * * * * * * * * * * * * * * * * * * * * * * * * * //

dimensions      [0 1 -1 0 0 0 0];

internalField   nonuniform List<vector> 
500
(
(2.34898 0 0)
(2.3492 0 0)
(2.34942 0 0)
(2.34963 0 0)
(2.34982 0 0)
(2.35001 0 0)
(2.3502 0 0)
(2.35039 0 0)
(2.35058 0 0)
(2.35076 0 0)
(2.35095 0 0)
(2.35113 0 0)
(2.35132 0 0)
(2.35151 0 0)
(2.35169 0 0)
(2.35188 0 0)
(2.35207 0 0)
(2.35227 0 0)
(2.35246 0 0)
(2.35266 0 0)
(2.35285 0 0)
(2.35306 0 0)
(2.35326 0 0)
(2.35347 0 0)
(2.35368 0 0)
(2.35389 0 0)
(2.3541 0 0)
(2.35432 0 0)
(2.35453 0 0)
(2.35475 0 0)
(2.35496 0 0)
(2.35518 0 0)
(2.35539 0 0)
(2.3556 0 0)
(2.35581 0 0)
(2.35601 0 0)
(2.3562 0 0)
(2.35639 0 0)
(2.35658 0 0)
(2.35676 0 0)
(2.35693 0 0)
(2.3571 0 0)
(2.35726 0 0)
(2.35742 0 0)
(2.35758 0 0)
(2.35773 0 0)
(2.35788 0 0)
(2.35803 0 0)
(2.35818 0 0)
(2.35833 0 0)
(2.35849 0 0)
(2.35864 0 0)
(2.35879 0 0)
(2.35895 0 0)
(2.35911 0 0)
(2.35927 0 0)
(2.35943 0 0)
(2.3596 0 0)
(2.35977 0 0)
(2.35994 0 0)
(2.36011 0 0)
(2.36028 0 0)
(2.36046 0 0)
(2.36064 0 0)
(2.36082 0 0)
(2.36099 0 0)
(2.36117 0 0)
(2.36135 0 0)
(2.36153 0 0)
(2.36172 0 0)
(2.3619 0 0)
(2.36208 0 0)
(2.36226 0 0)
(2.36244 0 0)
(2.36262 0 0)
(2.36281 0 0)
(2.36299 0 0)
(2.36317 0 0)
(2.36335 0 0)
(2.36354 0 0)
(2.36372 0 0)
(2.3639 0 0)
(2.36408 0 0)
(2.36426 0 0)
(2.36444 0 0)
(2.36463 0 0)
(2.36481 0 0)
(2.36499 0 0)
(2.36517 0 0)
(2.36535 0 0)
(2.36554 0 0)
(2.36572 0 0)
(2.3659 0 0)
(2.36608 0 0)
(2.36626 0 0)
(2.36644 0 0)
(2.36662 0 0)
(2.36681 0 0)
(2.36699 0 0)
(2.36717 0 0)
(2.36735 0 0)
(2.36753 0 0)
(2.36771 0 0)
(2.36789 0 0)
(2.36807 0 0)
(2.36826 0 0)
(2.36844 0 0)
(2.36862 0 0)
(2.3688 0 0)
(2.36898 0 0)
(2.36916 0 0)
(2.36934 0 0)
(2.36952 0 0)
(2.3697 0 0)
(2.36988 0 0)
(2.37006 0 0)
(2.37024 0 0)
(2.37043 0 0)
(2.37061 0 0)
(2.37079 0 0)
(2.37097 0 0)
(2.37115 0 0)
(2.37133 0 0)
(2.37151 0 0)
(2.3717 0 0)
(2.37189 0 0)
(2.37205 0 0)
(2.37223 0 0)
(2.37241 0 0)
(2.3726 0 0)
(2.37278 0 0)
(2.37295 0 0)
(2.37313 0 0)
(2.37331 0 0)
(2.37349 0 0)
(2.37367 0 0)
(2.37385 0 0)
(2.37403 0 0)
(2.37421 0 0)
(2.37439 0 0)
(2.37456 0 0)
(2.37474 0 0)
(2.37492 0 0)
(2.3751 0 0)
(2.37528 0 0)
(2.37546 0 0)
(2.37563 0 0)
(2.37581 0 0)
(2.37599 0 0)
(2.37617 0 0)
(2.37635 0 0)
(2.37653 0 0)
(2.3767 0 0)
(2.37688 0 0)
(2.37706 0 0)
(2.37724 0 0)
(2.37741 0 0)
(2.37759 0 0)
(2.37777 0 0)
(2.37795 0 0)
(2.37812 0 0)
(2.3783 0 0)
(2.37848 0 0)
(2.37866 0 0)
(2.37883 0 0)
(2.37901 0 0)
(2.37919 0 0)
(2.37936 0 0)
(2.37954 0 0)
(2.37972 0 0)
(2.37989 0 0)
(2.38007 0 0)
(2.38025 0 0)
(2.38042 0 0)
(2.3806 0 0)
(2.38077 0 0)
(2.38095 0 0)
(2.38113 0 0)
(2.3813 0 0)
(2.38148 0 0)
(2.38165 0 0)
(2.38183 0 0)
(2.382 0 0)
(2.38218 0 0)
(2.38236 0 0)
(2.38253 0 0)
(2.38271 0 0)
(2.38288 0 0)
(2.38306 0 0)
(2.38323 0 0)
(2.3834 0 0)
(2.38358 0 0)
(2.38375 0 0)
(2.38393 0 0)
(2.3841 0 0)
(2.38428 0 0)
(2.38445 0 0)
(2.38462 0 0)
(2.3848 0 0)
(2.38497 0 0)
(2.38515 0 0)
(2.38532 0 0)
(2.38549 0 0)
(2.38567 0 0)
(2.38584 0 0)
(2.38601 0 0)
(2.38619 0 0)
(2.38636 0 0)
(2.38653 0 0)
(2.3867 0 0)
(2.38688 0 0)
(2.38705 0 0)
(2.38722 0 0)
(2.38739 0 0)
(2.38757 0 0)
(2.38774 0 0)
(2.38791 0 0)
(2.38808 0 0)
(2.38825 0 0)
(2.38843 0 0)
(2.3886 0 0)
(2.38877 0 0)
(2.38894 0 0)
(2.38911 0 0)
(2.38928 0 0)
(2.38945 0 0)
(2.38962 0 0)
(2.38979 0 0)
(2.38997 0 0)
(2.39014 0 0)
(2.39031 0 0)
(2.39048 0 0)
(2.39065 0 0)
(2.39082 0 0)
(2.39099 0 0)
(2.39116 0 0)
(2.39133 0 0)
(2.3915 0 0)
(2.39167 0 0)
(2.39184 0 0)
(2.39201 0 0)
(2.39218 0 0)
(2.39234 0 0)
(2.39251 0 0)
(2.39268 0 0)
(2.39285 0 0)
(2.39302 0 0)
(2.39319 0 0)
(2.39336 0 0)
(2.39353 0 0)
(2.39371 0 0)
(2.39388 0 0)
(2.39403 0 0)
(2.3942 0 0)
(2.39437 0 0)
(2.39454 0 0)
(2.39471 0 0)
(2.39488 0 0)
(2.39504 0 0)
(2.39521 0 0)
(2.39538 0 0)
(2.39554 0 0)
(2.39571 0 0)
(2.39588 0 0)
(2.39604 0 0)
(2.39621 0 0)
(2.39637 0 0)
(2.39655 0 0)
(2.39675 0 0)
(2.39704 0 0)
(2.39767 0 0)
(2.39931 0 0)
(2.40401 0 0)
(2.4172 0 0)
(2.45165 0 0)
(2.53501 0 0)
(2.72744 0 0)
(3.13915 0 0)
(3.94631 0 0)
(5.08397 0 0)
(6.32443 0 0)
(7.49012 0 0)
(8.52245 0 0)
(9.40902 0 0)
(10.1473 0 0)
(10.7577 0 0)
(11.2653 0 0)
(11.6764 0 0)
(12.003 0 0)
(12.2713 0 0)
(12.5016 0 0)
(12.7037 0 0)
(12.8826 0 0)
(13.0425 0 0)
(13.1866 0 0)
(13.3174 0 0)
(13.4371 0 0)
(13.5472 0 0)
(13.6489 0 0)
(13.7433 0 0)
(13.8312 0 0)
(13.9134 0 0)
(13.9905 0 0)
(14.0629 0 0)
(14.1312 0 0)
(14.1957 0 0)
(14.2568 0 0)
(14.3147 0 0)
(14.3698 0 0)
(14.4221 0 0)
(14.472 0 0)
(14.5195 0 0)
(14.5636 0 0)
(14.6049 0 0)
(14.6449 0 0)
(14.6835 0 0)
(14.7208 0 0)
(14.7569 0 0)
(14.7918 0 0)
(14.8256 0 0)
(14.8584 0 0)
(14.8902 0 0)
(14.921 0 0)
(14.9509 0 0)
(14.98 0 0)
(15.0083 0 0)
(15.0358 0 0)
(15.0626 0 0)
(15.0887 0 0)
(15.1141 0 0)
(15.1389 0 0)
(15.163 0 0)
(15.1866 0 0)
(15.2096 0 0)
(15.2321 0 0)
(15.254 0 0)
(15.2755 0 0)
(15.2964 0 0)
(15.3169 0 0)
(15.337 0 0)
(15.3566 0 0)
(15.3759 0 0)
(15.3947 0 0)
(15.4131 0 0)
(15.4312 0 0)
(15.4489 0 0)
(15.4663 0 0)
(15.4833 0 0)
(15.5 0 0)
(15.5165 0 0)
(15.5326 0 0)
(15.5484 0 0)
(15.5639 0 0)
(15.5791 0 0)
(15.5941 0 0)
(15.6088 0 0)
(15.6233 0 0)
(15.6375 0 0)
(15.6515 0 0)
(15.6653 0 0)
(15.6788 0 0)
(15.6921 0 0)
(15.7052 0 0)
(15.7181 0 0)
(15.7308 0 0)
(15.7433 0 0)
(15.7556 0 0)
(15.7678 0 0)
(15.7797 0 0)
(15.7915 0 0)
(15.8031 0 0)
(15.8145 0 0)
(15.8258 0 0)
(15.8369 0 0)
(15.8478 0 0)
(15.8586 0 0)
(15.8692 0 0)
(15.8799 0 0)
(15.8904 0 0)
(15.9005 0 0)
(15.9106 0 0)
(15.9206 0 0)
(15.9304 0 0)
(15.9401 0 0)
(15.9498 0 0)
(15.9592 0 0)
(15.9686 0 0)
(15.9779 0 0)
(15.987 0 0)
(15.996 0 0)
(16.0049 0 0)
(16.0138 0 0)
(16.0225 0 0)
(16.0311 0 0)
(16.0396 0 0)
(16.048 0 0)
(16.0563 0 0)
(16.0645 0 0)
(16.0727 0 0)
(16.0807 0 0)
(16.0887 0 0)
(16.0965 0 0)
(16.1043 0 0)
(16.112 0 0)
(16.1196 0 0)
(16.1272 0 0)
(16.1346 0 0)
(16.142 0 0)
(16.1493 0 0)
(16.1566 0 0)
(16.1637 0 0)
(16.1708 0 0)
(16.1778 0 0)
(16.1848 0 0)
(16.1916 0 0)
(16.1984 0 0)
(16.2052 0 0)
(16.2119 0 0)
(16.2185 0 0)
(16.225 0 0)
(16.2315 0 0)
(16.2379 0 0)
(16.2443 0 0)
(16.2505 0 0)
(16.2568 0 0)
(16.2629 0 0)
(16.2691 0 0)
(16.2751 0 0)
(16.2811 0 0)
(16.287 0 0)
(16.2934 0 0)
(16.2988 0 0)
(16.304 0 0)
(16.3103 0 0)
(16.3161 0 0)
(16.3217 0 0)
(16.3272 0 0)
(16.3327 0 0)
(16.3382 0 0)
(16.3436 0 0)
(16.349 0 0)
(16.3543 0 0)
(16.3596 0 0)
(16.3648 0 0)
(16.37 0 0)
(16.3752 0 0)
(16.3803 0 0)
(16.3853 0 0)
(16.3904 0 0)
(16.3954 0 0)
(16.4003 0 0)
(16.4053 0 0)
(16.4102 0 0)
(16.415 0 0)
(16.4199 0 0)
(16.4247 0 0)
(16.4295 0 0)
(16.4343 0 0)
(16.439 0 0)
(16.4438 0 0)
(16.4485 0 0)
(16.4532 0 0)
(16.4579 0 0)
(16.4626 0 0)
(16.4672 0 0)
(16.4719 0 0)
(16.4765 0 0)
(16.4811 0 0)
(16.4857 0 0)
(16.4903 0 0)
(16.4948 0 0)
(16.4994 0 0)
(16.5039 0 0)
(16.5084 0 0)
(16.5128 0 0)
(16.5172 0 0)
(16.5216 0 0)
(16.5259 0 0)
(16.5302 0 0)
(16.5344 0 0)
(16.5385 0 0)
(16.5426 0 0)
(16.5465 0 0)
(16.5504 0 0)
(16.5543 0 0)
(16.558 0 0)
(16.5616 0 0)
(16.5651 0 0)
(16.5685 0 0)
(16.5718 0 0)
(16.5751 0 0)
(16.5782 0 0)
(16.5812 0 0)
(16.5841 0 0)
(16.5868 0 0)
(16.5894 0 0)
(16.5916 0 0)
(16.5927 0 0)
(16.5909 0 0)
(16.5824 0 0)
)
;

boundaryField
{
    boundary
    {
        type            empty;
    }
    inlet
    {
        type            fixedValue;
        value           uniform (2.34893 0 0);
    }
    outlet
    {
        type            zeroGradient;
    }
}


// ************************************************************************* //
