/*--------------------------------*- C++ -*----------------------------------*\
  =========                 |
  \\      /  F ield         | OpenFOAM: The Open Source CFD Toolbox
   \\    /   O peration     | Website:  https://openfoam.org
    \\  /    A nd           | Version:  7
     \\/     M anipulation  |
\*---------------------------------------------------------------------------*/
FoamFile
{
    version     2.0;
    format      ascii;
    class       volScalarField;
    location    "2e-05";
    object      H;
}
// * * * * * * * * * * * * * * * * * * * * * * * * * * * * * * * * * * * * * //

dimensions      [0 0 0 0 0 0 0];

internalField   nonuniform List<scalar> 
126
(
2.50969e-41
2.50831e-41
2.50805e-41
2.50817e-41
2.50833e-41
2.50843e-41
2.50844e-41
2.50836e-41
2.50819e-41
2.50793e-41
2.50757e-41
2.50713e-41
2.50659e-41
2.50597e-41
2.50526e-41
2.50446e-41
2.50358e-41
2.50262e-41
2.50157e-41
2.50045e-41
2.49925e-41
2.49798e-41
2.49664e-41
2.49522e-41
2.49374e-41
2.4922e-41
2.4906e-41
2.48893e-41
2.48722e-41
2.48545e-41
2.48363e-41
2.48177e-41
2.47986e-41
2.47792e-41
2.47595e-41
2.47394e-41
2.4719e-41
2.46984e-41
2.46776e-41
2.46567e-41
2.46356e-41
2.46144e-41
2.45932e-41
2.45719e-41
2.45507e-41
2.45295e-41
2.45083e-41
2.44873e-41
2.44665e-41
2.44458e-41
2.44253e-41
2.44051e-41
2.43851e-41
2.43654e-41
2.43461e-41
2.4327e-41
2.43083e-41
2.42901e-41
2.42722e-41
2.42547e-41
2.42376e-41
2.4221e-41
2.42048e-41
2.41891e-41
2.41739e-41
2.41591e-41
2.41448e-41
2.4131e-41
2.41177e-41
2.41048e-41
2.40924e-41
2.40804e-41
2.40689e-41
2.40578e-41
2.40472e-41
2.40369e-41
2.40271e-41
2.40176e-41
2.40085e-41
2.39997e-41
2.39912e-41
2.3983e-41
2.39751e-41
2.39674e-41
2.396e-41
2.39527e-41
2.39456e-41
2.39387e-41
2.39318e-41
2.39251e-41
2.39184e-41
2.39118e-41
2.39051e-41
2.38985e-41
2.38919e-41
2.38851e-41
2.38783e-41
2.38715e-41
2.38645e-41
2.38573e-41
2.38501e-41
2.38426e-41
2.3835e-41
2.38273e-41
2.38195e-41
2.38128e-41
2.38127e-41
2.38495e-41
2.40888e-41
2.54315e-41
3.27773e-41
7.27814e-41
2.90741e-40
1.48138e-39
8.0134e-39
4.40592e-38
2.44427e-37
1.36772e-36
7.72437e-36
4.405e-35
2.5366e-34
1.4742e-33
8.63778e-33
5.09472e-32
3.01888e-31
1.79286e-30
)
;

boundaryField
{
    boundary
    {
        type            empty;
    }
    inlet
    {
        type            fixedValue;
        value           nonuniform 0();
    }
    outlet
    {
        type            zeroGradient;
    }
    procBoundary3to1
    {
        type            processor;
        value           uniform 9.78079e-30;
    }
    procBoundary3to2
    {
        type            processor;
        value           uniform 2.50805e-41;
    }
}


// ************************************************************************* //
