/*--------------------------------*- C++ -*----------------------------------*\
  =========                 |
  \\      /  F ield         | OpenFOAM: The Open Source CFD Toolbox
   \\    /   O peration     | Website:  https://openfoam.org
    \\  /    A nd           | Version:  7
     \\/     M anipulation  |
\*---------------------------------------------------------------------------*/
FoamFile
{
    version     2.0;
    format      ascii;
    class       volScalarField;
    location    "2e-05";
    object      H2O;
}
// * * * * * * * * * * * * * * * * * * * * * * * * * * * * * * * * * * * * * //

dimensions      [0 0 0 0 0 0 0];

internalField   nonuniform List<scalar> 
126
(
1.33284e-47
1.38756e-47
1.41733e-47
1.4335e-47
1.4416e-47
1.44549e-47
1.44752e-47
1.44885e-47
1.44994e-47
1.45096e-47
1.45196e-47
1.45296e-47
1.45396e-47
1.45497e-47
1.45597e-47
1.45698e-47
1.45799e-47
1.459e-47
1.46001e-47
1.46103e-47
1.46204e-47
1.46305e-47
1.46407e-47
1.46508e-47
1.4661e-47
1.46711e-47
1.46812e-47
1.46913e-47
1.47014e-47
1.47115e-47
1.47215e-47
1.47315e-47
1.47415e-47
1.47514e-47
1.47613e-47
1.47712e-47
1.4781e-47
1.47908e-47
1.48005e-47
1.48101e-47
1.48197e-47
1.48292e-47
1.48387e-47
1.4848e-47
1.48573e-47
1.48665e-47
1.48757e-47
1.48847e-47
1.48936e-47
1.49024e-47
1.49112e-47
1.49198e-47
1.49283e-47
1.49366e-47
1.49449e-47
1.4953e-47
1.4961e-47
1.49688e-47
1.49765e-47
1.49841e-47
1.49915e-47
1.49987e-47
1.50058e-47
1.50127e-47
1.50194e-47
1.50259e-47
1.50323e-47
1.50385e-47
1.50444e-47
1.50502e-47
1.50558e-47
1.50611e-47
1.50663e-47
1.50712e-47
1.50759e-47
1.50803e-47
1.50846e-47
1.50885e-47
1.50923e-47
1.50958e-47
1.5099e-47
1.5102e-47
1.51047e-47
1.51071e-47
1.51093e-47
1.51112e-47
1.51128e-47
1.51142e-47
1.51152e-47
1.5116e-47
1.51164e-47
1.51166e-47
1.51165e-47
1.5116e-47
1.51152e-47
1.51142e-47
1.51128e-47
1.51111e-47
1.51091e-47
1.51067e-47
1.5104e-47
1.5101e-47
1.50976e-47
1.50939e-47
1.50899e-47
1.50857e-47
1.50821e-47
1.50844e-47
1.51267e-47
1.54315e-47
1.7442e-47
3.05147e-47
1.15206e-46
6.62698e-46
4.19462e-45
2.69293e-44
1.72951e-43
1.10892e-42
7.09732e-42
4.53315e-41
2.88521e-40
1.82214e-39
1.13204e-38
6.82588e-38
3.93414e-37
2.15241e-36
)
;

boundaryField
{
    boundary
    {
        type            empty;
    }
    inlet
    {
        type            fixedValue;
        value           nonuniform 0();
    }
    outlet
    {
        type            zeroGradient;
    }
    procBoundary3to1
    {
        type            processor;
        value           uniform 1.53195e-35;
    }
    procBoundary3to2
    {
        type            processor;
        value           uniform 1.38473e-47;
    }
}


// ************************************************************************* //
