/*--------------------------------*- C++ -*----------------------------------*\
  =========                 |
  \\      /  F ield         | OpenFOAM: The Open Source CFD Toolbox
   \\    /   O peration     | Website:  https://openfoam.org
    \\  /    A nd           | Version:  7
     \\/     M anipulation  |
\*---------------------------------------------------------------------------*/
FoamFile
{
    version     2.0;
    format      ascii;
    class       volScalarField;
    location    "2e-05";
    object      H2O2;
}
// * * * * * * * * * * * * * * * * * * * * * * * * * * * * * * * * * * * * * //

dimensions      [0 0 0 0 0 0 0];

internalField   nonuniform List<scalar> 
126
(
2.5163e-52
2.60427e-52
2.63658e-52
2.65359e-52
2.66317e-52
2.6685e-52
2.6718e-52
2.67428e-52
2.67649e-52
2.6786e-52
2.68069e-52
2.68276e-52
2.68484e-52
2.6869e-52
2.68897e-52
2.69102e-52
2.69307e-52
2.69512e-52
2.69715e-52
2.69918e-52
2.7012e-52
2.7032e-52
2.7052e-52
2.70719e-52
2.70916e-52
2.71113e-52
2.71308e-52
2.71501e-52
2.71694e-52
2.71884e-52
2.72074e-52
2.72261e-52
2.72447e-52
2.72632e-52
2.72814e-52
2.72994e-52
2.73173e-52
2.7335e-52
2.73524e-52
2.73697e-52
2.73867e-52
2.74035e-52
2.74201e-52
2.74364e-52
2.74525e-52
2.74683e-52
2.74839e-52
2.74992e-52
2.75142e-52
2.7529e-52
2.75435e-52
2.75576e-52
2.75715e-52
2.75851e-52
2.75984e-52
2.76113e-52
2.76239e-52
2.76362e-52
2.76481e-52
2.76597e-52
2.7671e-52
2.76818e-52
2.76923e-52
2.77024e-52
2.77122e-52
2.77215e-52
2.77305e-52
2.7739e-52
2.77471e-52
2.77548e-52
2.77621e-52
2.77689e-52
2.77753e-52
2.77813e-52
2.77867e-52
2.77917e-52
2.77963e-52
2.78004e-52
2.78039e-52
2.7807e-52
2.78096e-52
2.78117e-52
2.78133e-52
2.78143e-52
2.78149e-52
2.78149e-52
2.78144e-52
2.78133e-52
2.78117e-52
2.78096e-52
2.78069e-52
2.78036e-52
2.77998e-52
2.77954e-52
2.77905e-52
2.77849e-52
2.77788e-52
2.77722e-52
2.77649e-52
2.77571e-52
2.77487e-52
2.77396e-52
2.773e-52
2.77198e-52
2.7709e-52
2.76977e-52
2.76863e-52
2.76777e-52
2.76907e-52
2.78463e-52
2.89267e-52
3.59802e-52
8.15479e-52
3.75072e-51
2.2621e-50
1.43695e-49
9.18944e-49
5.87453e-48
3.7528e-47
2.39899e-46
1.53722e-45
9.87326e-45
6.31922e-44
3.96495e-43
2.37183e-42
1.31705e-41
)
;

boundaryField
{
    boundary
    {
        type            empty;
    }
    inlet
    {
        type            fixedValue;
        value           nonuniform 0();
    }
    outlet
    {
        type            zeroGradient;
    }
    procBoundary3to1
    {
        type            processor;
        value           uniform 9.28924e-41;
    }
    procBoundary3to2
    {
        type            processor;
        value           uniform 2.58642e-52;
    }
}


// ************************************************************************* //
