/*--------------------------------*- C++ -*----------------------------------*\
  =========                 |
  \\      /  F ield         | OpenFOAM: The Open Source CFD Toolbox
   \\    /   O peration     | Website:  https://openfoam.org
    \\  /    A nd           | Version:  7
     \\/     M anipulation  |
\*---------------------------------------------------------------------------*/
FoamFile
{
    version     2.0;
    format      ascii;
    class       volScalarField;
    location    "2e-05";
    object      HO2;
}
// * * * * * * * * * * * * * * * * * * * * * * * * * * * * * * * * * * * * * //

dimensions      [0 0 0 0 0 0 0];

internalField   nonuniform List<scalar> 
126
(
1.02018e-37
1.0451e-37
1.05485e-37
1.05951e-37
1.06197e-37
1.06336e-37
1.06427e-37
1.065e-37
1.06565e-37
1.06629e-37
1.06692e-37
1.06754e-37
1.06816e-37
1.06877e-37
1.06939e-37
1.06999e-37
1.0706e-37
1.0712e-37
1.07179e-37
1.07238e-37
1.07297e-37
1.07355e-37
1.07412e-37
1.07469e-37
1.07526e-37
1.07581e-37
1.07636e-37
1.07691e-37
1.07745e-37
1.07798e-37
1.0785e-37
1.07902e-37
1.07953e-37
1.08003e-37
1.08053e-37
1.08102e-37
1.0815e-37
1.08197e-37
1.08243e-37
1.08288e-37
1.08333e-37
1.08376e-37
1.08419e-37
1.08461e-37
1.08502e-37
1.08542e-37
1.08581e-37
1.08619e-37
1.08656e-37
1.08691e-37
1.08726e-37
1.0876e-37
1.08793e-37
1.08825e-37
1.08855e-37
1.08885e-37
1.08913e-37
1.0894e-37
1.08966e-37
1.08991e-37
1.09015e-37
1.09038e-37
1.09059e-37
1.09079e-37
1.09098e-37
1.09115e-37
1.09132e-37
1.09147e-37
1.09161e-37
1.09173e-37
1.09184e-37
1.09194e-37
1.09202e-37
1.09209e-37
1.09215e-37
1.09219e-37
1.09222e-37
1.09223e-37
1.09223e-37
1.09222e-37
1.09219e-37
1.09214e-37
1.09208e-37
1.09201e-37
1.09192e-37
1.09182e-37
1.0917e-37
1.09157e-37
1.09142e-37
1.09125e-37
1.09107e-37
1.09088e-37
1.09067e-37
1.09044e-37
1.0902e-37
1.08994e-37
1.08967e-37
1.08938e-37
1.08907e-37
1.08875e-37
1.08841e-37
1.08806e-37
1.08769e-37
1.08731e-37
1.08691e-37
1.0865e-37
1.0861e-37
1.08589e-37
1.08688e-37
1.09547e-37
1.15162e-37
1.50454e-37
3.70942e-37
1.74686e-36
1.03282e-35
6.38114e-35
3.96861e-34
2.46913e-33
1.53584e-32
9.55744e-32
5.95591e-31
3.71551e-30
2.30963e-29
1.41301e-28
8.33675e-28
4.65156e-27
)
;

boundaryField
{
    boundary
    {
        type            empty;
    }
    inlet
    {
        type            fixedValue;
        value           nonuniform 0();
    }
    outlet
    {
        type            zeroGradient;
    }
    procBoundary3to1
    {
        type            processor;
        value           uniform 2.74487e-26;
    }
    procBoundary3to2
    {
        type            processor;
        value           uniform 1.03999e-37;
    }
}


// ************************************************************************* //
