/*--------------------------------*- C++ -*----------------------------------*\
  =========                 |
  \\      /  F ield         | OpenFOAM: The Open Source CFD Toolbox
   \\    /   O peration     | Website:  https://openfoam.org
    \\  /    A nd           | Version:  7
     \\/     M anipulation  |
\*---------------------------------------------------------------------------*/
FoamFile
{
    version     2.0;
    format      ascii;
    class       volScalarField;
    location    "2e-05";
    object      O;
}
// * * * * * * * * * * * * * * * * * * * * * * * * * * * * * * * * * * * * * //

dimensions      [0 0 0 0 0 0 0];

internalField   nonuniform List<scalar> 
126
(
3.26877e-47
3.3011e-47
3.31732e-47
3.33228e-47
3.34289e-47
3.34945e-47
3.35366e-47
3.35681e-47
3.35955e-47
3.36214e-47
3.36468e-47
3.36719e-47
3.36969e-47
3.37218e-47
3.37465e-47
3.3771e-47
3.37954e-47
3.38197e-47
3.38437e-47
3.38676e-47
3.38912e-47
3.39147e-47
3.39379e-47
3.39609e-47
3.39837e-47
3.40063e-47
3.40285e-47
3.40506e-47
3.40723e-47
3.40938e-47
3.4115e-47
3.41359e-47
3.41565e-47
3.41768e-47
3.41968e-47
3.42165e-47
3.42358e-47
3.42548e-47
3.42734e-47
3.42917e-47
3.43096e-47
3.43272e-47
3.43444e-47
3.43612e-47
3.43775e-47
3.43935e-47
3.44091e-47
3.44243e-47
3.44391e-47
3.44534e-47
3.44673e-47
3.44808e-47
3.44938e-47
3.45063e-47
3.45184e-47
3.45301e-47
3.45412e-47
3.45519e-47
3.45621e-47
3.45718e-47
3.4581e-47
3.45897e-47
3.45978e-47
3.46055e-47
3.46126e-47
3.46192e-47
3.46253e-47
3.46308e-47
3.46358e-47
3.46402e-47
3.46441e-47
3.46474e-47
3.46502e-47
3.46523e-47
3.46539e-47
3.46549e-47
3.46553e-47
3.46551e-47
3.46543e-47
3.46529e-47
3.4651e-47
3.46484e-47
3.46451e-47
3.46413e-47
3.46368e-47
3.46318e-47
3.46261e-47
3.46197e-47
3.46127e-47
3.46051e-47
3.45969e-47
3.4588e-47
3.45785e-47
3.45683e-47
3.45575e-47
3.45461e-47
3.4534e-47
3.45213e-47
3.45079e-47
3.44938e-47
3.44791e-47
3.44638e-47
3.44478e-47
3.44312e-47
3.4414e-47
3.43968e-47
3.43829e-47
3.43941e-47
3.45691e-47
3.57938e-47
4.37254e-47
9.44698e-47
4.18286e-46
2.48219e-45
1.56229e-44
9.92012e-44
6.30294e-43
4.00234e-42
2.539e-41
1.60741e-40
1.01278e-39
6.31748e-39
3.86919e-38
2.30102e-37
1.31009e-36
6.99328e-36
)
;

boundaryField
{
    boundary
    {
        type            empty;
    }
    inlet
    {
        type            fixedValue;
        value           nonuniform 0();
    }
    outlet
    {
        type            zeroGradient;
    }
    procBoundary3to1
    {
        type            processor;
        value           uniform 4.30782e-35;
    }
    procBoundary3to2
    {
        type            processor;
        value           uniform 3.29291e-47;
    }
}


// ************************************************************************* //
