/*--------------------------------*- C++ -*----------------------------------*\
  =========                 |
  \\      /  F ield         | OpenFOAM: The Open Source CFD Toolbox
   \\    /   O peration     | Website:  https://openfoam.org
    \\  /    A nd           | Version:  7
     \\/     M anipulation  |
\*---------------------------------------------------------------------------*/
FoamFile
{
    version     2.0;
    format      ascii;
    class       volScalarField;
    location    "2e-05";
    object      OH;
}
// * * * * * * * * * * * * * * * * * * * * * * * * * * * * * * * * * * * * * //

dimensions      [0 0 0 0 0 0 0];

internalField   nonuniform List<scalar> 
126
(
2.15266e-47
2.17656e-47
2.18673e-47
2.19416e-47
2.19937e-47
2.20284e-47
2.20533e-47
2.20737e-47
2.20923e-47
2.21102e-47
2.21277e-47
2.2145e-47
2.21622e-47
2.21792e-47
2.2196e-47
2.22127e-47
2.22291e-47
2.22454e-47
2.22614e-47
2.22773e-47
2.22929e-47
2.23083e-47
2.23235e-47
2.23384e-47
2.23531e-47
2.23676e-47
2.23818e-47
2.23957e-47
2.24094e-47
2.24227e-47
2.24358e-47
2.24487e-47
2.24612e-47
2.24734e-47
2.24854e-47
2.2497e-47
2.25084e-47
2.25194e-47
2.25301e-47
2.25404e-47
2.25505e-47
2.25602e-47
2.25696e-47
2.25786e-47
2.25873e-47
2.25957e-47
2.26037e-47
2.26114e-47
2.26187e-47
2.26256e-47
2.26322e-47
2.26384e-47
2.26443e-47
2.26497e-47
2.26549e-47
2.26596e-47
2.2664e-47
2.26679e-47
2.26715e-47
2.26748e-47
2.26776e-47
2.268e-47
2.26821e-47
2.26838e-47
2.2685e-47
2.26859e-47
2.26864e-47
2.26865e-47
2.26862e-47
2.26855e-47
2.26843e-47
2.26828e-47
2.26809e-47
2.26786e-47
2.26759e-47
2.26728e-47
2.26692e-47
2.26653e-47
2.26609e-47
2.26562e-47
2.2651e-47
2.26455e-47
2.26395e-47
2.26331e-47
2.26263e-47
2.26192e-47
2.26116e-47
2.26036e-47
2.25952e-47
2.25864e-47
2.25772e-47
2.25676e-47
2.25576e-47
2.25473e-47
2.25365e-47
2.25253e-47
2.25138e-47
2.25019e-47
2.24895e-47
2.24768e-47
2.24637e-47
2.24503e-47
2.24364e-47
2.24222e-47
2.24077e-47
2.23932e-47
2.23812e-47
2.23863e-47
2.25013e-47
2.33107e-47
2.84922e-47
6.11874e-47
2.66925e-46
1.56017e-45
9.6818e-45
6.06366e-44
3.80021e-43
2.38011e-42
1.48913e-41
9.29878e-41
5.7818e-40
3.56345e-39
2.16221e-38
1.28224e-37
7.40638e-37
4.19619e-36
)
;

boundaryField
{
    boundary
    {
        type            empty;
    }
    inlet
    {
        type            fixedValue;
        value           nonuniform 0();
    }
    outlet
    {
        type            zeroGradient;
    }
    procBoundary3to1
    {
        type            processor;
        value           uniform 3.4667e-35;
    }
    procBoundary3to2
    {
        type            processor;
        value           uniform 2.16694e-47;
    }
}


// ************************************************************************* //
