/*--------------------------------*- C++ -*----------------------------------*\
  =========                 |
  \\      /  F ield         | OpenFOAM: The Open Source CFD Toolbox
   \\    /   O peration     | Website:  https://openfoam.org
    \\  /    A nd           | Version:  7
     \\/     M anipulation  |
\*---------------------------------------------------------------------------*/
FoamFile
{
    version     2.0;
    format      ascii;
    class       volScalarField;
    location    "2e-05";
    object      p;
}
// * * * * * * * * * * * * * * * * * * * * * * * * * * * * * * * * * * * * * //

dimensions      [1 -1 -2 0 0 0 0];

internalField   nonuniform List<scalar> 
126
(
101781
101778
101775
101773
101770
101768
101765
101763
101761
101758
101756
101754
101752
101749
101747
101745
101744
101742
101740
101739
101737
101736
101734
101733
101732
101731
101730
101729
101729
101728
101728
101728
101727
101727
101727
101728
101728
101728
101729
101729
101730
101731
101732
101733
101734
101735
101737
101738
101740
101741
101743
101745
101746
101748
101750
101752
101754
101756
101759
101761
101763
101765
101768
101770
101772
101775
101777
101780
101782
101785
101787
101789
101792
101794
101797
101799
101801
101804
101806
101808
101810
101813
101815
101817
101819
101821
101823
101825
101827
101829
101831
101833
101835
101837
101839
101841
101842
101844
101846
101848
101849
101851
101853
101854
101856
101858
101859
101861
101862
101864
101865
101867
101869
101870
101872
101873
101875
101876
101878
101879
101880
101882
101883
101885
101886
101888
)
;

boundaryField
{
    boundary
    {
        type            empty;
    }
    inlet
    {
        type            zeroGradient;
    }
    outlet
    {
        type            waveTransmissive;
        gamma           1.4;
        value           nonuniform 0();
    }
    procBoundary3to1
    {
        type            processor;
        value           uniform 101889;
    }
    procBoundary3to2
    {
        type            processor;
        value           uniform 101783;
    }
}


// ************************************************************************* //
