/*--------------------------------*- C++ -*----------------------------------*\
  =========                 |
  \\      /  F ield         | OpenFOAM: The Open Source CFD Toolbox
   \\    /   O peration     | Website:  https://openfoam.org
    \\  /    A nd           | Version:  7
     \\/     M anipulation  |
\*---------------------------------------------------------------------------*/
FoamFile
{
    version     2.0;
    format      ascii;
    class       surfaceScalarField;
    location    "2e-05";
    object      phi;
}
// * * * * * * * * * * * * * * * * * * * * * * * * * * * * * * * * * * * * * //

dimensions      [1 0 -1 0 0 0 0];

internalField   nonuniform List<scalar> 
125
(
3.23543e-06
3.25334e-06
3.27106e-06
3.28856e-06
3.30579e-06
3.3227e-06
3.33925e-06
3.35541e-06
3.37112e-06
3.38635e-06
3.40105e-06
3.4152e-06
3.42875e-06
3.44166e-06
3.4539e-06
3.46545e-06
3.47626e-06
3.48631e-06
3.49557e-06
3.50401e-06
3.51162e-06
3.51836e-06
3.52423e-06
3.5292e-06
3.53326e-06
3.53639e-06
3.53859e-06
3.53984e-06
3.54015e-06
3.5395e-06
3.53789e-06
3.53533e-06
3.53182e-06
3.52736e-06
3.52197e-06
3.51565e-06
3.50842e-06
3.50029e-06
3.49127e-06
3.4814e-06
3.47068e-06
3.45914e-06
3.44681e-06
3.4337e-06
3.41987e-06
3.40532e-06
3.39008e-06
3.3742e-06
3.35771e-06
3.34064e-06
3.32303e-06
3.30492e-06
3.28634e-06
3.26732e-06
3.24792e-06
3.22816e-06
3.20808e-06
3.18773e-06
3.16714e-06
3.14635e-06
3.12539e-06
3.10431e-06
3.08313e-06
3.06191e-06
3.04065e-06
3.01941e-06
2.9982e-06
2.97707e-06
2.95603e-06
2.93512e-06
2.91436e-06
2.89377e-06
2.87338e-06
2.8532e-06
2.83325e-06
2.81356e-06
2.79412e-06
2.77496e-06
2.75609e-06
2.73751e-06
2.71922e-06
2.70124e-06
2.68357e-06
2.66621e-06
2.64915e-06
2.6324e-06
2.61594e-06
2.59978e-06
2.58392e-06
2.56833e-06
2.55301e-06
2.53796e-06
2.52316e-06
2.5086e-06
2.49427e-06
2.48015e-06
2.46624e-06
2.45252e-06
2.43898e-06
2.4256e-06
2.41238e-06
2.3993e-06
2.38634e-06
2.37351e-06
2.36077e-06
2.34814e-06
2.33559e-06
2.32312e-06
2.31071e-06
2.29837e-06
2.28609e-06
2.27386e-06
2.26168e-06
2.24954e-06
2.23744e-06
2.22539e-06
2.21337e-06
2.2014e-06
2.18948e-06
2.17759e-06
2.16576e-06
2.15399e-06
2.14227e-06
2.13061e-06
2.11902e-06
)
;

boundaryField
{
    boundary
    {
        type            empty;
        value           nonuniform 0();
    }
    inlet
    {
        type            calculated;
        value           nonuniform 0();
    }
    outlet
    {
        type            calculated;
        value           nonuniform 0();
    }
    procBoundary3to1
    {
        type            processor;
        value           uniform 2.1075e-06;
    }
    procBoundary3to2
    {
        type            processor;
        value           uniform -3.21737e-06;
    }
}


// ************************************************************************* //
