/*--------------------------------*- C++ -*----------------------------------*\
  =========                 |
  \\      /  F ield         | OpenFOAM: The Open Source CFD Toolbox
   \\    /   O peration     | Website:  https://openfoam.org
    \\  /    A nd           | Version:  7
     \\/     M anipulation  |
\*---------------------------------------------------------------------------*/
FoamFile
{
    version     2.0;
    format      ascii;
    class       volScalarField;
    location    "2e-05";
    object      Qdot;
}
// * * * * * * * * * * * * * * * * * * * * * * * * * * * * * * * * * * * * * //

dimensions      [1 -1 -3 0 0 0 0];

internalField   nonuniform List<scalar> 
126
(
-1.90426e-27
-1.90785e-27
-1.90688e-27
-1.90476e-27
-1.90233e-27
-1.89977e-27
-1.89712e-27
-1.89441e-27
-1.89164e-27
-1.88881e-27
-1.88593e-27
-1.883e-27
-1.88003e-27
-1.87703e-27
-1.874e-27
-1.87095e-27
-1.86787e-27
-1.86479e-27
-1.8617e-27
-1.85861e-27
-1.85553e-27
-1.85245e-27
-1.8494e-27
-1.84638e-27
-1.84338e-27
-1.84043e-27
-1.83752e-27
-1.83465e-27
-1.83185e-27
-1.82911e-27
-1.82643e-27
-1.82383e-27
-1.8213e-27
-1.81886e-27
-1.81651e-27
-1.81426e-27
-1.8121e-27
-1.81005e-27
-1.8081e-27
-1.80627e-27
-1.80455e-27
-1.80295e-27
-1.80146e-27
-1.80011e-27
-1.79888e-27
-1.79777e-27
-1.7968e-27
-1.79595e-27
-1.79524e-27
-1.79465e-27
-1.7942e-27
-1.79388e-27
-1.79369e-27
-1.79362e-27
-1.79368e-27
-1.79387e-27
-1.79418e-27
-1.7946e-27
-1.79514e-27
-1.79579e-27
-1.79655e-27
-1.79741e-27
-1.79837e-27
-1.79942e-27
-1.80056e-27
-1.80177e-27
-1.80307e-27
-1.80443e-27
-1.80585e-27
-1.80732e-27
-1.80884e-27
-1.81041e-27
-1.812e-27
-1.81362e-27
-1.81526e-27
-1.81691e-27
-1.81856e-27
-1.82021e-27
-1.82184e-27
-1.82345e-27
-1.82503e-27
-1.82658e-27
-1.82809e-27
-1.82955e-27
-1.83095e-27
-1.8323e-27
-1.83358e-27
-1.83478e-27
-1.83591e-27
-1.83696e-27
-1.83792e-27
-1.83879e-27
-1.83957e-27
-1.84026e-27
-1.84085e-27
-1.84134e-27
-1.84173e-27
-1.84202e-27
-1.84221e-27
-1.8423e-27
-1.8423e-27
-1.84219e-27
-1.84199e-27
-1.84169e-27
-1.84128e-27
-1.84067e-27
-1.83931e-27
-1.83422e-27
-1.80907e-27
-1.67475e-27
-9.47774e-28
2.98651e-27
2.42307e-26
1.38743e-25
7.55643e-25
4.08213e-24
2.20672e-23
1.1975e-22
6.53787e-22
3.59857e-21
2.00081e-20
1.12573e-19
6.41847e-19
3.71207e-18
2.17823e-17
1.29601e-16
)
;

boundaryField
{
    boundary
    {
        type            empty;
    }
    inlet
    {
        type            calculated;
        value           nonuniform 0();
    }
    outlet
    {
        type            calculated;
        value           nonuniform 0();
    }
    procBoundary3to1
    {
        type            processor;
        value           uniform 0;
    }
    procBoundary3to2
    {
        type            processor;
        value           uniform 0;
    }
}


// ************************************************************************* //
