/*--------------------------------*- C++ -*----------------------------------*\
  =========                 |
  \\      /  F ield         | OpenFOAM: The Open Source CFD Toolbox
   \\    /   O peration     | Website:  https://openfoam.org
    \\  /    A nd           | Version:  7
     \\/     M anipulation  |
\*---------------------------------------------------------------------------*/
FoamFile
{
    version     2.0;
    format      ascii;
    class       volScalarField;
    location    "2e-05";
    object      T;
}
// * * * * * * * * * * * * * * * * * * * * * * * * * * * * * * * * * * * * * //

dimensions      [0 0 0 1 0 0 0];

internalField   nonuniform List<scalar> 
126
(
300.425
300.423
300.421
300.419
300.417
300.415
300.413
300.411
300.409
300.407
300.404
300.402
300.4
300.397
300.395
300.393
300.391
300.388
300.386
300.384
300.381
300.379
300.377
300.375
300.372
300.37
300.368
300.366
300.364
300.362
300.36
300.358
300.357
300.355
300.353
300.352
300.35
300.349
300.347
300.346
300.345
300.344
300.343
300.342
300.341
300.34
300.339
300.339
300.338
300.338
300.337
300.337
300.337
300.337
300.336
300.336
300.336
300.336
300.336
300.337
300.337
300.337
300.337
300.338
300.338
300.338
300.339
300.339
300.339
300.34
300.34
300.34
300.341
300.341
300.341
300.341
300.342
300.342
300.342
300.342
300.342
300.342
300.342
300.342
300.342
300.342
300.341
300.341
300.34
300.34
300.339
300.339
300.338
300.337
300.336
300.335
300.334
300.333
300.332
300.331
300.33
300.328
300.327
300.326
300.324
300.323
300.321
300.319
300.318
300.316
300.314
300.313
300.311
300.309
300.307
300.306
300.304
300.302
300.3
300.298
300.296
300.294
300.292
300.29
300.288
300.285
)
;

boundaryField
{
    boundary
    {
        type            empty;
    }
    inlet
    {
        type            fixedValue;
        value           nonuniform 0();
    }
    outlet
    {
        type            zeroGradient;
    }
    procBoundary3to1
    {
        type            processor;
        value           uniform 300.283;
    }
    procBoundary3to2
    {
        type            processor;
        value           uniform 300.426;
    }
}


// ************************************************************************* //
