/*--------------------------------*- C++ -*----------------------------------*\
  =========                 |
  \\      /  F ield         | OpenFOAM: The Open Source CFD Toolbox
   \\    /   O peration     | Website:  https://openfoam.org
    \\  /    A nd           | Version:  7
     \\/     M anipulation  |
\*---------------------------------------------------------------------------*/
FoamFile
{
    version     2.0;
    format      ascii;
    class       volVectorField;
    location    "2e-05";
    object      U;
}
// * * * * * * * * * * * * * * * * * * * * * * * * * * * * * * * * * * * * * //

dimensions      [0 1 -1 0 0 0 0];

internalField   nonuniform List<vector> 
126
(
(1.10974 0 0)
(1.1159 0 0)
(1.12191 0 0)
(1.12803 0 0)
(1.13408 0 0)
(1.13997 0 0)
(1.14574 0 0)
(1.15138 0 0)
(1.15689 0 0)
(1.1622 0 0)
(1.16744 0 0)
(1.17229 0 0)
(1.17718 0 0)
(1.18173 0 0)
(1.18605 0 0)
(1.19016 0 0)
(1.19402 0 0)
(1.19762 0 0)
(1.20095 0 0)
(1.20401 0 0)
(1.20678 0 0)
(1.20925 0 0)
(1.21143 0 0)
(1.2133 0 0)
(1.21483 0 0)
(1.21612 0 0)
(1.21699 0 0)
(1.21757 0 0)
(1.21793 0 0)
(1.21783 0 0)
(1.21742 0 0)
(1.21671 0 0)
(1.21566 0 0)
(1.21428 0 0)
(1.21258 0 0)
(1.21056 0 0)
(1.20822 0 0)
(1.20557 0 0)
(1.20261 0 0)
(1.19935 0 0)
(1.19577 0 0)
(1.19197 0 0)
(1.18781 0 0)
(1.1834 0 0)
(1.17882 0 0)
(1.17393 0 0)
(1.16882 0 0)
(1.1633 0 0)
(1.15778 0 0)
(1.15201 0 0)
(1.14602 0 0)
(1.13985 0 0)
(1.13352 0 0)
(1.12703 0 0)
(1.1204 0 0)
(1.11365 0 0)
(1.10678 0 0)
(1.09977 0 0)
(1.09278 0 0)
(1.08556 0 0)
(1.07835 0 0)
(1.07126 0 0)
(1.06386 0 0)
(1.05649 0 0)
(1.04921 0 0)
(1.04189 0 0)
(1.03456 0 0)
(1.02726 0 0)
(1.01999 0 0)
(1.01275 0 0)
(1.00557 0 0)
(0.998436 0 0)
(0.991374 0 0)
(0.98435 0 0)
(0.977508 0 0)
(0.970514 0 0)
(0.963954 0 0)
(0.95722 0 0)
(0.950641 0 0)
(0.944201 0 0)
(0.937841 0 0)
(0.931589 0 0)
(0.925441 0 0)
(0.919399 0 0)
(0.913463 0 0)
(0.907632 0 0)
(0.901905 0 0)
(0.896285 0 0)
(0.890769 0 0)
(0.885283 0 0)
(0.880092 0 0)
(0.874733 0 0)
(0.86959 0 0)
(0.86456 0 0)
(0.859569 0 0)
(0.854661 0 0)
(0.849826 0 0)
(0.84506 0 0)
(0.840357 0 0)
(0.835713 0 0)
(0.831122 0 0)
(0.826587 0 0)
(0.82211 0 0)
(0.817562 0 0)
(0.813363 0 0)
(0.808795 0 0)
(0.804473 0 0)
(0.800202 0 0)
(0.795896 0 0)
(0.791623 0 0)
(0.787374 0 0)
(0.783144 0 0)
(0.77893 0 0)
(0.774732 0 0)
(0.770552 0 0)
(0.766423 0 0)
(0.762163 0 0)
(0.758149 0 0)
(0.754074 0 0)
(0.749723 0 0)
(0.745717 0 0)
(0.74171 0 0)
(0.737634 0 0)
(0.733592 0 0)
(0.729569 0 0)
(0.725493 0 0)
)
;

boundaryField
{
    boundary
    {
        type            empty;
    }
    inlet
    {
        type            fixedValue;
        value           nonuniform 0();
    }
    outlet
    {
        type            zeroGradient;
    }
    procBoundary3to1
    {
        type            processor;
        value           uniform (0.721559 0 0);
    }
    procBoundary3to2
    {
        type            processor;
        value           uniform (1.1034 0 0);
    }
}


// ************************************************************************* //
