/*--------------------------------*- C++ -*----------------------------------*\
  =========                 |
  \\      /  F ield         | OpenFOAM: The Open Source CFD Toolbox
   \\    /   O peration     | Website:  https://openfoam.org
    \\  /    A nd           | Version:  7
     \\/     M anipulation  |
\*---------------------------------------------------------------------------*/
FoamFile
{
    version     2.0;
    format      ascii;
    class       volScalarField;
    location    "0.00085";
    object      p;
}
// * * * * * * * * * * * * * * * * * * * * * * * * * * * * * * * * * * * * * //

dimensions      [1 -1 -2 0 0 0 0];

internalField   nonuniform List<scalar> 
125
(
103133
103133
103133
103133
103133
103133
103133
103133
103133
103133
103133
103133
103133
103133
103133
103133
103133
103133
103133
103133
103133
103133
103133
103133
103133
103132
103131
103129
103127
103124
103122
103120
103118
103117
103115
103114
103114
103113
103112
103112
103111
103111
103111
103110
103110
103110
103110
103109
103109
103109
103109
103109
103109
103108
103108
103108
103108
103108
103108
103108
103108
103107
103107
103107
103107
103107
103107
103107
103107
103107
103107
103107
103107
103107
103106
103106
103106
103106
103106
103106
103106
103106
103106
103106
103106
103106
103106
103106
103106
103106
103106
103106
103106
103106
103106
103106
103105
103105
103105
103105
103105
103105
103105
103105
103105
103105
103105
103105
103105
103105
103105
103105
103105
103105
103105
103105
103105
103105
103105
103105
103105
103105
103105
103105
103105
)
;

boundaryField
{
    boundary
    {
        type            empty;
    }
    inlet
    {
        type            zeroGradient;
    }
    outlet
    {
        type            waveTransmissive;
        gamma           1.4;
        value           nonuniform 0();
    }
    procBoundary1to0
    {
        type            processor;
        value           uniform 103105;
    }
    procBoundary1to3
    {
        type            processor;
        value           uniform 103133;
    }
}


// ************************************************************************* //
