/*--------------------------------*- C++ -*----------------------------------*\
  =========                 |
  \\      /  F ield         | OpenFOAM: The Open Source CFD Toolbox
   \\    /   O peration     | Website:  https://openfoam.org
    \\  /    A nd           | Version:  7
     \\/     M anipulation  |
\*---------------------------------------------------------------------------*/
FoamFile
{
    version     2.0;
    format      ascii;
    class       volScalarField;
    location    "0.00085";
    object      T;
}
// * * * * * * * * * * * * * * * * * * * * * * * * * * * * * * * * * * * * * //

dimensions      [0 0 0 1 0 0 0];

internalField   nonuniform List<scalar> 
125
(
301.503
301.501
301.5
301.498
301.496
301.494
301.493
301.491
301.489
301.487
301.485
301.483
301.481
301.479
301.478
301.479
301.485
301.507
301.575
301.771
302.331
303.93
308.483
321.272
355.036
429.878
553.934
706.046
860.179
1006.62
1142.37
1262.29
1361.05
1444.44
1515.45
1572.1
1617.42
1656.26
1689.93
1719.56
1745.94
1769.66
1791.17
1810.81
1828.86
1845.53
1860.99
1875.39
1888.86
1901.48
1913.35
1924.54
1935.11
1945.12
1954.63
1963.66
1972.27
1980.47
1988.3
1995.79
2002.94
2009.59
2015.86
2021.93
2027.8
2033.49
2039
2044.35
2049.53
2054.57
2059.46
2064.22
2068.85
2073.35
2077.74
2082.01
2086.17
2090.23
2094.2
2098.06
2101.84
2105.53
2109.13
2112.66
2116.1
2119.47
2122.77
2126
2129.17
2132.27
2135.3
2138.28
2141.2
2144.06
2146.87
2149.63
2152.34
2155
2157.61
2160.17
2162.69
2165.17
2167.6
2170
2172.35
2174.67
2176.95
2179.19
2181.4
2183.57
2185.71
2187.81
2189.89
2191.93
2193.94
2195.92
2197.88
2199.8
2201.7
2203.56
2205.41
2207.22
2209.01
2210.76
2212.49
)
;

boundaryField
{
    boundary
    {
        type            empty;
    }
    inlet
    {
        type            fixedValue;
        value           nonuniform 0();
    }
    outlet
    {
        type            zeroGradient;
    }
    procBoundary1to0
    {
        type            processor;
        value           uniform 2214.2;
    }
    procBoundary1to3
    {
        type            processor;
        value           uniform 301.504;
    }
}


// ************************************************************************* //
