/*--------------------------------*- C++ -*----------------------------------*\
  =========                 |
  \\      /  F ield         | OpenFOAM: The Open Source CFD Toolbox
   \\    /   O peration     | Website:  https://openfoam.org
    \\  /    A nd           | Version:  7
     \\/     M anipulation  |
\*---------------------------------------------------------------------------*/
FoamFile
{
    version     2.0;
    format      ascii;
    class       volVectorField;
    location    "0.00085";
    object      U;
}
// * * * * * * * * * * * * * * * * * * * * * * * * * * * * * * * * * * * * * //

dimensions      [0 1 -1 0 0 0 0];

internalField   nonuniform List<vector> 
125
(
(2.34445 0 0)
(2.34443 0 0)
(2.34441 0 0)
(2.34439 0 0)
(2.34438 0 0)
(2.34436 0 0)
(2.34434 0 0)
(2.34432 0 0)
(2.3443 0 0)
(2.34428 0 0)
(2.34426 0 0)
(2.34424 0 0)
(2.34422 0 0)
(2.3442 0 0)
(2.34418 0 0)
(2.34416 0 0)
(2.34418 0 0)
(2.34428 0 0)
(2.34471 0 0)
(2.34617 0 0)
(2.35075 0 0)
(2.36401 0 0)
(2.39906 0 0)
(2.48442 0 0)
(2.68211 0 0)
(3.10569 0 0)
(3.92901 0 0)
(5.07548 0 0)
(6.31483 0 0)
(7.47509 0 0)
(8.50138 0 0)
(9.38167 0 0)
(10.1134 0 0)
(10.7176 0 0)
(11.2198 0 0)
(11.6267 0 0)
(11.9503 0 0)
(12.2163 0 0)
(12.4449 0 0)
(12.6455 0 0)
(12.8233 0 0)
(12.9821 0 0)
(13.1253 0 0)
(13.2554 0 0)
(13.3744 0 0)
(13.4839 0 0)
(13.585 0 0)
(13.6789 0 0)
(13.7663 0 0)
(13.848 0 0)
(13.9247 0 0)
(13.9967 0 0)
(14.0646 0 0)
(14.1288 0 0)
(14.1895 0 0)
(14.2472 0 0)
(14.3019 0 0)
(14.354 0 0)
(14.4036 0 0)
(14.4509 0 0)
(14.4961 0 0)
(14.538 0 0)
(14.5774 0 0)
(14.6155 0 0)
(14.6524 0 0)
(14.688 0 0)
(14.7225 0 0)
(14.7559 0 0)
(14.7883 0 0)
(14.8197 0 0)
(14.8501 0 0)
(14.8797 0 0)
(14.9085 0 0)
(14.9364 0 0)
(14.9636 0 0)
(14.99 0 0)
(15.0158 0 0)
(15.0409 0 0)
(15.0653 0 0)
(15.0892 0 0)
(15.1125 0 0)
(15.1352 0 0)
(15.1573 0 0)
(15.179 0 0)
(15.2002 0 0)
(15.2208 0 0)
(15.2411 0 0)
(15.2608 0 0)
(15.2802 0 0)
(15.2992 0 0)
(15.3177 0 0)
(15.3359 0 0)
(15.3537 0 0)
(15.3711 0 0)
(15.3882 0 0)
(15.405 0 0)
(15.4215 0 0)
(15.4376 0 0)
(15.4535 0 0)
(15.469 0 0)
(15.4843 0 0)
(15.4993 0 0)
(15.514 0 0)
(15.5285 0 0)
(15.5427 0 0)
(15.5566 0 0)
(15.5704 0 0)
(15.5839 0 0)
(15.5972 0 0)
(15.6102 0 0)
(15.6231 0 0)
(15.6357 0 0)
(15.6482 0 0)
(15.6604 0 0)
(15.6725 0 0)
(15.6844 0 0)
(15.6961 0 0)
(15.7076 0 0)
(15.719 0 0)
(15.7302 0 0)
(15.7412 0 0)
(15.752 0 0)
(15.7627 0 0)
(15.7732 0 0)
(15.7835 0 0)
)
;

boundaryField
{
    boundary
    {
        type            empty;
    }
    inlet
    {
        type            fixedValue;
        value           nonuniform 0();
    }
    outlet
    {
        type            zeroGradient;
    }
    procBoundary1to0
    {
        type            processor;
        value           uniform (15.7937 0 0);
    }
    procBoundary1to3
    {
        type            processor;
        value           uniform (2.34447 0 0);
    }
}


// ************************************************************************* //
