/*--------------------------------*- C++ -*----------------------------------*\
  =========                 |
  \\      /  F ield         | OpenFOAM: The Open Source CFD Toolbox
   \\    /   O peration     | Website:  https://openfoam.org
    \\  /    A nd           | Version:  7
     \\/     M anipulation  |
\*---------------------------------------------------------------------------*/
FoamFile
{
    version     2.0;
    format      ascii;
    class       volScalarField;
    location    "6e-05";
    object      H;
}
// * * * * * * * * * * * * * * * * * * * * * * * * * * * * * * * * * * * * * //

dimensions      [0 0 0 0 0 0 0];

internalField   nonuniform List<scalar> 
125
(
1.56425e-41
2.30366e-41
2.61917e-41
2.81819e-41
2.96233e-41
3.06415e-41
3.13081e-41
3.1709e-41
3.19313e-41
3.20457e-41
3.21006e-41
3.21251e-41
3.21351e-41
3.21387e-41
3.21394e-41
3.21389e-41
3.2138e-41
3.21368e-41
3.21354e-41
3.2134e-41
3.21325e-41
3.21309e-41
3.21292e-41
3.21274e-41
3.21256e-41
3.21237e-41
3.21217e-41
3.21196e-41
3.21175e-41
3.21153e-41
3.2113e-41
3.21106e-41
3.21082e-41
3.21056e-41
3.2103e-41
3.21003e-41
3.20976e-41
3.20948e-41
3.20919e-41
3.20889e-41
3.20858e-41
3.20827e-41
3.20795e-41
3.20762e-41
3.20729e-41
3.20695e-41
3.2066e-41
3.20624e-41
3.20588e-41
3.20551e-41
3.20513e-41
3.20474e-41
3.20435e-41
3.20395e-41
3.20355e-41
3.20314e-41
3.20272e-41
3.20229e-41
3.20186e-41
3.20142e-41
3.20098e-41
3.20052e-41
3.20007e-41
3.1996e-41
3.19913e-41
3.19865e-41
3.19817e-41
3.19768e-41
3.19719e-41
3.19669e-41
3.19618e-41
3.19567e-41
3.19515e-41
3.19462e-41
3.19409e-41
3.19356e-41
3.19302e-41
3.19247e-41
3.19192e-41
3.19136e-41
3.1908e-41
3.19023e-41
3.18966e-41
3.18908e-41
3.1885e-41
3.18791e-41
3.18732e-41
3.18672e-41
3.18612e-41
3.18551e-41
3.1849e-41
3.18428e-41
3.18366e-41
3.18303e-41
3.1824e-41
3.18177e-41
3.18113e-41
3.18048e-41
3.17983e-41
3.17918e-41
3.17852e-41
3.17786e-41
3.17719e-41
3.17652e-41
3.17584e-41
3.17516e-41
3.17448e-41
3.17379e-41
3.17309e-41
3.17239e-41
3.17169e-41
3.17098e-41
3.17027e-41
3.16955e-41
3.16883e-41
3.1681e-41
3.16736e-41
3.16662e-41
3.16588e-41
3.16513e-41
3.16437e-41
3.16358e-41
3.16271e-41
3.16153e-41
3.1588e-41
)
;

boundaryField
{
    boundary
    {
        type            empty;
    }
    inlet
    {
        type            fixedValue;
        value           uniform 0;
    }
    outlet
    {
        type            zeroGradient;
    }
    procBoundary2to3
    {
        type            processor;
        value           uniform 3.15678e-41;
    }
}


// ************************************************************************* //
