/*--------------------------------*- C++ -*----------------------------------*\
  =========                 |
  \\      /  F ield         | OpenFOAM: The Open Source CFD Toolbox
   \\    /   O peration     | Website:  https://openfoam.org
    \\  /    A nd           | Version:  7
     \\/     M anipulation  |
\*---------------------------------------------------------------------------*/
FoamFile
{
    version     2.0;
    format      ascii;
    class       volScalarField;
    location    "6e-05";
    object      H2O;
}
// * * * * * * * * * * * * * * * * * * * * * * * * * * * * * * * * * * * * * //

dimensions      [0 0 0 0 0 0 0];

internalField   nonuniform List<scalar> 
125
(
8.00848e-48
2.23239e-47
3.7901e-47
5.23928e-47
6.43295e-47
7.31933e-47
7.92011e-47
8.29555e-47
8.51372e-47
8.63247e-47
8.69339e-47
8.723e-47
8.73672e-47
8.74281e-47
8.74543e-47
8.74653e-47
8.74701e-47
8.74724e-47
8.74738e-47
8.74748e-47
8.74758e-47
8.74768e-47
8.74779e-47
8.7479e-47
8.74801e-47
8.74814e-47
8.74826e-47
8.7484e-47
8.74854e-47
8.74869e-47
8.74885e-47
8.74901e-47
8.74919e-47
8.74937e-47
8.74955e-47
8.74975e-47
8.74996e-47
8.75017e-47
8.75039e-47
8.75063e-47
8.75087e-47
8.75112e-47
8.75139e-47
8.75166e-47
8.75194e-47
8.75224e-47
8.75254e-47
8.75286e-47
8.75319e-47
8.75353e-47
8.75388e-47
8.75425e-47
8.75462e-47
8.75501e-47
8.75541e-47
8.75583e-47
8.75625e-47
8.75669e-47
8.75715e-47
8.75762e-47
8.7581e-47
8.75859e-47
8.7591e-47
8.75962e-47
8.76016e-47
8.76071e-47
8.76128e-47
8.76186e-47
8.76246e-47
8.76307e-47
8.76369e-47
8.76433e-47
8.76499e-47
8.76566e-47
8.76634e-47
8.76705e-47
8.76776e-47
8.7685e-47
8.76925e-47
8.77001e-47
8.77079e-47
8.77159e-47
8.7724e-47
8.77323e-47
8.77407e-47
8.77493e-47
8.77581e-47
8.7767e-47
8.77761e-47
8.77853e-47
8.77947e-47
8.78043e-47
8.7814e-47
8.78239e-47
8.7834e-47
8.78442e-47
8.78546e-47
8.78651e-47
8.78758e-47
8.78867e-47
8.78977e-47
8.79089e-47
8.79202e-47
8.79317e-47
8.79434e-47
8.79552e-47
8.79672e-47
8.79793e-47
8.79915e-47
8.80039e-47
8.80165e-47
8.80292e-47
8.8042e-47
8.8055e-47
8.80681e-47
8.80813e-47
8.80947e-47
8.81081e-47
8.81214e-47
8.81337e-47
8.81412e-47
8.8128e-47
8.8034e-47
8.76478e-47
8.62717e-47
)
;

boundaryField
{
    boundary
    {
        type            empty;
    }
    inlet
    {
        type            fixedValue;
        value           uniform 0;
    }
    outlet
    {
        type            zeroGradient;
    }
    procBoundary2to3
    {
        type            processor;
        value           uniform 8.4206e-47;
    }
}


// ************************************************************************* //
