/*--------------------------------*- C++ -*----------------------------------*\
  =========                 |
  \\      /  F ield         | OpenFOAM: The Open Source CFD Toolbox
   \\    /   O peration     | Website:  https://openfoam.org
    \\  /    A nd           | Version:  7
     \\/     M anipulation  |
\*---------------------------------------------------------------------------*/
FoamFile
{
    version     2.0;
    format      ascii;
    class       volScalarField;
    location    "6e-05";
    object      H2O2;
}
// * * * * * * * * * * * * * * * * * * * * * * * * * * * * * * * * * * * * * //

dimensions      [0 0 0 0 0 0 0];

internalField   nonuniform List<scalar> 
125
(
1.79133e-52
5.32171e-52
9.49784e-52
1.36207e-51
1.71543e-51
1.98419e-51
2.16848e-51
2.28384e-51
2.35047e-51
2.3863e-51
2.40436e-51
2.41296e-51
2.41684e-51
2.41852e-51
2.41922e-51
2.41951e-51
2.41963e-51
2.4197e-51
2.41974e-51
2.41977e-51
2.4198e-51
2.41984e-51
2.41987e-51
2.41991e-51
2.41994e-51
2.41998e-51
2.42003e-51
2.42007e-51
2.42012e-51
2.42016e-51
2.42021e-51
2.42027e-51
2.42032e-51
2.42038e-51
2.42044e-51
2.4205e-51
2.42056e-51
2.42063e-51
2.4207e-51
2.42077e-51
2.42085e-51
2.42093e-51
2.42101e-51
2.42109e-51
2.42117e-51
2.42126e-51
2.42136e-51
2.42145e-51
2.42155e-51
2.42165e-51
2.42175e-51
2.42186e-51
2.42197e-51
2.42209e-51
2.42221e-51
2.42233e-51
2.42245e-51
2.42258e-51
2.42271e-51
2.42285e-51
2.42299e-51
2.42313e-51
2.42327e-51
2.42342e-51
2.42358e-51
2.42374e-51
2.4239e-51
2.42406e-51
2.42423e-51
2.42441e-51
2.42459e-51
2.42477e-51
2.42495e-51
2.42514e-51
2.42534e-51
2.42554e-51
2.42574e-51
2.42595e-51
2.42616e-51
2.42637e-51
2.42659e-51
2.42682e-51
2.42704e-51
2.42728e-51
2.42751e-51
2.42776e-51
2.428e-51
2.42825e-51
2.42851e-51
2.42877e-51
2.42903e-51
2.4293e-51
2.42957e-51
2.42985e-51
2.43013e-51
2.43041e-51
2.4307e-51
2.431e-51
2.4313e-51
2.4316e-51
2.43191e-51
2.43222e-51
2.43254e-51
2.43286e-51
2.43319e-51
2.43352e-51
2.43385e-51
2.43419e-51
2.43453e-51
2.43488e-51
2.43523e-51
2.43559e-51
2.43594e-51
2.43631e-51
2.43667e-51
2.43704e-51
2.43742e-51
2.43779e-51
2.43817e-51
2.43853e-51
2.43879e-51
2.43854e-51
2.43598e-51
2.42401e-51
2.37721e-51
)
;

boundaryField
{
    boundary
    {
        type            empty;
    }
    inlet
    {
        type            fixedValue;
        value           uniform 0;
    }
    outlet
    {
        type            zeroGradient;
    }
    procBoundary2to3
    {
        type            processor;
        value           uniform 2.30049e-51;
    }
}


// ************************************************************************* //
