/*--------------------------------*- C++ -*----------------------------------*\
  =========                 |
  \\      /  F ield         | OpenFOAM: The Open Source CFD Toolbox
   \\    /   O peration     | Website:  https://openfoam.org
    \\  /    A nd           | Version:  7
     \\/     M anipulation  |
\*---------------------------------------------------------------------------*/
FoamFile
{
    version     2.0;
    format      ascii;
    class       volScalarField;
    location    "6e-05";
    object      HO2;
}
// * * * * * * * * * * * * * * * * * * * * * * * * * * * * * * * * * * * * * //

dimensions      [0 0 0 0 0 0 0];

internalField   nonuniform List<scalar> 
125
(
5.74573e-38
1.29639e-37
1.96073e-37
2.52121e-37
2.95348e-37
3.25863e-37
3.45666e-37
3.57552e-37
3.64192e-37
3.67667e-37
3.6938e-37
3.70179e-37
3.70534e-37
3.70684e-37
3.70746e-37
3.7077e-37
3.7078e-37
3.70784e-37
3.70785e-37
3.70787e-37
3.70788e-37
3.70789e-37
3.7079e-37
3.70791e-37
3.70792e-37
3.70793e-37
3.70794e-37
3.70796e-37
3.70797e-37
3.70799e-37
3.708e-37
3.70802e-37
3.70804e-37
3.70806e-37
3.70808e-37
3.7081e-37
3.70812e-37
3.70815e-37
3.70817e-37
3.7082e-37
3.70823e-37
3.70826e-37
3.70829e-37
3.70832e-37
3.70836e-37
3.70839e-37
3.70843e-37
3.70847e-37
3.70852e-37
3.70856e-37
3.70861e-37
3.70866e-37
3.70871e-37
3.70876e-37
3.70882e-37
3.70887e-37
3.70893e-37
3.709e-37
3.70906e-37
3.70913e-37
3.7092e-37
3.70927e-37
3.70935e-37
3.70942e-37
3.7095e-37
3.70959e-37
3.70967e-37
3.70976e-37
3.70985e-37
3.70995e-37
3.71005e-37
3.71015e-37
3.71025e-37
3.71036e-37
3.71046e-37
3.71058e-37
3.71069e-37
3.71081e-37
3.71093e-37
3.71106e-37
3.71119e-37
3.71132e-37
3.71145e-37
3.71159e-37
3.71173e-37
3.71187e-37
3.71202e-37
3.71217e-37
3.71233e-37
3.71248e-37
3.71264e-37
3.71281e-37
3.71298e-37
3.71315e-37
3.71332e-37
3.7135e-37
3.71368e-37
3.71386e-37
3.71405e-37
3.71424e-37
3.71443e-37
3.71463e-37
3.71483e-37
3.71503e-37
3.71524e-37
3.71545e-37
3.71566e-37
3.71588e-37
3.7161e-37
3.71632e-37
3.71654e-37
3.71677e-37
3.717e-37
3.71723e-37
3.71746e-37
3.7177e-37
3.71794e-37
3.71818e-37
3.71842e-37
3.71864e-37
3.71878e-37
3.7185e-37
3.7163e-37
3.70619e-37
3.6665e-37
)
;

boundaryField
{
    boundary
    {
        type            empty;
    }
    inlet
    {
        type            fixedValue;
        value           uniform 0;
    }
    outlet
    {
        type            zeroGradient;
    }
    procBoundary2to3
    {
        type            processor;
        value           uniform 3.60203e-37;
    }
}


// ************************************************************************* //
