/*--------------------------------*- C++ -*----------------------------------*\
  =========                 |
  \\      /  F ield         | OpenFOAM: The Open Source CFD Toolbox
   \\    /   O peration     | Website:  https://openfoam.org
    \\  /    A nd           | Version:  7
     \\/     M anipulation  |
\*---------------------------------------------------------------------------*/
FoamFile
{
    version     2.0;
    format      ascii;
    class       volScalarField;
    location    "6e-05";
    object      O;
}
// * * * * * * * * * * * * * * * * * * * * * * * * * * * * * * * * * * * * * //

dimensions      [0 0 0 0 0 0 0];

internalField   nonuniform List<scalar> 
125
(
1.65445e-47
3.93511e-47
6.07249e-47
7.91717e-47
9.38204e-47
1.04534e-46
1.11779e-46
1.16333e-46
1.19012e-46
1.20496e-46
1.21273e-46
1.2166e-46
1.21845e-46
1.21929e-46
1.21965e-46
1.21981e-46
1.21987e-46
1.2199e-46
1.21991e-46
1.21991e-46
1.21992e-46
1.21992e-46
1.21992e-46
1.21992e-46
1.21992e-46
1.21992e-46
1.21992e-46
1.21992e-46
1.21993e-46
1.21993e-46
1.21993e-46
1.21993e-46
1.21994e-46
1.21994e-46
1.21994e-46
1.21995e-46
1.21995e-46
1.21996e-46
1.21996e-46
1.21997e-46
1.21998e-46
1.21998e-46
1.21999e-46
1.22e-46
1.22001e-46
1.22002e-46
1.22003e-46
1.22004e-46
1.22005e-46
1.22007e-46
1.22008e-46
1.22009e-46
1.22011e-46
1.22013e-46
1.22014e-46
1.22016e-46
1.22018e-46
1.2202e-46
1.22022e-46
1.22025e-46
1.22027e-46
1.22029e-46
1.22032e-46
1.22035e-46
1.22037e-46
1.2204e-46
1.22043e-46
1.22046e-46
1.2205e-46
1.22053e-46
1.22056e-46
1.2206e-46
1.22064e-46
1.22068e-46
1.22072e-46
1.22076e-46
1.2208e-46
1.22084e-46
1.22089e-46
1.22093e-46
1.22098e-46
1.22103e-46
1.22108e-46
1.22113e-46
1.22118e-46
1.22124e-46
1.22129e-46
1.22135e-46
1.22141e-46
1.22147e-46
1.22153e-46
1.22159e-46
1.22166e-46
1.22172e-46
1.22179e-46
1.22186e-46
1.22193e-46
1.222e-46
1.22207e-46
1.22214e-46
1.22222e-46
1.22229e-46
1.22237e-46
1.22245e-46
1.22253e-46
1.22261e-46
1.22269e-46
1.22278e-46
1.22286e-46
1.22295e-46
1.22304e-46
1.22312e-46
1.22321e-46
1.2233e-46
1.2234e-46
1.22349e-46
1.22358e-46
1.22367e-46
1.22376e-46
1.22383e-46
1.2238e-46
1.22345e-46
1.22193e-46
1.21668e-46
1.20044e-46
)
;

boundaryField
{
    boundary
    {
        type            empty;
    }
    inlet
    {
        type            fixedValue;
        value           uniform 0;
    }
    outlet
    {
        type            zeroGradient;
    }
    procBoundary2to3
    {
        type            processor;
        value           uniform 1.1811e-46;
    }
}


// ************************************************************************* //
