/*--------------------------------*- C++ -*----------------------------------*\
  =========                 |
  \\      /  F ield         | OpenFOAM: The Open Source CFD Toolbox
   \\    /   O peration     | Website:  https://openfoam.org
    \\  /    A nd           | Version:  7
     \\/     M anipulation  |
\*---------------------------------------------------------------------------*/
FoamFile
{
    version     2.0;
    format      ascii;
    class       volScalarField;
    location    "6e-05";
    object      OH;
}
// * * * * * * * * * * * * * * * * * * * * * * * * * * * * * * * * * * * * * //

dimensions      [0 0 0 0 0 0 0];

internalField   nonuniform List<scalar> 
125
(
1.03015e-47
2.12252e-47
2.96296e-47
3.59169e-47
4.04143e-47
4.34448e-47
4.53538e-47
4.64767e-47
4.70952e-47
4.74158e-47
4.75729e-47
4.7646e-47
4.76783e-47
4.76919e-47
4.76972e-47
4.76989e-47
4.76992e-47
4.76989e-47
4.76983e-47
4.76976e-47
4.76968e-47
4.76959e-47
4.76951e-47
4.76941e-47
4.76932e-47
4.76922e-47
4.76911e-47
4.769e-47
4.76889e-47
4.76877e-47
4.76865e-47
4.76853e-47
4.7684e-47
4.76827e-47
4.76813e-47
4.76799e-47
4.76785e-47
4.7677e-47
4.76755e-47
4.7674e-47
4.76725e-47
4.76709e-47
4.76693e-47
4.76676e-47
4.7666e-47
4.76643e-47
4.76625e-47
4.76608e-47
4.7659e-47
4.76572e-47
4.76554e-47
4.76536e-47
4.76517e-47
4.76498e-47
4.76479e-47
4.7646e-47
4.7644e-47
4.76421e-47
4.76401e-47
4.76381e-47
4.76361e-47
4.76341e-47
4.7632e-47
4.763e-47
4.76279e-47
4.76258e-47
4.76237e-47
4.76216e-47
4.76194e-47
4.76173e-47
4.76152e-47
4.7613e-47
4.76108e-47
4.76087e-47
4.76065e-47
4.76043e-47
4.76021e-47
4.75999e-47
4.75976e-47
4.75954e-47
4.75932e-47
4.75909e-47
4.75887e-47
4.75865e-47
4.75842e-47
4.75819e-47
4.75797e-47
4.75774e-47
4.75751e-47
4.75728e-47
4.75705e-47
4.75682e-47
4.75659e-47
4.75636e-47
4.75613e-47
4.7559e-47
4.75567e-47
4.75544e-47
4.7552e-47
4.75497e-47
4.75473e-47
4.7545e-47
4.75426e-47
4.75402e-47
4.75378e-47
4.75354e-47
4.7533e-47
4.75306e-47
4.75282e-47
4.75257e-47
4.75233e-47
4.75208e-47
4.75183e-47
4.75157e-47
4.75132e-47
4.75106e-47
4.7508e-47
4.75053e-47
4.75026e-47
4.74996e-47
4.74957e-47
4.74885e-47
4.74696e-47
4.74099e-47
4.71992e-47
)
;

boundaryField
{
    boundary
    {
        type            empty;
    }
    inlet
    {
        type            fixedValue;
        value           uniform 0;
    }
    outlet
    {
        type            zeroGradient;
    }
    procBoundary2to3
    {
        type            processor;
        value           uniform 4.69379e-47;
    }
}


// ************************************************************************* //
