/*--------------------------------*- C++ -*----------------------------------*\
  =========                 |
  \\      /  F ield         | OpenFOAM: The Open Source CFD Toolbox
   \\    /   O peration     | Website:  https://openfoam.org
    \\  /    A nd           | Version:  7
     \\/     M anipulation  |
\*---------------------------------------------------------------------------*/
FoamFile
{
    version     2.0;
    format      ascii;
    class       volScalarField;
    location    "6e-05";
    object      p;
}
// * * * * * * * * * * * * * * * * * * * * * * * * * * * * * * * * * * * * * //

dimensions      [1 -1 -2 0 0 0 0];

internalField   nonuniform List<scalar> 
125
(
102882
102882
102882
102882
102882
102882
102882
102882
102882
102882
102881
102881
102881
102881
102881
102881
102880
102880
102880
102879
102879
102879
102879
102878
102878
102878
102877
102877
102876
102876
102876
102875
102875
102874
102874
102873
102873
102872
102872
102871
102871
102870
102869
102869
102868
102868
102867
102866
102866
102865
102864
102863
102863
102862
102861
102861
102860
102859
102858
102857
102857
102856
102855
102854
102853
102852
102852
102851
102850
102849
102848
102847
102846
102845
102844
102843
102842
102841
102840
102839
102838
102837
102836
102835
102834
102833
102832
102831
102830
102829
102828
102826
102825
102824
102823
102822
102821
102820
102819
102817
102816
102815
102814
102813
102812
102810
102809
102808
102807
102806
102804
102803
102802
102801
102799
102798
102797
102796
102794
102793
102792
102791
102789
102788
102787
)
;

boundaryField
{
    boundary
    {
        type            empty;
    }
    inlet
    {
        type            zeroGradient;
    }
    outlet
    {
        type            waveTransmissive;
        gamma           1.4;
        value           nonuniform 0();
    }
    procBoundary2to3
    {
        type            processor;
        value           uniform 102786;
    }
}


// ************************************************************************* //
