/*--------------------------------*- C++ -*----------------------------------*\
  =========                 |
  \\      /  F ield         | OpenFOAM: The Open Source CFD Toolbox
   \\    /   O peration     | Website:  https://openfoam.org
    \\  /    A nd           | Version:  7
     \\/     M anipulation  |
\*---------------------------------------------------------------------------*/
FoamFile
{
    version     2.0;
    format      ascii;
    class       surfaceScalarField;
    location    "6e-05";
    object      phi;
}
// * * * * * * * * * * * * * * * * * * * * * * * * * * * * * * * * * * * * * //

dimensions      [1 0 -1 0 0 0 0];

internalField   nonuniform List<scalar> 
124
(
6.90143e-06
6.88844e-06
6.87562e-06
6.8636e-06
6.85272e-06
6.84304e-06
6.8344e-06
6.82655e-06
6.81924e-06
6.81224e-06
6.80542e-06
6.7987e-06
6.79203e-06
6.78539e-06
6.77878e-06
6.77218e-06
6.7656e-06
6.75904e-06
6.7525e-06
6.74598e-06
6.73948e-06
6.73299e-06
6.72654e-06
6.7201e-06
6.71369e-06
6.7073e-06
6.70093e-06
6.6946e-06
6.68829e-06
6.682e-06
6.67575e-06
6.66952e-06
6.66332e-06
6.65716e-06
6.65102e-06
6.64492e-06
6.63884e-06
6.6328e-06
6.62679e-06
6.62082e-06
6.61488e-06
6.60897e-06
6.6031e-06
6.59726e-06
6.59146e-06
6.5857e-06
6.57997e-06
6.57427e-06
6.56862e-06
6.563e-06
6.55742e-06
6.55187e-06
6.54637e-06
6.5409e-06
6.53546e-06
6.53007e-06
6.52471e-06
6.51939e-06
6.51411e-06
6.50887e-06
6.50366e-06
6.49849e-06
6.49336e-06
6.48827e-06
6.48321e-06
6.47819e-06
6.4732e-06
6.46825e-06
6.46334e-06
6.45846e-06
6.45362e-06
6.44881e-06
6.44404e-06
6.4393e-06
6.43459e-06
6.42991e-06
6.42527e-06
6.42066e-06
6.41608e-06
6.41153e-06
6.40701e-06
6.40252e-06
6.39806e-06
6.39362e-06
6.38921e-06
6.38483e-06
6.38047e-06
6.37614e-06
6.37183e-06
6.36754e-06
6.36327e-06
6.35903e-06
6.3548e-06
6.3506e-06
6.34641e-06
6.34224e-06
6.33808e-06
6.33394e-06
6.32982e-06
6.3257e-06
6.3216e-06
6.31751e-06
6.31343e-06
6.30936e-06
6.30529e-06
6.30123e-06
6.29718e-06
6.29313e-06
6.28908e-06
6.28503e-06
6.28099e-06
6.27694e-06
6.27289e-06
6.26883e-06
6.26477e-06
6.26071e-06
6.25663e-06
6.25255e-06
6.24845e-06
6.24435e-06
6.24023e-06
6.23609e-06
6.23194e-06
6.22777e-06
)
;

boundaryField
{
    boundary
    {
        type            empty;
        value           nonuniform 0();
    }
    inlet
    {
        type            calculated;
        value           uniform -6.9136e-06;
    }
    outlet
    {
        type            calculated;
        value           nonuniform 0();
    }
    procBoundary2to3
    {
        type            processor;
        value           uniform 6.22358e-06;
    }
}


// ************************************************************************* //
