/*--------------------------------*- C++ -*----------------------------------*\
  =========                 |
  \\      /  F ield         | OpenFOAM: The Open Source CFD Toolbox
   \\    /   O peration     | Website:  https://openfoam.org
    \\  /    A nd           | Version:  7
     \\/     M anipulation  |
\*---------------------------------------------------------------------------*/
FoamFile
{
    version     2.0;
    format      ascii;
    class       volScalarField;
    location    "6e-05";
    object      Qdot;
}
// * * * * * * * * * * * * * * * * * * * * * * * * * * * * * * * * * * * * * //

dimensions      [1 -1 -3 0 0 0 0];

internalField   nonuniform List<scalar> 
125
(
-2.53165e-27
-2.11782e-27
-2.13824e-27
-2.24033e-27
-2.33698e-27
-2.40793e-27
-2.45315e-27
-2.47898e-27
-2.49241e-27
-2.49884e-27
-2.50166e-27
-2.50278e-27
-2.50316e-27
-2.50321e-27
-2.50314e-27
-2.50302e-27
-2.50287e-27
-2.50271e-27
-2.50253e-27
-2.50235e-27
-2.50215e-27
-2.50194e-27
-2.50173e-27
-2.50151e-27
-2.50127e-27
-2.50103e-27
-2.50078e-27
-2.50051e-27
-2.50024e-27
-2.49996e-27
-2.49967e-27
-2.49937e-27
-2.49906e-27
-2.49875e-27
-2.49842e-27
-2.49809e-27
-2.49774e-27
-2.49739e-27
-2.49703e-27
-2.49666e-27
-2.49628e-27
-2.4959e-27
-2.4955e-27
-2.4951e-27
-2.49469e-27
-2.49427e-27
-2.49384e-27
-2.4934e-27
-2.49296e-27
-2.49251e-27
-2.49205e-27
-2.49159e-27
-2.49111e-27
-2.49063e-27
-2.49014e-27
-2.48965e-27
-2.48915e-27
-2.48864e-27
-2.48812e-27
-2.4876e-27
-2.48707e-27
-2.48654e-27
-2.486e-27
-2.48545e-27
-2.4849e-27
-2.48434e-27
-2.48377e-27
-2.4832e-27
-2.48263e-27
-2.48205e-27
-2.48146e-27
-2.48087e-27
-2.48028e-27
-2.47968e-27
-2.47907e-27
-2.47846e-27
-2.47785e-27
-2.47723e-27
-2.47661e-27
-2.47598e-27
-2.47535e-27
-2.47472e-27
-2.47408e-27
-2.47344e-27
-2.4728e-27
-2.47215e-27
-2.4715e-27
-2.47085e-27
-2.4702e-27
-2.46954e-27
-2.46888e-27
-2.46822e-27
-2.46755e-27
-2.46689e-27
-2.46622e-27
-2.46555e-27
-2.46488e-27
-2.4642e-27
-2.46353e-27
-2.46285e-27
-2.46217e-27
-2.4615e-27
-2.46082e-27
-2.46013e-27
-2.45945e-27
-2.45877e-27
-2.45808e-27
-2.4574e-27
-2.45671e-27
-2.45602e-27
-2.45533e-27
-2.45465e-27
-2.45396e-27
-2.45326e-27
-2.45257e-27
-2.45188e-27
-2.45119e-27
-2.45049e-27
-2.44979e-27
-2.4491e-27
-2.4484e-27
-2.4477e-27
-2.44702e-27
-2.44651e-27
-2.44724e-27
)
;

boundaryField
{
    boundary
    {
        type            empty;
    }
    inlet
    {
        type            calculated;
        value           uniform 0;
    }
    outlet
    {
        type            calculated;
        value           nonuniform 0();
    }
    procBoundary2to3
    {
        type            processor;
        value           uniform 0;
    }
}


// ************************************************************************* //
