/*--------------------------------*- C++ -*----------------------------------*\
  =========                 |
  \\      /  F ield         | OpenFOAM: The Open Source CFD Toolbox
   \\    /   O peration     | Website:  https://openfoam.org
    \\  /    A nd           | Version:  7
     \\/     M anipulation  |
\*---------------------------------------------------------------------------*/
FoamFile
{
    version     2.0;
    format      ascii;
    class       volScalarField;
    location    "6e-05";
    object      T;
}
// * * * * * * * * * * * * * * * * * * * * * * * * * * * * * * * * * * * * * //

dimensions      [0 0 0 1 0 0 0];

internalField   nonuniform List<scalar> 
125
(
300.178
300.439
300.681
300.884
301.038
301.145
301.213
301.253
301.274
301.285
301.29
301.292
301.293
301.293
301.293
301.293
301.293
301.293
301.293
301.292
301.292
301.292
301.292
301.291
301.291
301.291
301.291
301.29
301.29
301.29
301.289
301.289
301.289
301.288
301.288
301.288
301.287
301.287
301.287
301.286
301.286
301.285
301.285
301.284
301.284
301.284
301.283
301.283
301.282
301.282
301.281
301.281
301.28
301.28
301.279
301.278
301.278
301.277
301.277
301.276
301.276
301.275
301.274
301.274
301.273
301.273
301.272
301.271
301.271
301.27
301.269
301.269
301.268
301.267
301.267
301.266
301.265
301.265
301.264
301.263
301.263
301.262
301.261
301.26
301.26
301.259
301.258
301.258
301.257
301.256
301.255
301.255
301.254
301.253
301.252
301.252
301.251
301.25
301.249
301.248
301.248
301.247
301.246
301.245
301.245
301.244
301.243
301.242
301.241
301.241
301.24
301.239
301.238
301.237
301.237
301.236
301.235
301.234
301.233
301.232
301.232
301.231
301.23
301.229
301.228
)
;

boundaryField
{
    boundary
    {
        type            empty;
    }
    inlet
    {
        type            fixedValue;
        value           uniform 300;
    }
    outlet
    {
        type            zeroGradient;
    }
    procBoundary2to3
    {
        type            processor;
        value           uniform 301.226;
    }
}


// ************************************************************************* //
