/*--------------------------------*- C++ -*----------------------------------*\
  =========                 |
  \\      /  F ield         | OpenFOAM: The Open Source CFD Toolbox
   \\    /   O peration     | Website:  https://openfoam.org
    \\  /    A nd           | Version:  7
     \\/     M anipulation  |
\*---------------------------------------------------------------------------*/
FoamFile
{
    version     2.0;
    format      ascii;
    class       volVectorField;
    location    "6e-05";
    object      U;
}
// * * * * * * * * * * * * * * * * * * * * * * * * * * * * * * * * * * * * * //

dimensions      [0 1 -1 0 0 0 0];

internalField   nonuniform List<vector> 
125
(
(2.34888 0 0)
(2.34719 0 0)
(2.34369 0 0)
(2.34052 0 0)
(2.33793 0 0)
(2.33541 0 0)
(2.33285 0 0)
(2.33034 0 0)
(2.32796 0 0)
(2.32559 0 0)
(2.3233 0 0)
(2.32102 0 0)
(2.31873 0 0)
(2.31647 0 0)
(2.31422 0 0)
(2.31198 0 0)
(2.30972 0 0)
(2.30749 0 0)
(2.30527 0 0)
(2.30304 0 0)
(2.30082 0 0)
(2.2986 0 0)
(2.2964 0 0)
(2.29421 0 0)
(2.29202 0 0)
(2.28985 0 0)
(2.28766 0 0)
(2.28553 0 0)
(2.2834 0 0)
(2.28121 0 0)
(2.27906 0 0)
(2.27696 0 0)
(2.27486 0 0)
(2.27275 0 0)
(2.27066 0 0)
(2.26858 0 0)
(2.26651 0 0)
(2.26445 0 0)
(2.2624 0 0)
(2.26037 0 0)
(2.25834 0 0)
(2.25633 0 0)
(2.25433 0 0)
(2.25234 0 0)
(2.25037 0 0)
(2.24841 0 0)
(2.24646 0 0)
(2.24452 0 0)
(2.24259 0 0)
(2.24068 0 0)
(2.23878 0 0)
(2.23689 0 0)
(2.23502 0 0)
(2.23316 0 0)
(2.23131 0 0)
(2.22947 0 0)
(2.22765 0 0)
(2.22584 0 0)
(2.22404 0 0)
(2.22226 0 0)
(2.22049 0 0)
(2.21873 0 0)
(2.21699 0 0)
(2.21526 0 0)
(2.21354 0 0)
(2.21183 0 0)
(2.21014 0 0)
(2.20846 0 0)
(2.20679 0 0)
(2.20513 0 0)
(2.20349 0 0)
(2.20186 0 0)
(2.20024 0 0)
(2.19863 0 0)
(2.19703 0 0)
(2.19545 0 0)
(2.19387 0 0)
(2.19231 0 0)
(2.19076 0 0)
(2.18922 0 0)
(2.18768 0 0)
(2.18616 0 0)
(2.18465 0 0)
(2.18315 0 0)
(2.18166 0 0)
(2.18017 0 0)
(2.1787 0 0)
(2.17723 0 0)
(2.17577 0 0)
(2.17433 0 0)
(2.17288 0 0)
(2.17145 0 0)
(2.17002 0 0)
(2.1686 0 0)
(2.16718 0 0)
(2.16577 0 0)
(2.16438 0 0)
(2.16298 0 0)
(2.16158 0 0)
(2.16019 0 0)
(2.15881 0 0)
(2.15743 0 0)
(2.15605 0 0)
(2.15468 0 0)
(2.15331 0 0)
(2.15194 0 0)
(2.15058 0 0)
(2.1492 0 0)
(2.14785 0 0)
(2.14649 0 0)
(2.14511 0 0)
(2.14375 0 0)
(2.14239 0 0)
(2.14103 0 0)
(2.13966 0 0)
(2.13829 0 0)
(2.13692 0 0)
(2.13554 0 0)
(2.13416 0 0)
(2.13279 0 0)
(2.1314 0 0)
(2.13 0 0)
(2.12862 0 0)
(2.12721 0 0)
(2.12572 0 0)
)
;

boundaryField
{
    boundary
    {
        type            empty;
    }
    inlet
    {
        type            fixedValue;
        value           uniform (2.34893 0 0);
    }
    outlet
    {
        type            zeroGradient;
    }
    procBoundary2to3
    {
        type            processor;
        value           uniform (2.12429 0 0);
    }
}


// ************************************************************************* //
