/*--------------------------------*- C++ -*----------------------------------*\
  =========                 |
  \\      /  F ield         | OpenFOAM: The Open Source CFD Toolbox
   \\    /   O peration     | Website:  https://openfoam.org
    \\  /    A nd           | Version:  7
     \\/     M anipulation  |
\*---------------------------------------------------------------------------*/
FoamFile
{
    version     2.0;
    format      ascii;
    class       volScalarField;
    location    "4e-05";
    object      H;
}
// * * * * * * * * * * * * * * * * * * * * * * * * * * * * * * * * * * * * * //

dimensions      [0 0 0 0 0 0 0];

internalField   nonuniform List<scalar> 
125
(
1.48716e-41
2.24679e-41
2.5459e-41
2.68651e-41
2.75486e-41
2.78658e-41
2.80036e-41
2.80605e-41
2.80836e-41
2.80938e-41
2.80995e-41
2.81037e-41
2.81077e-41
2.81119e-41
2.81162e-41
2.81209e-41
2.81258e-41
2.8131e-41
2.81364e-41
2.81421e-41
2.81481e-41
2.81544e-41
2.81609e-41
2.81677e-41
2.81747e-41
2.81819e-41
2.81894e-41
2.8197e-41
2.8205e-41
2.82131e-41
2.82214e-41
2.82299e-41
2.82386e-41
2.82475e-41
2.82566e-41
2.82658e-41
2.82752e-41
2.82848e-41
2.82945e-41
2.83043e-41
2.83143e-41
2.83244e-41
2.83346e-41
2.83449e-41
2.83553e-41
2.83658e-41
2.83764e-41
2.83871e-41
2.83978e-41
2.84085e-41
2.84194e-41
2.84302e-41
2.84411e-41
2.84521e-41
2.8463e-41
2.84739e-41
2.84849e-41
2.84958e-41
2.85067e-41
2.85176e-41
2.85285e-41
2.85393e-41
2.85501e-41
2.85608e-41
2.85714e-41
2.8582e-41
2.85925e-41
2.86029e-41
2.86133e-41
2.86235e-41
2.86336e-41
2.86436e-41
2.86535e-41
2.86632e-41
2.86729e-41
2.86823e-41
2.86917e-41
2.87008e-41
2.87098e-41
2.87187e-41
2.87274e-41
2.87359e-41
2.87442e-41
2.87523e-41
2.87602e-41
2.8768e-41
2.87755e-41
2.87828e-41
2.87899e-41
2.87968e-41
2.88035e-41
2.88099e-41
2.88161e-41
2.88221e-41
2.88278e-41
2.88333e-41
2.88386e-41
2.88436e-41
2.88483e-41
2.88528e-41
2.8857e-41
2.8861e-41
2.88647e-41
2.88681e-41
2.88713e-41
2.88742e-41
2.88768e-41
2.88791e-41
2.88812e-41
2.8883e-41
2.88845e-41
2.88857e-41
2.88866e-41
2.88873e-41
2.88876e-41
2.88877e-41
2.88875e-41
2.8887e-41
2.88862e-41
2.88851e-41
2.88837e-41
2.88815e-41
2.88771e-41
2.88613e-41
2.87847e-41
)
;

boundaryField
{
    boundary
    {
        type            empty;
    }
    inlet
    {
        type            fixedValue;
        value           uniform 0;
    }
    outlet
    {
        type            zeroGradient;
    }
    procBoundary2to3
    {
        type            processor;
        value           uniform 2.87527e-41;
    }
}


// ************************************************************************* //
