/*--------------------------------*- C++ -*----------------------------------*\
  =========                 |
  \\      /  F ield         | OpenFOAM: The Open Source CFD Toolbox
   \\    /   O peration     | Website:  https://openfoam.org
    \\  /    A nd           | Version:  7
     \\/     M anipulation  |
\*---------------------------------------------------------------------------*/
FoamFile
{
    version     2.0;
    format      ascii;
    class       volScalarField;
    location    "4e-05";
    object      H2O;
}
// * * * * * * * * * * * * * * * * * * * * * * * * * * * * * * * * * * * * * //

dimensions      [0 0 0 0 0 0 0];

internalField   nonuniform List<scalar> 
125
(
6.96045e-48
1.75852e-47
2.7129e-47
3.42509e-47
3.88777e-47
4.15672e-47
4.29912e-47
4.36869e-47
4.40035e-47
4.41389e-47
4.41938e-47
4.42153e-47
4.42236e-47
4.42271e-47
4.42289e-47
4.42301e-47
4.42313e-47
4.42324e-47
4.42336e-47
4.42348e-47
4.42362e-47
4.42375e-47
4.4239e-47
4.42406e-47
4.42422e-47
4.42439e-47
4.42457e-47
4.42475e-47
4.42495e-47
4.42515e-47
4.42536e-47
4.42558e-47
4.4258e-47
4.42604e-47
4.42629e-47
4.42654e-47
4.4268e-47
4.42707e-47
4.42736e-47
4.42765e-47
4.42795e-47
4.42826e-47
4.42858e-47
4.42891e-47
4.42925e-47
4.4296e-47
4.42996e-47
4.43033e-47
4.43071e-47
4.4311e-47
4.43151e-47
4.43192e-47
4.43234e-47
4.43278e-47
4.43323e-47
4.43369e-47
4.43415e-47
4.43464e-47
4.43513e-47
4.43563e-47
4.43615e-47
4.43668e-47
4.43722e-47
4.43777e-47
4.43834e-47
4.43891e-47
4.4395e-47
4.4401e-47
4.44072e-47
4.44134e-47
4.44198e-47
4.44263e-47
4.4433e-47
4.44398e-47
4.44467e-47
4.44537e-47
4.44609e-47
4.44682e-47
4.44756e-47
4.44832e-47
4.44909e-47
4.44987e-47
4.45067e-47
4.45148e-47
4.4523e-47
4.45314e-47
4.45399e-47
4.45486e-47
4.45574e-47
4.45663e-47
4.45754e-47
4.45846e-47
4.45939e-47
4.46034e-47
4.4613e-47
4.46228e-47
4.46327e-47
4.46428e-47
4.4653e-47
4.46633e-47
4.46738e-47
4.46845e-47
4.46952e-47
4.47062e-47
4.47172e-47
4.47284e-47
4.47398e-47
4.47513e-47
4.47629e-47
4.47747e-47
4.47866e-47
4.47987e-47
4.48109e-47
4.48233e-47
4.48358e-47
4.48484e-47
4.48611e-47
4.4874e-47
4.4887e-47
4.48997e-47
4.49104e-47
4.4911e-47
4.48643e-47
4.46153e-47
4.35747e-47
)
;

boundaryField
{
    boundary
    {
        type            empty;
    }
    inlet
    {
        type            fixedValue;
        value           uniform 0;
    }
    outlet
    {
        type            zeroGradient;
    }
    procBoundary2to3
    {
        type            processor;
        value           uniform 4.21576e-47;
    }
}


// ************************************************************************* //
