/*--------------------------------*- C++ -*----------------------------------*\
  =========                 |
  \\      /  F ield         | OpenFOAM: The Open Source CFD Toolbox
   \\    /   O peration     | Website:  https://openfoam.org
    \\  /    A nd           | Version:  7
     \\/     M anipulation  |
\*---------------------------------------------------------------------------*/
FoamFile
{
    version     2.0;
    format      ascii;
    class       volScalarField;
    location    "4e-05";
    object      H2O2;
}
// * * * * * * * * * * * * * * * * * * * * * * * * * * * * * * * * * * * * * //

dimensions      [0 0 0 0 0 0 0];

internalField   nonuniform List<scalar> 
125
(
1.45059e-52
3.81442e-52
6.04541e-52
7.75306e-52
8.8703e-52
9.51561e-52
9.85188e-52
1.00124e-51
1.00835e-51
1.0113e-51
1.01246e-51
1.0129e-51
1.01307e-51
1.01314e-51
1.01319e-51
1.01322e-51
1.01325e-51
1.01329e-51
1.01332e-51
1.01336e-51
1.0134e-51
1.01344e-51
1.01348e-51
1.01353e-51
1.01358e-51
1.01362e-51
1.01368e-51
1.01373e-51
1.01379e-51
1.01384e-51
1.0139e-51
1.01396e-51
1.01403e-51
1.01409e-51
1.01416e-51
1.01423e-51
1.0143e-51
1.01438e-51
1.01446e-51
1.01453e-51
1.01461e-51
1.0147e-51
1.01478e-51
1.01487e-51
1.01496e-51
1.01505e-51
1.01515e-51
1.01524e-51
1.01534e-51
1.01544e-51
1.01554e-51
1.01565e-51
1.01575e-51
1.01586e-51
1.01598e-51
1.01609e-51
1.01621e-51
1.01632e-51
1.01644e-51
1.01657e-51
1.01669e-51
1.01682e-51
1.01695e-51
1.01708e-51
1.01722e-51
1.01735e-51
1.01749e-51
1.01763e-51
1.01778e-51
1.01792e-51
1.01807e-51
1.01822e-51
1.01838e-51
1.01853e-51
1.01869e-51
1.01885e-51
1.01901e-51
1.01918e-51
1.01935e-51
1.01952e-51
1.01969e-51
1.01986e-51
1.02004e-51
1.02022e-51
1.0204e-51
1.02059e-51
1.02078e-51
1.02097e-51
1.02116e-51
1.02135e-51
1.02155e-51
1.02175e-51
1.02196e-51
1.02216e-51
1.02237e-51
1.02258e-51
1.02279e-51
1.02301e-51
1.02323e-51
1.02345e-51
1.02368e-51
1.0239e-51
1.02413e-51
1.02437e-51
1.0246e-51
1.02484e-51
1.02508e-51
1.02533e-51
1.02557e-51
1.02582e-51
1.02607e-51
1.02633e-51
1.02659e-51
1.02685e-51
1.02711e-51
1.02738e-51
1.02765e-51
1.02792e-51
1.02819e-51
1.02846e-51
1.02871e-51
1.0288e-51
1.028e-51
1.02264e-51
9.96749e-52
)
;

boundaryField
{
    boundary
    {
        type            empty;
    }
    inlet
    {
        type            fixedValue;
        value           uniform 0;
    }
    outlet
    {
        type            zeroGradient;
    }
    procBoundary2to3
    {
        type            processor;
        value           uniform 9.57371e-52;
    }
}


// ************************************************************************* //
