/*--------------------------------*- C++ -*----------------------------------*\
  =========                 |
  \\      /  F ield         | OpenFOAM: The Open Source CFD Toolbox
   \\    /   O peration     | Website:  https://openfoam.org
    \\  /    A nd           | Version:  7
     \\/     M anipulation  |
\*---------------------------------------------------------------------------*/
FoamFile
{
    version     2.0;
    format      ascii;
    class       volScalarField;
    location    "4e-05";
    object      HO2;
}
// * * * * * * * * * * * * * * * * * * * * * * * * * * * * * * * * * * * * * //

dimensions      [0 0 0 0 0 0 0];

internalField   nonuniform List<scalar> 
125
(
5.32295e-38
1.12759e-37
1.58575e-37
1.89432e-37
2.07942e-37
2.17992e-37
2.22995e-37
2.25302e-37
2.26296e-37
2.267e-37
2.26855e-37
2.26914e-37
2.26936e-37
2.26945e-37
2.26951e-37
2.26955e-37
2.26959e-37
2.26963e-37
2.26968e-37
2.26972e-37
2.26977e-37
2.26982e-37
2.26987e-37
2.26993e-37
2.26999e-37
2.27005e-37
2.27011e-37
2.27017e-37
2.27024e-37
2.27031e-37
2.27038e-37
2.27046e-37
2.27053e-37
2.27061e-37
2.27069e-37
2.27078e-37
2.27087e-37
2.27095e-37
2.27105e-37
2.27114e-37
2.27124e-37
2.27133e-37
2.27144e-37
2.27154e-37
2.27165e-37
2.27175e-37
2.27186e-37
2.27198e-37
2.27209e-37
2.27221e-37
2.27233e-37
2.27246e-37
2.27258e-37
2.27271e-37
2.27284e-37
2.27297e-37
2.27311e-37
2.27325e-37
2.27339e-37
2.27353e-37
2.27368e-37
2.27382e-37
2.27397e-37
2.27413e-37
2.27428e-37
2.27444e-37
2.2746e-37
2.27476e-37
2.27493e-37
2.27509e-37
2.27526e-37
2.27543e-37
2.27561e-37
2.27579e-37
2.27596e-37
2.27615e-37
2.27633e-37
2.27652e-37
2.27671e-37
2.2769e-37
2.27709e-37
2.27729e-37
2.27749e-37
2.27769e-37
2.2779e-37
2.2781e-37
2.27831e-37
2.27852e-37
2.27874e-37
2.27896e-37
2.27918e-37
2.2794e-37
2.27963e-37
2.27985e-37
2.28009e-37
2.28032e-37
2.28056e-37
2.2808e-37
2.28104e-37
2.28128e-37
2.28153e-37
2.28178e-37
2.28204e-37
2.2823e-37
2.28256e-37
2.28282e-37
2.28309e-37
2.28335e-37
2.28363e-37
2.2839e-37
2.28418e-37
2.28446e-37
2.28475e-37
2.28503e-37
2.28532e-37
2.28562e-37
2.28592e-37
2.28621e-37
2.28652e-37
2.28682e-37
2.28708e-37
2.28715e-37
2.28606e-37
2.27914e-37
2.24581e-37
)
;

boundaryField
{
    boundary
    {
        type            empty;
    }
    inlet
    {
        type            fixedValue;
        value           uniform 0;
    }
    outlet
    {
        type            zeroGradient;
    }
    procBoundary2to3
    {
        type            processor;
        value           uniform 2.19592e-37;
    }
}


// ************************************************************************* //
