/*--------------------------------*- C++ -*----------------------------------*\
  =========                 |
  \\      /  F ield         | OpenFOAM: The Open Source CFD Toolbox
   \\    /   O peration     | Website:  https://openfoam.org
    \\  /    A nd           | Version:  7
     \\/     M anipulation  |
\*---------------------------------------------------------------------------*/
FoamFile
{
    version     2.0;
    format      ascii;
    class       volScalarField;
    location    "4e-05";
    object      O;
}
// * * * * * * * * * * * * * * * * * * * * * * * * * * * * * * * * * * * * * //

dimensions      [0 0 0 0 0 0 0];

internalField   nonuniform List<scalar> 
125
(
1.51534e-47
3.38506e-47
4.86737e-47
5.90251e-47
6.55146e-47
6.92281e-47
7.1192e-47
7.21611e-47
7.26105e-47
7.28076e-47
7.289e-47
7.29232e-47
7.29364e-47
7.2942e-47
7.29447e-47
7.29465e-47
7.2948e-47
7.29494e-47
7.29509e-47
7.29525e-47
7.29542e-47
7.29559e-47
7.29577e-47
7.29596e-47
7.29616e-47
7.29637e-47
7.29659e-47
7.29681e-47
7.29704e-47
7.29729e-47
7.29754e-47
7.2978e-47
7.29807e-47
7.29835e-47
7.29863e-47
7.29893e-47
7.29923e-47
7.29955e-47
7.29987e-47
7.30021e-47
7.30055e-47
7.3009e-47
7.30127e-47
7.30164e-47
7.30202e-47
7.30241e-47
7.30281e-47
7.30322e-47
7.30364e-47
7.30407e-47
7.30451e-47
7.30496e-47
7.30542e-47
7.30589e-47
7.30637e-47
7.30686e-47
7.30736e-47
7.30787e-47
7.30839e-47
7.30892e-47
7.30946e-47
7.31001e-47
7.31057e-47
7.31114e-47
7.31172e-47
7.31231e-47
7.31291e-47
7.31352e-47
7.31414e-47
7.31477e-47
7.31541e-47
7.31606e-47
7.31672e-47
7.31739e-47
7.31807e-47
7.31876e-47
7.31946e-47
7.32017e-47
7.32089e-47
7.32162e-47
7.32237e-47
7.32312e-47
7.32388e-47
7.32466e-47
7.32544e-47
7.32623e-47
7.32704e-47
7.32786e-47
7.32868e-47
7.32952e-47
7.33037e-47
7.33123e-47
7.3321e-47
7.33299e-47
7.33388e-47
7.33479e-47
7.3357e-47
7.33663e-47
7.33757e-47
7.33853e-47
7.33949e-47
7.34047e-47
7.34146e-47
7.34246e-47
7.34347e-47
7.3445e-47
7.34553e-47
7.34658e-47
7.34765e-47
7.34872e-47
7.34981e-47
7.35091e-47
7.35202e-47
7.35315e-47
7.35428e-47
7.35543e-47
7.3566e-47
7.35777e-47
7.35893e-47
7.36004e-47
7.36082e-47
7.36016e-47
7.35334e-47
7.32143e-47
7.19523e-47
)
;

boundaryField
{
    boundary
    {
        type            empty;
    }
    inlet
    {
        type            fixedValue;
        value           uniform 0;
    }
    outlet
    {
        type            zeroGradient;
    }
    procBoundary2to3
    {
        type            processor;
        value           uniform 7.05815e-47;
    }
}


// ************************************************************************* //
