/*--------------------------------*- C++ -*----------------------------------*\
  =========                 |
  \\      /  F ield         | OpenFOAM: The Open Source CFD Toolbox
   \\    /   O peration     | Website:  https://openfoam.org
    \\  /    A nd           | Version:  7
     \\/     M anipulation  |
\*---------------------------------------------------------------------------*/
FoamFile
{
    version     2.0;
    format      ascii;
    class       volScalarField;
    location    "4e-05";
    object      OH;
}
// * * * * * * * * * * * * * * * * * * * * * * * * * * * * * * * * * * * * * //

dimensions      [0 0 0 0 0 0 0];

internalField   nonuniform List<scalar> 
125
(
9.90381e-48
1.99567e-47
2.68757e-47
3.11855e-47
3.36321e-47
3.49133e-47
3.55397e-47
3.58281e-47
3.59541e-47
3.60067e-47
3.60277e-47
3.6036e-47
3.60393e-47
3.60407e-47
3.60414e-47
3.60419e-47
3.60424e-47
3.60429e-47
3.60434e-47
3.60439e-47
3.60444e-47
3.6045e-47
3.60455e-47
3.60461e-47
3.60467e-47
3.60473e-47
3.60479e-47
3.60486e-47
3.60493e-47
3.60499e-47
3.60506e-47
3.60514e-47
3.60521e-47
3.60528e-47
3.60536e-47
3.60544e-47
3.60552e-47
3.6056e-47
3.60568e-47
3.60576e-47
3.60584e-47
3.60593e-47
3.60601e-47
3.6061e-47
3.60619e-47
3.60627e-47
3.60636e-47
3.60645e-47
3.60654e-47
3.60663e-47
3.60672e-47
3.60681e-47
3.6069e-47
3.607e-47
3.60709e-47
3.60718e-47
3.60727e-47
3.60736e-47
3.60745e-47
3.60754e-47
3.60763e-47
3.60772e-47
3.60781e-47
3.6079e-47
3.60798e-47
3.60807e-47
3.60815e-47
3.60824e-47
3.60832e-47
3.6084e-47
3.60849e-47
3.60856e-47
3.60864e-47
3.60872e-47
3.6088e-47
3.60887e-47
3.60894e-47
3.60902e-47
3.60909e-47
3.60916e-47
3.60922e-47
3.60929e-47
3.60935e-47
3.60942e-47
3.60948e-47
3.60954e-47
3.60959e-47
3.60965e-47
3.60971e-47
3.60976e-47
3.60981e-47
3.60987e-47
3.60992e-47
3.60996e-47
3.61001e-47
3.61006e-47
3.6101e-47
3.61015e-47
3.61019e-47
3.61024e-47
3.61028e-47
3.61032e-47
3.61036e-47
3.6104e-47
3.61044e-47
3.61048e-47
3.61052e-47
3.61056e-47
3.6106e-47
3.61063e-47
3.61067e-47
3.61071e-47
3.61075e-47
3.61079e-47
3.61083e-47
3.61086e-47
3.6109e-47
3.61094e-47
3.61098e-47
3.611e-47
3.61094e-47
3.61055e-47
3.60868e-47
3.60051e-47
3.56671e-47
)
;

boundaryField
{
    boundary
    {
        type            empty;
    }
    inlet
    {
        type            fixedValue;
        value           uniform 0;
    }
    outlet
    {
        type            zeroGradient;
    }
    procBoundary2to3
    {
        type            processor;
        value           uniform 3.52971e-47;
    }
}


// ************************************************************************* //
