/*--------------------------------*- C++ -*----------------------------------*\
  =========                 |
  \\      /  F ield         | OpenFOAM: The Open Source CFD Toolbox
   \\    /   O peration     | Website:  https://openfoam.org
    \\  /    A nd           | Version:  7
     \\/     M anipulation  |
\*---------------------------------------------------------------------------*/
FoamFile
{
    version     2.0;
    format      ascii;
    class       volScalarField;
    location    "4e-05";
    object      p;
}
// * * * * * * * * * * * * * * * * * * * * * * * * * * * * * * * * * * * * * //

dimensions      [1 -1 -2 0 0 0 0];

internalField   nonuniform List<scalar> 
125
(
102422
102422
102422
102422
102422
102422
102422
102422
102422
102422
102422
102422
102422
102422
102422
102422
102422
102422
102422
102422
102422
102422
102422
102422
102422
102422
102422
102422
102422
102422
102422
102422
102422
102422
102422
102422
102422
102422
102422
102423
102423
102423
102423
102423
102423
102424
102424
102424
102424
102424
102425
102425
102425
102425
102426
102426
102426
102427
102427
102428
102428
102428
102429
102429
102430
102430
102431
102431
102432
102432
102433
102434
102434
102435
102435
102436
102437
102437
102438
102439
102440
102440
102441
102442
102443
102443
102444
102445
102446
102446
102447
102448
102449
102450
102451
102451
102452
102453
102454
102455
102456
102456
102457
102458
102459
102460
102461
102461
102462
102463
102464
102465
102465
102466
102467
102468
102468
102469
102470
102470
102471
102472
102472
102473
102474
)
;

boundaryField
{
    boundary
    {
        type            empty;
    }
    inlet
    {
        type            zeroGradient;
    }
    outlet
    {
        type            waveTransmissive;
        gamma           1.4;
        value           nonuniform 0();
    }
    procBoundary2to3
    {
        type            processor;
        value           uniform 102474;
    }
}


// ************************************************************************* //
