/*--------------------------------*- C++ -*----------------------------------*\
  =========                 |
  \\      /  F ield         | OpenFOAM: The Open Source CFD Toolbox
   \\    /   O peration     | Website:  https://openfoam.org
    \\  /    A nd           | Version:  7
     \\/     M anipulation  |
\*---------------------------------------------------------------------------*/
FoamFile
{
    version     2.0;
    format      ascii;
    class       surfaceScalarField;
    location    "4e-05";
    object      phi;
}
// * * * * * * * * * * * * * * * * * * * * * * * * * * * * * * * * * * * * * //

dimensions      [1 0 -1 0 0 0 0];

internalField   nonuniform List<scalar> 
124
(
6.85094e-06
6.81934e-06
6.78872e-06
6.75993e-06
6.73279e-06
6.70673e-06
6.68125e-06
6.65607e-06
6.63104e-06
6.60612e-06
6.58128e-06
6.55653e-06
6.53185e-06
6.50727e-06
6.48279e-06
6.45842e-06
6.43415e-06
6.41e-06
6.38597e-06
6.36208e-06
6.33831e-06
6.31469e-06
6.29122e-06
6.2679e-06
6.24474e-06
6.22174e-06
6.19892e-06
6.17626e-06
6.15379e-06
6.1315e-06
6.1094e-06
6.08749e-06
6.06578e-06
6.04428e-06
6.02298e-06
6.00189e-06
5.98101e-06
5.96036e-06
5.93992e-06
5.91971e-06
5.89973e-06
5.87998e-06
5.86046e-06
5.84117e-06
5.82213e-06
5.80332e-06
5.78476e-06
5.76644e-06
5.74837e-06
5.73055e-06
5.71297e-06
5.69564e-06
5.67856e-06
5.66173e-06
5.64516e-06
5.62883e-06
5.61275e-06
5.59693e-06
5.58135e-06
5.56602e-06
5.55094e-06
5.53611e-06
5.52152e-06
5.50718e-06
5.49308e-06
5.47922e-06
5.4656e-06
5.45221e-06
5.43906e-06
5.42613e-06
5.41344e-06
5.40096e-06
5.38871e-06
5.37668e-06
5.36485e-06
5.35324e-06
5.34183e-06
5.33062e-06
5.31961e-06
5.30879e-06
5.29815e-06
5.28769e-06
5.27741e-06
5.2673e-06
5.25736e-06
5.24757e-06
5.23794e-06
5.22845e-06
5.2191e-06
5.20988e-06
5.2008e-06
5.19183e-06
5.18298e-06
5.17423e-06
5.16559e-06
5.15704e-06
5.14857e-06
5.14018e-06
5.13186e-06
5.12361e-06
5.11541e-06
5.10726e-06
5.09915e-06
5.09107e-06
5.08302e-06
5.07498e-06
5.06696e-06
5.05893e-06
5.0509e-06
5.04286e-06
5.03479e-06
5.02669e-06
5.01856e-06
5.01037e-06
5.00214e-06
4.99384e-06
4.98547e-06
4.97703e-06
4.9685e-06
4.95987e-06
4.95115e-06
4.94232e-06
4.93337e-06
4.9243e-06
)
;

boundaryField
{
    boundary
    {
        type            empty;
        value           nonuniform 0();
    }
    inlet
    {
        type            calculated;
        value           uniform -6.88266e-06;
    }
    outlet
    {
        type            calculated;
        value           nonuniform 0();
    }
    procBoundary2to3
    {
        type            processor;
        value           uniform 4.91511e-06;
    }
}


// ************************************************************************* //
