/*--------------------------------*- C++ -*----------------------------------*\
  =========                 |
  \\      /  F ield         | OpenFOAM: The Open Source CFD Toolbox
   \\    /   O peration     | Website:  https://openfoam.org
    \\  /    A nd           | Version:  7
     \\/     M anipulation  |
\*---------------------------------------------------------------------------*/
FoamFile
{
    version     2.0;
    format      ascii;
    class       volScalarField;
    location    "4e-05";
    object      Qdot;
}
// * * * * * * * * * * * * * * * * * * * * * * * * * * * * * * * * * * * * * //

dimensions      [1 -1 -3 0 0 0 0];

internalField   nonuniform List<scalar> 
125
(
-2.46961e-27
-2.10873e-27
-2.09693e-27
-2.13614e-27
-2.16361e-27
-2.1767e-27
-2.18191e-27
-2.18379e-27
-2.18445e-27
-2.18472e-27
-2.18489e-27
-2.18502e-27
-2.18516e-27
-2.18531e-27
-2.18547e-27
-2.18564e-27
-2.18582e-27
-2.18601e-27
-2.18621e-27
-2.18642e-27
-2.18665e-27
-2.18688e-27
-2.18713e-27
-2.18738e-27
-2.18765e-27
-2.18793e-27
-2.18822e-27
-2.18853e-27
-2.18884e-27
-2.18917e-27
-2.18951e-27
-2.18986e-27
-2.19023e-27
-2.19061e-27
-2.191e-27
-2.1914e-27
-2.19182e-27
-2.19225e-27
-2.1927e-27
-2.19316e-27
-2.19363e-27
-2.19412e-27
-2.19462e-27
-2.19514e-27
-2.19567e-27
-2.19621e-27
-2.19677e-27
-2.19735e-27
-2.19793e-27
-2.19854e-27
-2.19915e-27
-2.19978e-27
-2.20043e-27
-2.20109e-27
-2.20177e-27
-2.20245e-27
-2.20316e-27
-2.20387e-27
-2.2046e-27
-2.20535e-27
-2.20611e-27
-2.20688e-27
-2.20766e-27
-2.20846e-27
-2.20927e-27
-2.21009e-27
-2.21092e-27
-2.21176e-27
-2.21262e-27
-2.21349e-27
-2.21436e-27
-2.21525e-27
-2.21615e-27
-2.21705e-27
-2.21796e-27
-2.21888e-27
-2.21981e-27
-2.22075e-27
-2.22169e-27
-2.22264e-27
-2.22359e-27
-2.22455e-27
-2.22551e-27
-2.22647e-27
-2.22744e-27
-2.22841e-27
-2.22938e-27
-2.23034e-27
-2.23131e-27
-2.23228e-27
-2.23325e-27
-2.23421e-27
-2.23517e-27
-2.23613e-27
-2.23708e-27
-2.23802e-27
-2.23896e-27
-2.23989e-27
-2.24081e-27
-2.24173e-27
-2.24263e-27
-2.24352e-27
-2.24441e-27
-2.24528e-27
-2.24613e-27
-2.24697e-27
-2.2478e-27
-2.24862e-27
-2.24941e-27
-2.25019e-27
-2.25096e-27
-2.2517e-27
-2.25243e-27
-2.25313e-27
-2.25382e-27
-2.25448e-27
-2.25512e-27
-2.25574e-27
-2.25634e-27
-2.25692e-27
-2.25747e-27
-2.25803e-27
-2.25874e-27
-2.26044e-27
-2.26778e-27
)
;

boundaryField
{
    boundary
    {
        type            empty;
    }
    inlet
    {
        type            calculated;
        value           uniform 0;
    }
    outlet
    {
        type            calculated;
        value           nonuniform 0();
    }
    procBoundary2to3
    {
        type            processor;
        value           uniform 0;
    }
}


// ************************************************************************* //
