/*--------------------------------*- C++ -*----------------------------------*\
  =========                 |
  \\      /  F ield         | OpenFOAM: The Open Source CFD Toolbox
   \\    /   O peration     | Website:  https://openfoam.org
    \\  /    A nd           | Version:  7
     \\/     M anipulation  |
\*---------------------------------------------------------------------------*/
FoamFile
{
    version     2.0;
    format      ascii;
    class       volScalarField;
    location    "4e-05";
    object      T;
}
// * * * * * * * * * * * * * * * * * * * * * * * * * * * * * * * * * * * * * //

dimensions      [0 0 0 1 0 0 0];

internalField   nonuniform List<scalar> 
125
(
300.195
300.442
300.638
300.762
300.828
300.86
300.873
300.878
300.88
300.881
300.881
300.881
300.882
300.882
300.882
300.882
300.882
300.883
300.883
300.883
300.883
300.884
300.884
300.884
300.885
300.885
300.885
300.886
300.886
300.887
300.887
300.887
300.888
300.888
300.889
300.889
300.89
300.89
300.891
300.891
300.892
300.892
300.893
300.894
300.894
300.895
300.896
300.896
300.897
300.898
300.898
300.899
300.9
300.901
300.901
300.902
300.903
300.904
300.904
300.905
300.906
300.907
300.908
300.909
300.909
300.91
300.911
300.912
300.913
300.914
300.915
300.916
300.917
300.918
300.919
300.919
300.92
300.921
300.922
300.923
300.924
300.925
300.926
300.927
300.928
300.929
300.93
300.931
300.932
300.933
300.934
300.935
300.936
300.937
300.937
300.938
300.939
300.94
300.941
300.942
300.943
300.944
300.944
300.945
300.946
300.947
300.948
300.948
300.949
300.95
300.95
300.951
300.952
300.952
300.953
300.954
300.954
300.955
300.955
300.956
300.956
300.957
300.957
300.957
300.957
)
;

boundaryField
{
    boundary
    {
        type            empty;
    }
    inlet
    {
        type            fixedValue;
        value           uniform 300;
    }
    outlet
    {
        type            zeroGradient;
    }
    procBoundary2to3
    {
        type            processor;
        value           uniform 300.957;
    }
}


// ************************************************************************* //
