/*--------------------------------*- C++ -*----------------------------------*\
  =========                 |
  \\      /  F ield         | OpenFOAM: The Open Source CFD Toolbox
   \\    /   O peration     | Website:  https://openfoam.org
    \\  /    A nd           | Version:  7
     \\/     M anipulation  |
\*---------------------------------------------------------------------------*/
FoamFile
{
    version     2.0;
    format      ascii;
    class       volVectorField;
    location    "4e-05";
    object      U;
}
// * * * * * * * * * * * * * * * * * * * * * * * * * * * * * * * * * * * * * //

dimensions      [0 1 -1 0 0 0 0];

internalField   nonuniform List<vector> 
125
(
(2.34629 0 0)
(2.33723 0 0)
(2.32699 0 0)
(2.31733 0 0)
(2.30868 0 0)
(2.29987 0 0)
(2.29117 0 0)
(2.28256 0 0)
(2.27403 0 0)
(2.26539 0 0)
(2.25698 0 0)
(2.24844 0 0)
(2.23997 0 0)
(2.23156 0 0)
(2.22317 0 0)
(2.21482 0 0)
(2.20645 0 0)
(2.19822 0 0)
(2.18997 0 0)
(2.18177 0 0)
(2.17359 0 0)
(2.16549 0 0)
(2.15744 0 0)
(2.14943 0 0)
(2.14149 0 0)
(2.13357 0 0)
(2.1257 0 0)
(2.11804 0 0)
(2.11029 0 0)
(2.10252 0 0)
(2.09495 0 0)
(2.08746 0 0)
(2.07999 0 0)
(2.0726 0 0)
(2.06527 0 0)
(2.05802 0 0)
(2.05084 0 0)
(2.04373 0 0)
(2.0367 0 0)
(2.02975 0 0)
(2.02287 0 0)
(2.01607 0 0)
(2.00935 0 0)
(2.00271 0 0)
(1.99615 0 0)
(1.98967 0 0)
(1.98328 0 0)
(1.97697 0 0)
(1.97074 0 0)
(1.96459 0 0)
(1.95854 0 0)
(1.95256 0 0)
(1.94667 0 0)
(1.94087 0 0)
(1.93515 0 0)
(1.92952 0 0)
(1.92397 0 0)
(1.91851 0 0)
(1.91313 0 0)
(1.90784 0 0)
(1.90263 0 0)
(1.89751 0 0)
(1.89247 0 0)
(1.88752 0 0)
(1.88265 0 0)
(1.87786 0 0)
(1.87315 0 0)
(1.86852 0 0)
(1.86398 0 0)
(1.85951 0 0)
(1.85512 0 0)
(1.85081 0 0)
(1.84657 0 0)
(1.84241 0 0)
(1.83832 0 0)
(1.8343 0 0)
(1.83035 0 0)
(1.82648 0 0)
(1.82267 0 0)
(1.81892 0 0)
(1.81524 0 0)
(1.81163 0 0)
(1.80807 0 0)
(1.80457 0 0)
(1.80114 0 0)
(1.79775 0 0)
(1.79442 0 0)
(1.79112 0 0)
(1.78791 0 0)
(1.78472 0 0)
(1.78157 0 0)
(1.77848 0 0)
(1.77542 0 0)
(1.77241 0 0)
(1.7694 0 0)
(1.76646 0 0)
(1.76355 0 0)
(1.76065 0 0)
(1.75778 0 0)
(1.75493 0 0)
(1.75211 0 0)
(1.7493 0 0)
(1.74651 0 0)
(1.74373 0 0)
(1.74095 0 0)
(1.73821 0 0)
(1.73543 0 0)
(1.73266 0 0)
(1.72995 0 0)
(1.72717 0 0)
(1.72438 0 0)
(1.72161 0 0)
(1.71883 0 0)
(1.71603 0 0)
(1.71321 0 0)
(1.71037 0 0)
(1.70751 0 0)
(1.70462 0 0)
(1.7017 0 0)
(1.69877 0 0)
(1.69577 0 0)
(1.69276 0 0)
(1.68974 0 0)
(1.68663 0 0)
(1.68341 0 0)
)
;

boundaryField
{
    boundary
    {
        type            empty;
    }
    inlet
    {
        type            fixedValue;
        value           uniform (2.34893 0 0);
    }
    outlet
    {
        type            zeroGradient;
    }
    procBoundary2to3
    {
        type            processor;
        value           uniform (1.68027 0 0);
    }
}


// ************************************************************************* //
