/*--------------------------------*- C++ -*----------------------------------*\
  =========                 |
  \\      /  F ield         | OpenFOAM: The Open Source CFD Toolbox
   \\    /   O peration     | Website:  https://openfoam.org
    \\  /    A nd           | Version:  7
     \\/     M anipulation  |
\*---------------------------------------------------------------------------*/
FoamFile
{
    version     2.0;
    format      ascii;
    class       volScalarField;
    location    "0.00049";
    object      HO2;
}
// * * * * * * * * * * * * * * * * * * * * * * * * * * * * * * * * * * * * * //

dimensions      [0 0 0 0 0 0 0];

internalField   nonuniform List<scalar> 
126
(
3.84233e-36
3.84264e-36
3.84304e-36
3.84357e-36
3.84423e-36
3.84507e-36
3.84609e-36
3.84727e-36
3.84858e-36
3.84996e-36
3.85133e-36
3.85262e-36
3.85375e-36
3.85465e-36
3.85529e-36
3.85566e-36
3.85578e-36
3.85566e-36
3.85538e-36
3.85497e-36
3.8545e-36
3.85403e-36
3.85361e-36
3.85327e-36
3.85305e-36
3.85298e-36
3.85306e-36
3.85329e-36
3.85367e-36
3.85418e-36
3.85481e-36
3.85554e-36
3.85634e-36
3.85719e-36
3.85807e-36
3.85896e-36
3.85984e-36
3.86069e-36
3.86151e-36
3.86228e-36
3.863e-36
3.86366e-36
3.86426e-36
3.8648e-36
3.86529e-36
3.86573e-36
3.86612e-36
3.86646e-36
3.86677e-36
3.86704e-36
3.86728e-36
3.86749e-36
3.86767e-36
3.86783e-36
3.86797e-36
3.86809e-36
3.86818e-36
3.86826e-36
3.86831e-36
3.86834e-36
3.86836e-36
3.86835e-36
3.86832e-36
3.86826e-36
3.86818e-36
3.86808e-36
3.86794e-36
3.86778e-36
3.8676e-36
3.86738e-36
3.86713e-36
3.86684e-36
3.86653e-36
3.86618e-36
3.86579e-36
3.86536e-36
3.8649e-36
3.86439e-36
3.86384e-36
3.86325e-36
3.86262e-36
3.86194e-36
3.86121e-36
3.86043e-36
3.85961e-36
3.85873e-36
3.8578e-36
3.85682e-36
3.85579e-36
3.8547e-36
3.85358e-36
3.85246e-36
3.85157e-36
3.85177e-36
3.85653e-36
3.87978e-36
3.97648e-36
4.36224e-36
5.87517e-36
1.17465e-35
3.43352e-35
1.20555e-34
4.47256e-34
1.67698e-33
6.27907e-33
2.34215e-32
8.70682e-32
3.23023e-31
1.19833e-30
4.45563e-30
1.66491e-29
6.26987e-29
2.38634e-28
9.20199e-28
3.6016e-27
1.43208e-26
5.78421e-26
2.37057e-25
9.84014e-25
4.12765e-24
1.7455e-23
7.42438e-23
3.17003e-22
1.3565e-21
5.81009e-21
2.48865e-20
)
;

boundaryField
{
    boundary
    {
        type            empty;
    }
    inlet
    {
        type            fixedValue;
        value           nonuniform 0();
    }
    outlet
    {
        type            zeroGradient;
    }
    procBoundary3to1
    {
        type            processor;
        value           uniform 1.07402e-19;
    }
    procBoundary3to2
    {
        type            processor;
        value           uniform 3.85041e-36;
    }
}


// ************************************************************************* //
