/*--------------------------------*- C++ -*----------------------------------*\
  =========                 |
  \\      /  F ield         | OpenFOAM: The Open Source CFD Toolbox
   \\    /   O peration     | Website:  https://openfoam.org
    \\  /    A nd           | Version:  7
     \\/     M anipulation  |
\*---------------------------------------------------------------------------*/
FoamFile
{
    version     2.0;
    format      ascii;
    class       volScalarField;
    location    "0.00049";
    object      T;
}
// * * * * * * * * * * * * * * * * * * * * * * * * * * * * * * * * * * * * * //

dimensions      [0 0 0 1 0 0 0];

internalField   nonuniform List<scalar> 
126
(
301.585
301.585
301.585
301.586
301.586
301.586
301.586
301.587
301.587
301.587
301.587
301.587
301.588
301.588
301.588
301.588
301.588
301.589
301.589
301.589
301.589
301.589
301.59
301.59
301.59
301.59
301.59
301.591
301.591
301.591
301.591
301.591
301.592
301.592
301.592
301.592
301.593
301.593
301.593
301.593
301.594
301.594
301.594
301.594
301.594
301.595
301.595
301.595
301.595
301.595
301.596
301.596
301.596
301.596
301.596
301.596
301.596
301.596
301.596
301.596
301.596
301.596
301.596
301.596
301.596
301.596
301.596
301.596
301.596
301.595
301.595
301.595
301.595
301.594
301.594
301.594
301.593
301.593
301.592
301.592
301.591
301.591
301.59
301.589
301.589
301.588
301.587
301.586
301.585
301.584
301.583
301.582
301.581
301.58
301.579
301.578
301.576
301.575
301.573
301.572
301.57
301.569
301.567
301.565
301.564
301.562
301.56
301.558
301.556
301.554
301.552
301.55
301.548
301.545
301.543
301.541
301.538
301.536
301.533
301.53
301.528
301.525
301.522
301.52
301.517
301.514
)
;

boundaryField
{
    boundary
    {
        type            empty;
    }
    inlet
    {
        type            fixedValue;
        value           nonuniform 0();
    }
    outlet
    {
        type            zeroGradient;
    }
    procBoundary3to1
    {
        type            processor;
        value           uniform 301.51;
    }
    procBoundary3to2
    {
        type            processor;
        value           uniform 301.585;
    }
}


// ************************************************************************* //
