/*--------------------------------*- C++ -*----------------------------------*\
  =========                 |
  \\      /  F ield         | OpenFOAM: The Open Source CFD Toolbox
   \\    /   O peration     | Website:  https://openfoam.org
    \\  /    A nd           | Version:  7
     \\/     M anipulation  |
\*---------------------------------------------------------------------------*/
FoamFile
{
    version     2.0;
    format      ascii;
    class       volScalarField;
    location    "0.00046";
    object      H2O;
}
// * * * * * * * * * * * * * * * * * * * * * * * * * * * * * * * * * * * * * //

dimensions      [0 0 0 0 0 0 0];

internalField   nonuniform List<scalar> 
500
(
7.90457e-48
2.28574e-47
4.11536e-47
6.17272e-47
8.38611e-47
1.07078e-46
1.31064e-46
1.5562e-46
1.80628e-46
2.06024e-46
2.31792e-46
2.57947e-46
2.84536e-46
3.1163e-46
3.39323e-46
3.67727e-46
3.96973e-46
4.272e-46
4.58549e-46
4.9116e-46
5.25152e-46
5.60623e-46
5.97626e-46
6.36167e-46
6.76191e-46
7.17574e-46
7.60119e-46
8.03558e-46
8.47558e-46
8.91726e-46
9.35629e-46
9.78809e-46
1.02081e-45
1.06117e-45
1.09951e-45
1.13546e-45
1.16874e-45
1.19916e-45
1.2266e-45
1.25102e-45
1.27247e-45
1.29106e-45
1.30696e-45
1.32038e-45
1.33156e-45
1.34075e-45
1.3482e-45
1.35418e-45
1.3589e-45
1.36259e-45
1.36544e-45
1.36761e-45
1.36925e-45
1.37046e-45
1.37136e-45
1.37201e-45
1.37248e-45
1.37281e-45
1.37305e-45
1.37321e-45
1.37332e-45
1.3734e-45
1.37346e-45
1.37349e-45
1.37352e-45
1.37354e-45
1.37355e-45
1.37356e-45
1.37357e-45
1.37358e-45
1.37358e-45
1.37359e-45
1.3736e-45
1.37361e-45
1.37361e-45
1.37362e-45
1.37363e-45
1.37364e-45
1.37365e-45
1.37366e-45
1.37368e-45
1.37369e-45
1.3737e-45
1.37372e-45
1.37373e-45
1.37375e-45
1.37377e-45
1.37379e-45
1.37381e-45
1.37383e-45
1.37385e-45
1.37387e-45
1.3739e-45
1.37392e-45
1.37395e-45
1.37398e-45
1.37401e-45
1.37404e-45
1.37407e-45
1.3741e-45
1.37414e-45
1.37418e-45
1.37422e-45
1.37426e-45
1.3743e-45
1.37434e-45
1.37439e-45
1.37443e-45
1.37448e-45
1.37453e-45
1.37458e-45
1.37464e-45
1.37469e-45
1.37475e-45
1.37481e-45
1.37487e-45
1.37493e-45
1.375e-45
1.37507e-45
1.37513e-45
1.3752e-45
1.37524e-45
1.37519e-45
1.37479e-45
1.37307e-45
1.36987e-45
1.37017e-45
1.37058e-45
1.37111e-45
1.37176e-45
1.3725e-45
1.3733e-45
1.3741e-45
1.37486e-45
1.37553e-45
1.37609e-45
1.37652e-45
1.37683e-45
1.37704e-45
1.37714e-45
1.37718e-45
1.37716e-45
1.37709e-45
1.37699e-45
1.37687e-45
1.37675e-45
1.37663e-45
1.37651e-45
1.37642e-45
1.37636e-45
1.37633e-45
1.37633e-45
1.37639e-45
1.37648e-45
1.37661e-45
1.37679e-45
1.37699e-45
1.37723e-45
1.37748e-45
1.37775e-45
1.37802e-45
1.37829e-45
1.37856e-45
1.37882e-45
1.37906e-45
1.37929e-45
1.3795e-45
1.37969e-45
1.37987e-45
1.38002e-45
1.38017e-45
1.38029e-45
1.38041e-45
1.38051e-45
1.3806e-45
1.38067e-45
1.38074e-45
1.3808e-45
1.38085e-45
1.38089e-45
1.38092e-45
1.38094e-45
1.38096e-45
1.38096e-45
1.38095e-45
1.38093e-45
1.38091e-45
1.38086e-45
1.38081e-45
1.38075e-45
1.38067e-45
1.38058e-45
1.38047e-45
1.38035e-45
1.38022e-45
1.38007e-45
1.3799e-45
1.37971e-45
1.37951e-45
1.37929e-45
1.37905e-45
1.37879e-45
1.37852e-45
1.37824e-45
1.37802e-45
1.37817e-45
1.38016e-45
1.39081e-45
1.44189e-45
1.67961e-45
2.77221e-45
7.75165e-45
3.0282e-44
1.31568e-43
5.84334e-43
2.59883e-42
1.15313e-41
5.10657e-41
2.26043e-40
1.00217e-39
4.46036e-39
1.99756e-38
9.02189e-38
4.11669e-37
1.89996e-36
8.87166e-36
4.18834e-35
1.99621e-34
9.58465e-34
4.6247e-33
2.23674e-32
1.08172e-31
5.21951e-31
2.50809e-30
1.19834e-29
5.68598e-29
2.67672e-28
1.24932e-27
5.77836e-27
2.64777e-26
1.20185e-25
5.40406e-25
2.40742e-24
1.06275e-23
4.65018e-23
2.01735e-22
8.67942e-22
3.70439e-21
1.56888e-20
6.59543e-20
2.75319e-19
1.15298e-18
4.7703e-18
1.95559e-17
7.96986e-17
3.23261e-16
1.30577e-15
5.25555e-15
2.10871e-14
8.43824e-14
3.36898e-13
1.34251e-12
5.3413e-12
2.12234e-11
8.42422e-11
3.34109e-10
1.32426e-09
5.24632e-09
2.07775e-08
8.2269e-08
3.25679e-07
1.28887e-06
5.09702e-06
2.01181e-05
7.89857e-05
0.000305566
0.0011358
0.00382552
0.0106153
0.0228
0.0390627
0.0587965
0.0823984
0.108349
0.132732
0.152072
0.168992
0.179039
0.185788
0.190356
0.193532
0.195832
0.19758
0.198975
0.200141
0.201152
0.202055
0.202878
0.20364
0.204352
0.205025
0.205662
0.206268
0.206847
0.2074
0.207931
0.208441
0.208931
0.209403
0.209858
0.210297
0.210721
0.211117
0.211495
0.211862
0.212221
0.212571
0.212912
0.213246
0.213572
0.213891
0.214203
0.214508
0.214807
0.2151
0.215387
0.215668
0.215944
0.216215
0.216481
0.216741
0.216997
0.217248
0.217495
0.217737
0.217976
0.21821
0.21844
0.218666
0.218888
0.219107
0.219322
0.219533
0.219742
0.219946
0.220148
0.220347
0.220542
0.220735
0.220924
0.221111
0.221295
0.221477
0.221656
0.221832
0.222006
0.222178
0.222347
0.222514
0.222679
0.222842
0.223003
0.223162
0.223319
0.223474
0.223628
0.223779
0.223929
0.224077
0.224224
0.22437
0.224514
0.224656
0.224798
0.22494
0.22508
0.22522
0.225356
0.225492
0.225627
0.225761
0.225893
0.226025
0.226156
0.226287
0.226415
0.226537
0.226683
0.226807
0.226934
0.227061
0.227189
0.227317
0.227445
0.227573
0.227702
0.22783
0.22796
0.228089
0.228219
0.22835
0.228482
0.228615
0.228748
0.228883
0.229019
0.229156
0.229294
0.229434
0.229575
0.229718
0.229862
0.230009
0.230157
0.230306
0.230458
0.230611
0.230767
0.230924
0.231083
0.231244
0.231406
0.23157
0.231736
0.231903
0.232072
0.232241
0.232412
0.232584
0.232756
0.232929
0.233102
0.233275
0.233448
0.233621
0.233794
0.233965
0.234136
0.234306
0.234474
0.23464
0.234805
0.234968
0.235128
0.235287
0.235443
0.235596
0.235747
0.235895
0.23604
0.236182
0.236321
0.236457
0.23659
0.23672
0.236847
0.236971
0.237092
0.23721
0.237325
0.237437
0.237547
0.237653
0.237757
0.237858
0.237957
0.238053
0.238147
0.238238
0.238327
0.238413
0.238497
0.238578
0.238657
0.238734
0.238809
0.238881
0.238951
0.239018
0.239084
0.239146
0.239207
0.239265
0.239321
0.239374
0.239425
0.239474
0.23952
0.239564
0.239605
0.239644
0.23968
0.239713
0.239744
0.239772
0.239797
0.239818
0.239836
0.23985
0.239858
)
;

boundaryField
{
    boundary
    {
        type            empty;
    }
    inlet
    {
        type            fixedValue;
        value           uniform 0;
    }
    outlet
    {
        type            zeroGradient;
    }
}


// ************************************************************************* //
