/*--------------------------------*- C++ -*----------------------------------*\
  =========                 |
  \\      /  F ield         | OpenFOAM: The Open Source CFD Toolbox
   \\    /   O peration     | Website:  https://openfoam.org
    \\  /    A nd           | Version:  7
     \\/     M anipulation  |
\*---------------------------------------------------------------------------*/
FoamFile
{
    version     2.0;
    format      ascii;
    class       volScalarField;
    location    "0.00046";
    object      H2O2;
}
// * * * * * * * * * * * * * * * * * * * * * * * * * * * * * * * * * * * * * //

dimensions      [0 0 0 0 0 0 0];

internalField   nonuniform List<scalar> 
500
(
1.99991e-52
6.43032e-52
1.27944e-51
2.10997e-51
3.1355e-51
4.35715e-51
5.77646e-51
7.39559e-51
9.21747e-51
1.12461e-50
1.34867e-50
1.5946e-50
1.86327e-50
2.15573e-50
2.47324e-50
2.81727e-50
3.18944e-50
3.59146e-50
4.02508e-50
4.49191e-50
4.99328e-50
5.53007e-50
6.10248e-50
6.70985e-50
7.3505e-50
8.02155e-50
8.71889e-50
9.43714e-50
1.01698e-49
1.09093e-49
1.16474e-49
1.23754e-49
1.30848e-49
1.37671e-49
1.4415e-49
1.50219e-49
1.55827e-49
1.60938e-49
1.65532e-49
1.69603e-49
1.73162e-49
1.76229e-49
1.78836e-49
1.81022e-49
1.82829e-49
1.84304e-49
1.85491e-49
1.86434e-49
1.87173e-49
1.87745e-49
1.88183e-49
1.88513e-49
1.88759e-49
1.88941e-49
1.89073e-49
1.89168e-49
1.89236e-49
1.89283e-49
1.89317e-49
1.8934e-49
1.89355e-49
1.89366e-49
1.89374e-49
1.89379e-49
1.89382e-49
1.89384e-49
1.89386e-49
1.89388e-49
1.89389e-49
1.8939e-49
1.89391e-49
1.89392e-49
1.89393e-49
1.89395e-49
1.89396e-49
1.89397e-49
1.89399e-49
1.894e-49
1.89402e-49
1.89403e-49
1.89405e-49
1.89407e-49
1.89409e-49
1.89412e-49
1.89414e-49
1.89417e-49
1.89419e-49
1.89422e-49
1.89425e-49
1.89428e-49
1.89432e-49
1.89435e-49
1.89439e-49
1.89443e-49
1.89447e-49
1.89451e-49
1.89456e-49
1.89461e-49
1.89466e-49
1.89471e-49
1.89476e-49
1.89482e-49
1.89488e-49
1.89494e-49
1.895e-49
1.89507e-49
1.89514e-49
1.89521e-49
1.89528e-49
1.89536e-49
1.89544e-49
1.89552e-49
1.8956e-49
1.89569e-49
1.89578e-49
1.89587e-49
1.89597e-49
1.89607e-49
1.89617e-49
1.89627e-49
1.89636e-49
1.8964e-49
1.89625e-49
1.89528e-49
1.8911e-49
1.88277e-49
1.88314e-49
1.88365e-49
1.88435e-49
1.88526e-49
1.88639e-49
1.88772e-49
1.8892e-49
1.89072e-49
1.8922e-49
1.89352e-49
1.89461e-49
1.89541e-49
1.89591e-49
1.8961e-49
1.89604e-49
1.89577e-49
1.89535e-49
1.89485e-49
1.89433e-49
1.89383e-49
1.89341e-49
1.89308e-49
1.89288e-49
1.89281e-49
1.89289e-49
1.89311e-49
1.89346e-49
1.89392e-49
1.89449e-49
1.89514e-49
1.89585e-49
1.8966e-49
1.89736e-49
1.89812e-49
1.89887e-49
1.89958e-49
1.90025e-49
1.90087e-49
1.90144e-49
1.90195e-49
1.90241e-49
1.90281e-49
1.90317e-49
1.90348e-49
1.90375e-49
1.90399e-49
1.90419e-49
1.90437e-49
1.90453e-49
1.90466e-49
1.90477e-49
1.90487e-49
1.90495e-49
1.90502e-49
1.90507e-49
1.90511e-49
1.90513e-49
1.90514e-49
1.90513e-49
1.9051e-49
1.90506e-49
1.905e-49
1.90493e-49
1.90483e-49
1.90472e-49
1.90458e-49
1.90443e-49
1.90425e-49
1.90405e-49
1.90382e-49
1.90357e-49
1.9033e-49
1.90299e-49
1.90266e-49
1.9023e-49
1.90191e-49
1.9015e-49
1.90105e-49
1.90056e-49
1.90005e-49
1.89952e-49
1.89909e-49
1.89952e-49
1.90609e-49
1.95478e-49
2.28796e-49
4.52304e-49
1.93457e-48
1.16642e-47
7.48824e-47
4.81445e-46
3.06906e-45
1.93661e-44
1.2092e-43
7.46975e-43
4.56467e-42
2.759e-41
1.64923e-40
9.74856e-40
5.69743e-39
3.29188e-38
1.88012e-37
1.06135e-36
5.92135e-36
3.26466e-35
1.77864e-34
9.57535e-34
5.09377e-33
2.67769e-32
1.39107e-31
7.14269e-31
3.62548e-30
1.81947e-29
9.03026e-29
4.43337e-28
2.15358e-27
1.03537e-26
4.92788e-26
2.32263e-25
1.08441e-24
5.01706e-24
2.30099e-23
1.04659e-22
4.72322e-22
2.11603e-21
9.50934e-21
4.22079e-20
1.85683e-19
8.12295e-19
3.53758e-18
1.53475e-17
6.63662e-17
2.86183e-16
1.23117e-15
5.28623e-15
2.26609e-14
9.70176e-14
4.14938e-13
1.77329e-12
7.57411e-12
3.23384e-11
1.38041e-10
5.89195e-10
2.51482e-09
1.07336e-08
4.58e-08
1.95178e-07
8.27775e-07
3.45133e-06
1.35752e-05
4.45897e-05
9.50385e-05
0.000123791
0.000107943
6.02686e-05
2.556e-05
1.03652e-05
5.43917e-06
4.42814e-06
4.71361e-06
5.42041e-06
5.99532e-06
6.41166e-06
6.65893e-06
6.76469e-06
6.76438e-06
6.68958e-06
6.56495e-06
6.40859e-06
6.23328e-06
6.04798e-06
5.85875e-06
5.66974e-06
5.48367e-06
5.30235e-06
5.12689e-06
4.95794e-06
4.79584e-06
4.64072e-06
4.49254e-06
4.35116e-06
4.2164e-06
4.08802e-06
3.96576e-06
3.8494e-06
3.73874e-06
3.63677e-06
3.54087e-06
3.44887e-06
3.36056e-06
3.27576e-06
3.19429e-06
3.116e-06
3.04072e-06
2.96832e-06
2.89865e-06
2.83158e-06
2.76698e-06
2.70475e-06
2.64476e-06
2.58691e-06
2.53111e-06
2.47725e-06
2.42524e-06
2.37501e-06
2.32648e-06
2.27956e-06
2.23418e-06
2.19029e-06
2.14781e-06
2.10669e-06
2.06686e-06
2.02828e-06
1.99088e-06
1.95462e-06
1.91946e-06
1.88534e-06
1.85224e-06
1.82009e-06
1.78887e-06
1.75855e-06
1.72908e-06
1.70043e-06
1.67257e-06
1.64547e-06
1.6191e-06
1.59343e-06
1.56844e-06
1.5441e-06
1.52039e-06
1.49729e-06
1.47477e-06
1.45282e-06
1.43141e-06
1.41052e-06
1.39014e-06
1.37025e-06
1.35083e-06
1.33187e-06
1.31335e-06
1.29526e-06
1.27759e-06
1.26031e-06
1.24343e-06
1.22691e-06
1.21076e-06
1.19496e-06
1.1795e-06
1.16437e-06
1.14956e-06
1.13504e-06
1.12079e-06
1.10684e-06
1.09317e-06
1.07977e-06
1.06664e-06
1.05376e-06
1.04113e-06
1.02877e-06
1.01676e-06
1.00557e-06
9.92199e-07
9.81132e-07
9.70005e-07
9.58973e-07
9.48093e-07
9.37384e-07
9.26849e-07
9.16485e-07
9.0629e-07
8.96256e-07
8.86378e-07
8.76651e-07
8.67068e-07
8.57625e-07
8.48314e-07
8.39131e-07
8.3007e-07
8.21124e-07
8.12288e-07
8.03555e-07
7.94921e-07
7.86378e-07
7.77921e-07
7.69544e-07
7.61239e-07
7.53002e-07
7.44825e-07
7.36701e-07
7.28625e-07
7.20591e-07
7.1259e-07
7.04618e-07
6.96668e-07
6.88733e-07
6.80807e-07
6.72884e-07
6.64959e-07
6.57026e-07
6.4908e-07
6.41115e-07
6.33128e-07
6.25113e-07
6.17069e-07
6.08991e-07
6.00878e-07
5.92727e-07
5.84537e-07
5.76309e-07
5.68042e-07
5.59738e-07
5.514e-07
5.43029e-07
5.34629e-07
5.26207e-07
5.17766e-07
5.09314e-07
5.00858e-07
4.92405e-07
4.83964e-07
4.75544e-07
4.67155e-07
4.58808e-07
4.50512e-07
4.42279e-07
4.3412e-07
4.26045e-07
4.18067e-07
4.10194e-07
4.02438e-07
3.94809e-07
3.87316e-07
3.79969e-07
3.72775e-07
3.65743e-07
3.5888e-07
3.52191e-07
3.45681e-07
3.39356e-07
3.33218e-07
3.2727e-07
3.21515e-07
3.15951e-07
3.10581e-07
3.05402e-07
3.00415e-07
2.95616e-07
2.91002e-07
2.86571e-07
2.82319e-07
2.78241e-07
2.74333e-07
2.7059e-07
2.67007e-07
2.63578e-07
2.60298e-07
2.57162e-07
2.54164e-07
2.51298e-07
2.48561e-07
2.45946e-07
2.4345e-07
2.41071e-07
2.38804e-07
2.3665e-07
2.34608e-07
2.32683e-07
2.3088e-07
2.29209e-07
2.27688e-07
2.26338e-07
2.25196e-07
2.24311e-07
2.23772e-07
)
;

boundaryField
{
    boundary
    {
        type            empty;
    }
    inlet
    {
        type            fixedValue;
        value           uniform 0;
    }
    outlet
    {
        type            zeroGradient;
    }
}


// ************************************************************************* //
