/*--------------------------------*- C++ -*----------------------------------*\
  =========                 |
  \\      /  F ield         | OpenFOAM: The Open Source CFD Toolbox
   \\    /   O peration     | Website:  https://openfoam.org
    \\  /    A nd           | Version:  7
     \\/     M anipulation  |
\*---------------------------------------------------------------------------*/
FoamFile
{
    version     2.0;
    format      ascii;
    class       volScalarField;
    location    "0.00046";
    object      N2;
}
// * * * * * * * * * * * * * * * * * * * * * * * * * * * * * * * * * * * * * //

dimensions      [0 0 0 0 0 0 0];

internalField   nonuniform List<scalar> 
500
(
0.745219
0.745219
0.745219
0.745219
0.745219
0.745219
0.745219
0.745219
0.745219
0.745219
0.745219
0.745219
0.745219
0.745219
0.745219
0.745219
0.745219
0.745219
0.745219
0.745219
0.745219
0.745219
0.745219
0.745219
0.745219
0.745219
0.745219
0.745219
0.745219
0.745219
0.745219
0.74522
0.74522
0.74522
0.74522
0.74522
0.74522
0.74522
0.74522
0.74522
0.74522
0.74522
0.74522
0.74522
0.74522
0.74522
0.74522
0.74522
0.74522
0.74522
0.74522
0.74522
0.74522
0.74522
0.74522
0.74522
0.74522
0.74522
0.74522
0.74522
0.74522
0.74522
0.74522
0.74522
0.74522
0.74522
0.74522
0.74522
0.74522
0.74522
0.74522
0.74522
0.74522
0.74522
0.74522
0.74522
0.74522
0.74522
0.74522
0.74522
0.74522
0.74522
0.74522
0.74522
0.74522
0.74522
0.74522
0.74522
0.74522
0.74522
0.74522
0.74522
0.74522
0.74522
0.74522
0.74522
0.74522
0.74522
0.74522
0.74522
0.74522
0.74522
0.74522
0.74522
0.74522
0.74522
0.74522
0.74522
0.74522
0.74522
0.74522
0.74522
0.74522
0.74522
0.74522
0.74522
0.74522
0.74522
0.74522
0.74522
0.74522
0.74522
0.74522
0.74522
0.74522
0.74522
0.74522
0.74522
0.74522
0.74522
0.74522
0.74522
0.74522
0.74522
0.74522
0.74522
0.74522
0.74522
0.74522
0.74522
0.74522
0.74522
0.74522
0.74522
0.74522
0.74522
0.74522
0.74522
0.74522
0.74522
0.74522
0.74522
0.74522
0.74522
0.74522
0.74522
0.74522
0.74522
0.74522
0.74522
0.74522
0.74522
0.74522
0.74522
0.74522
0.74522
0.74522
0.74522
0.74522
0.74522
0.74522
0.74522
0.74522
0.74522
0.74522
0.74522
0.74522
0.74522
0.74522
0.74522
0.74522
0.74522
0.74522
0.74522
0.74522
0.74522
0.74522
0.74522
0.74522
0.74522
0.74522
0.74522
0.74522
0.74522
0.74522
0.74522
0.74522
0.74522
0.74522
0.74522
0.74522
0.74522
0.74522
0.74522
0.74522
0.74522
0.74522
0.74522
0.74522
0.74522
0.74522
0.74522
0.74522
0.74522
0.74522
0.74522
0.74522
0.74522
0.74522
0.74522
0.74522
0.74522
0.74522
0.74522
0.74522
0.74522
0.74522
0.74522
0.74522
0.74522
0.74522
0.74522
0.74522
0.74522
0.74522
0.74522
0.74522
0.74522
0.74522
0.74522
0.74522
0.74522
0.74522
0.74522
0.74522
0.74522
0.74522
0.74522
0.74522
0.74522
0.74522
0.74522
0.74522
0.74522
0.74522
0.74522
0.74522
0.74522
0.74522
0.74522
0.74522
0.74522
0.74522
0.74522
0.74522
0.74522
0.74522
0.74522
0.745222
0.745224
0.745228
0.745237
0.745255
0.745291
0.745358
0.745466
0.745592
0.745612
0.745402
0.745024
0.74451
0.743957
0.74363
0.743682
0.743964
0.744142
0.744741
0.744961
0.745115
0.745214
0.745276
0.745313
0.745334
0.745346
0.745353
0.745355
0.745355
0.745353
0.745351
0.745348
0.745344
0.745341
0.745337
0.745333
0.745329
0.745325
0.745321
0.745317
0.745313
0.74531
0.745306
0.745303
0.745299
0.745296
0.745294
0.745291
0.745288
0.745286
0.745284
0.745282
0.74528
0.745278
0.745277
0.745275
0.745274
0.745273
0.745272
0.745271
0.74527
0.74527
0.745269
0.745268
0.745268
0.745267
0.745266
0.745266
0.745265
0.745265
0.745264
0.745263
0.745263
0.745262
0.745261
0.745261
0.74526
0.745259
0.745259
0.745258
0.745257
0.745256
0.745256
0.745255
0.745254
0.745253
0.745253
0.745252
0.745251
0.74525
0.74525
0.745249
0.745248
0.745247
0.745247
0.745246
0.745245
0.745244
0.745243
0.745242
0.745241
0.74524
0.745239
0.745238
0.745236
0.745235
0.745233
0.74523
0.745228
0.745227
0.745225
0.745223
0.745221
0.745219
0.745217
0.745214
0.745212
0.74521
0.745207
0.745204
0.745201
0.745198
0.745195
0.745192
0.745188
0.745185
0.745182
0.745178
0.745175
0.745172
0.745168
0.745165
0.745162
0.745158
0.745155
0.745153
0.74515
0.745147
0.745145
0.745143
0.745142
0.74514
0.745139
0.745139
0.745139
0.745139
0.74514
0.745141
0.745143
0.745146
0.745149
0.745153
0.745157
0.745163
0.745169
0.745175
0.745183
0.745191
0.7452
0.74521
0.745221
0.745233
0.745245
0.745258
0.745272
0.745286
0.745301
0.745317
0.745332
0.745349
0.745365
0.745382
0.745399
0.745416
0.745433
0.745449
0.745465
0.74548
0.745495
0.745509
0.745522
0.745534
0.745544
0.745554
0.745562
0.745568
0.745573
0.745576
0.745578
0.745578
0.745576
0.745572
0.745566
0.745559
0.745549
0.745538
0.745526
0.745511
0.745496
0.745479
0.74546
0.745441
0.74542
0.745399
0.745377
0.745354
0.745331
0.745308
0.745285
0.745261
0.745239
0.745216
0.745194
0.745173
0.745152
0.745133
0.745114
0.745097
0.74508
0.745065
0.745051
0.745039
0.745027
0.745017
0.745008
0.745
0.744992
0.744985
0.744979
0.744972
0.744966
0.744961
)
;

boundaryField
{
    boundary
    {
        type            empty;
    }
    inlet
    {
        type            fixedValue;
        value           uniform 0.74522;
    }
    outlet
    {
        type            zeroGradient;
    }
}


// ************************************************************************* //
