/*--------------------------------*- C++ -*----------------------------------*\
  =========                 |
  \\      /  F ield         | OpenFOAM: The Open Source CFD Toolbox
   \\    /   O peration     | Website:  https://openfoam.org
    \\  /    A nd           | Version:  7
     \\/     M anipulation  |
\*---------------------------------------------------------------------------*/
FoamFile
{
    version     2.0;
    format      ascii;
    class       volScalarField;
    location    "0.00046";
    object      rho;
}
// * * * * * * * * * * * * * * * * * * * * * * * * * * * * * * * * * * * * * //

dimensions      [1 -3 0 0 0 0 0];

internalField   nonuniform List<scalar> 
500
(
0.865267
0.865255
0.865242
0.865229
0.865216
0.865203
0.865188
0.865174
0.865157
0.865139
0.865119
0.865096
0.865069
0.865036
0.864998
0.864953
0.8649
0.864837
0.864764
0.864679
0.864581
0.86447
0.864345
0.864207
0.864055
0.863891
0.863716
0.863532
0.86334
0.863144
0.862944
0.862745
0.862549
0.862359
0.862176
0.862002
0.86184
0.861691
0.861554
0.861432
0.861323
0.861227
0.861144
0.861074
0.861014
0.860964
0.860923
0.860889
0.860862
0.86084
0.860823
0.86081
0.8608
0.860792
0.860786
0.860782
0.860779
0.860777
0.860775
0.860774
0.860773
0.860772
0.860772
0.860772
0.860771
0.860771
0.860771
0.860771
0.860771
0.860771
0.860771
0.860771
0.860771
0.860771
0.860771
0.860771
0.860771
0.860771
0.86077
0.86077
0.86077
0.86077
0.86077
0.86077
0.86077
0.86077
0.86077
0.86077
0.86077
0.86077
0.860769
0.860769
0.860769
0.860769
0.860769
0.860769
0.860769
0.860768
0.860768
0.860768
0.860768
0.860768
0.860767
0.860767
0.860767
0.860767
0.860766
0.860766
0.860766
0.860766
0.860765
0.860765
0.860765
0.860765
0.860764
0.860764
0.860764
0.860763
0.860763
0.860762
0.860762
0.860762
0.860761
0.860761
0.860761
0.860761
0.86076
0.860759
0.860758
0.860758
0.860757
0.860757
0.860757
0.860756
0.860756
0.860755
0.860755
0.860754
0.860753
0.860753
0.860752
0.860752
0.860751
0.860751
0.86075
0.86075
0.860749
0.860748
0.860748
0.860747
0.860747
0.860746
0.860745
0.860745
0.860744
0.860744
0.860743
0.860742
0.860742
0.860741
0.86074
0.860739
0.860739
0.860738
0.860738
0.860737
0.860736
0.860736
0.860735
0.860735
0.860734
0.860734
0.860733
0.860733
0.860732
0.860732
0.860732
0.860731
0.860731
0.860731
0.860731
0.860731
0.860731
0.860731
0.860731
0.860731
0.860731
0.860731
0.860731
0.860732
0.860732
0.860733
0.860733
0.860734
0.860734
0.860735
0.860736
0.860737
0.860738
0.860739
0.860741
0.860742
0.860744
0.860745
0.860747
0.860749
0.860751
0.860753
0.860755
0.860757
0.86076
0.860762
0.860765
0.860768
0.860771
0.860774
0.860777
0.860781
0.860785
0.860788
0.860792
0.860796
0.860801
0.860805
0.86081
0.860814
0.860819
0.860824
0.86083
0.860835
0.860841
0.860846
0.860852
0.860858
0.860865
0.860871
0.860877
0.860884
0.860891
0.860898
0.860905
0.860912
0.86092
0.860927
0.860935
0.860943
0.860951
0.860959
0.860967
0.860975
0.860984
0.860993
0.861001
0.861009
0.861018
0.861027
0.861035
0.861044
0.861054
0.861063
0.861072
0.861081
0.861091
0.8611
0.86111
0.86112
0.861131
0.861141
0.861147
0.861139
0.86108
0.860857
0.860123
0.857849
0.851058
0.831641
0.7814
0.679606
0.543771
0.425826
0.345949
0.293835
0.258011
0.232535
0.214693
0.201523
0.191451
0.18425
0.17896
0.174736
0.171287
0.168405
0.16595
0.163826
0.161964
0.160314
0.158838
0.157508
0.156301
0.155199
0.154189
0.153257
0.152395
0.151594
0.150848
0.15015
0.149496
0.148882
0.148303
0.147757
0.147241
0.146754
0.146305
0.145886
0.145483
0.145097
0.144725
0.144369
0.144025
0.143694
0.143375
0.143067
0.142769
0.142481
0.142203
0.141934
0.141673
0.14142
0.141175
0.140936
0.140705
0.14048
0.140262
0.140049
0.139842
0.139641
0.139445
0.139254
0.139067
0.138885
0.138708
0.138535
0.138365
0.1382
0.138039
0.137881
0.137726
0.137575
0.137428
0.137283
0.137141
0.137002
0.136866
0.136733
0.136602
0.136474
0.136349
0.136225
0.136104
0.135985
0.135869
0.135754
0.135641
0.135531
0.135422
0.135315
0.13521
0.135106
0.135004
0.134904
0.134805
0.134708
0.134612
0.134518
0.134425
0.134333
0.134243
0.134154
0.134066
0.13398
0.133894
0.13381
0.133727
0.133645
0.133564
0.133485
0.13341
0.133324
0.13325
0.133175
0.133101
0.133028
0.132956
0.132885
0.132814
0.132745
0.132677
0.13261
0.132545
0.13248
0.132416
0.132354
0.132293
0.132233
0.132174
0.132116
0.13206
0.132005
0.131951
0.131898
0.131846
0.131796
0.131747
0.131698
0.131651
0.131605
0.13156
0.131516
0.131473
0.131431
0.131389
0.131347
0.131306
0.131265
0.131225
0.131184
0.131143
0.131101
0.131059
0.131015
0.130971
0.130925
0.130877
0.130827
0.130775
0.13072
0.130663
0.130602
0.130538
0.130471
0.130399
0.130324
0.130244
0.13016
0.130071
0.129978
0.129879
0.129776
0.129668
0.129555
0.129437
0.129314
0.129187
0.129056
0.128921
0.128782
0.12864
0.128495
0.128347
0.128197
0.128045
0.127893
0.12774
0.127586
0.127434
0.127282
0.127132
0.126984
0.126839
0.126697
0.126559
0.126425
0.126296
0.126172
0.126053
0.12594
0.125834
0.125733
0.125639
0.125552
0.125471
0.125397
0.12533
0.12527
0.125216
0.125169
0.125128
0.125093
0.125064
0.125041
0.125023
0.12501
0.125001
0.124996
0.124994
0.124994
0.124996
0.124999
0.125001
0.125002
)
;

boundaryField
{
    boundary
    {
        type            empty;
    }
    inlet
    {
        type            calculated;
        value           uniform 0.865276;
    }
    outlet
    {
        type            calculated;
        value           uniform 0.125002;
    }
}


// ************************************************************************* //
