/*--------------------------------*- C++ -*----------------------------------*\
  =========                 |
  \\      /  F ield         | OpenFOAM: The Open Source CFD Toolbox
   \\    /   O peration     | Website:  https://openfoam.org
    \\  /    A nd           | Version:  7
     \\/     M anipulation  |
\*---------------------------------------------------------------------------*/
FoamFile
{
    version     2.0;
    format      ascii;
    class       volScalarField;
    location    "0.00046";
    object      T;
}
// * * * * * * * * * * * * * * * * * * * * * * * * * * * * * * * * * * * * * //

dimensions      [0 0 0 1 0 0 0];

internalField   nonuniform List<scalar> 
500
(
300.003
300.007
300.012
300.016
300.021
300.025
300.03
300.035
300.041
300.047
300.054
300.062
300.072
300.083
300.096
300.112
300.13
300.152
300.178
300.207
300.241
300.28
300.323
300.371
300.424
300.481
300.542
300.606
300.673
300.741
300.811
300.88
300.948
301.015
301.079
301.139
301.196
301.248
301.296
301.339
301.377
301.41
301.439
301.464
301.485
301.503
301.517
301.529
301.538
301.546
301.552
301.557
301.56
301.563
301.565
301.566
301.568
301.568
301.569
301.569
301.57
301.57
301.57
301.57
301.57
301.57
301.57
301.57
301.57
301.571
301.571
301.571
301.571
301.571
301.571
301.571
301.571
301.571
301.571
301.571
301.571
301.571
301.571
301.571
301.571
301.571
301.571
301.571
301.571
301.571
301.571
301.571
301.571
301.571
301.572
301.572
301.572
301.572
301.572
301.572
301.572
301.572
301.572
301.572
301.572
301.572
301.573
301.573
301.573
301.573
301.573
301.573
301.573
301.573
301.573
301.574
301.574
301.574
301.574
301.574
301.574
301.574
301.575
301.575
301.575
301.575
301.575
301.575
301.576
301.576
301.576
301.576
301.576
301.577
301.577
301.577
301.577
301.577
301.578
301.578
301.578
301.578
301.578
301.579
301.579
301.579
301.579
301.579
301.58
301.58
301.58
301.58
301.581
301.581
301.581
301.581
301.582
301.582
301.582
301.582
301.583
301.583
301.583
301.583
301.584
301.584
301.584
301.584
301.585
301.585
301.585
301.585
301.585
301.585
301.586
301.586
301.586
301.586
301.586
301.586
301.586
301.586
301.586
301.586
301.586
301.586
301.586
301.586
301.586
301.586
301.586
301.586
301.586
301.585
301.585
301.585
301.585
301.584
301.584
301.584
301.583
301.583
301.582
301.582
301.581
301.58
301.58
301.579
301.578
301.577
301.577
301.576
301.575
301.574
301.573
301.572
301.57
301.569
301.568
301.567
301.565
301.564
301.562
301.561
301.559
301.558
301.556
301.554
301.552
301.551
301.549
301.547
301.545
301.542
301.54
301.538
301.536
301.533
301.531
301.529
301.526
301.524
301.521
301.518
301.516
301.513
301.51
301.507
301.505
301.502
301.499
301.495
301.493
301.49
301.487
301.484
301.481
301.478
301.474
301.471
301.468
301.465
301.462
301.458
301.455
301.452
301.449
301.448
301.449
301.461
301.499
301.614
301.948
302.907
305.652
313.462
334.982
387.837
489.521
632.443
787.987
938.631
1079.92
1207.89
1315.98
1408.18
1486.11
1548.02
1597.22
1638.99
1674.94
1706.35
1734.16
1759.06
1781.56
1802.03
1820.8
1838.08
1854.09
1868.97
1882.85
1895.86
1908.07
1919.57
1930.43
1940.7
1950.44
1959.7
1968.5
1976.89
1984.89
1992.51
1999.6
2006.26
2012.71
2018.93
2024.96
2030.78
2036.43
2041.9
2047.2
2052.35
2057.35
2062.2
2066.93
2071.52
2075.99
2080.35
2084.59
2088.73
2092.76
2096.7
2100.54
2104.3
2107.96
2111.54
2115.05
2118.47
2121.83
2125.11
2128.32
2131.47
2134.55
2137.57
2140.53
2143.44
2146.28
2149.08
2151.82
2154.51
2157.15
2159.75
2162.3
2164.8
2167.27
2169.69
2172.06
2174.4
2176.7
2178.97
2181.2
2183.39
2185.54
2187.67
2189.76
2191.82
2193.85
2195.85
2197.82
2199.76
2201.67
2203.55
2205.41
2207.24
2209.04
2210.81
2212.56
2214.3
2216.01
2217.7
2219.37
2221.01
2222.63
2224.23
2225.8
2227.35
2228.82
2230.48
2231.94
2233.39
2234.83
2236.25
2237.66
2239.04
2240.39
2241.73
2243.04
2244.33
2245.59
2246.83
2248.04
2249.23
2250.39
2251.53
2252.63
2253.72
2254.77
2255.8
2256.79
2257.76
2258.71
2259.62
2260.51
2261.37
2262.2
2263
2263.79
2264.55
2265.28
2266
2266.7
2267.38
2268.04
2268.7
2269.35
2270
2270.64
2271.29
2271.94
2272.61
2273.3
2274.01
2274.74
2275.51
2276.31
2277.17
2278.07
2279.02
2280.04
2281.12
2282.27
2283.5
2284.82
2286.21
2287.7
2289.28
2290.96
2292.73
2294.6
2296.57
2298.65
2300.82
2303.08
2305.45
2307.9
2310.44
2313.06
2315.76
2318.53
2321.35
2324.24
2327.16
2330.13
2333.12
2336.12
2339.14
2342.15
2345.14
2348.11
2351.05
2353.94
2356.77
2359.55
2362.25
2364.87
2367.41
2369.85
2372.19
2374.43
2376.56
2378.58
2380.49
2382.28
2383.95
2385.5
2386.94
2388.27
2389.48
2390.58
2391.58
2392.48
2393.27
2393.98
2394.59
2395.12
2395.58
2395.96
2396.27
2396.5
2396.64
)
;

boundaryField
{
    boundary
    {
        type            empty;
    }
    inlet
    {
        type            fixedValue;
        value           uniform 300;
    }
    outlet
    {
        type            zeroGradient;
    }
}


// ************************************************************************* //
