/*--------------------------------*- C++ -*----------------------------------*\
  =========                 |
  \\      /  F ield         | OpenFOAM: The Open Source CFD Toolbox
   \\    /   O peration     | Website:  https://openfoam.org
    \\  /    A nd           | Version:  7
     \\/     M anipulation  |
\*---------------------------------------------------------------------------*/
FoamFile
{
    version     2.0;
    format      ascii;
    class       volScalarField;
    location    "2e-05";
    object      H;
}
// * * * * * * * * * * * * * * * * * * * * * * * * * * * * * * * * * * * * * //

dimensions      [0 0 0 0 0 0 0];

internalField   nonuniform List<scalar> 
124
(
7.50091e-05
7.50084e-05
7.50081e-05
7.5008e-05
7.50079e-05
7.50078e-05
7.50077e-05
7.50077e-05
7.50076e-05
7.50075e-05
7.50074e-05
7.50074e-05
7.50073e-05
7.50072e-05
7.50072e-05
7.50072e-05
7.50071e-05
7.5007e-05
7.5007e-05
7.5007e-05
7.50069e-05
7.50069e-05
7.50069e-05
7.50068e-05
7.50068e-05
7.50068e-05
7.50068e-05
7.50068e-05
7.50067e-05
7.50067e-05
7.50067e-05
7.50067e-05
7.50067e-05
7.50067e-05
7.50067e-05
7.50068e-05
7.50068e-05
7.50068e-05
7.50068e-05
7.50069e-05
7.50069e-05
7.5007e-05
7.5007e-05
7.50071e-05
7.50072e-05
7.50072e-05
7.50073e-05
7.50074e-05
7.50075e-05
7.50076e-05
7.50077e-05
7.50078e-05
7.50079e-05
7.5008e-05
7.50081e-05
7.50082e-05
7.50084e-05
7.50085e-05
7.50086e-05
7.50088e-05
7.50089e-05
7.5009e-05
7.50092e-05
7.50093e-05
7.50095e-05
7.50096e-05
7.50098e-05
7.50099e-05
7.50101e-05
7.50102e-05
7.50104e-05
7.50105e-05
7.50107e-05
7.50108e-05
7.5011e-05
7.50111e-05
7.50113e-05
7.50114e-05
7.50115e-05
7.50116e-05
7.50117e-05
7.50118e-05
7.50119e-05
7.5012e-05
7.50121e-05
7.50121e-05
7.50122e-05
7.50123e-05
7.50123e-05
7.50123e-05
7.50123e-05
7.50123e-05
7.50123e-05
7.50123e-05
7.50123e-05
7.50122e-05
7.50121e-05
7.50121e-05
7.5012e-05
7.50119e-05
7.50117e-05
7.50116e-05
7.50114e-05
7.50113e-05
7.50111e-05
7.50108e-05
7.50106e-05
7.50104e-05
7.50101e-05
7.50098e-05
7.50095e-05
7.50092e-05
7.50089e-05
7.50085e-05
7.50081e-05
7.50077e-05
7.50073e-05
7.50068e-05
7.50064e-05
7.50059e-05
7.50054e-05
7.5005e-05
7.50046e-05
7.50043e-05
)
;

boundaryField
{
    boundary
    {
        type            empty;
    }
    inlet
    {
        type            fixedValue;
        value           nonuniform 0();
    }
    outlet
    {
        type            zeroGradient;
    }
    procBoundary0to1
    {
        type            processor;
        value           uniform 7.50103e-05;
    }
}


// ************************************************************************* //
