/*--------------------------------*- C++ -*----------------------------------*\
  =========                 |
  \\      /  F ield         | OpenFOAM: The Open Source CFD Toolbox
   \\    /   O peration     | Website:  https://openfoam.org
    \\  /    A nd           | Version:  7
     \\/     M anipulation  |
\*---------------------------------------------------------------------------*/
FoamFile
{
    version     2.0;
    format      ascii;
    class       volScalarField;
    location    "2e-05";
    object      H2O2;
}
// * * * * * * * * * * * * * * * * * * * * * * * * * * * * * * * * * * * * * //

dimensions      [0 0 0 0 0 0 0];

internalField   nonuniform List<scalar> 
124
(
1.89645e-07
1.89627e-07
1.89619e-07
1.89614e-07
1.89611e-07
1.89607e-07
1.89604e-07
1.89601e-07
1.89597e-07
1.89594e-07
1.89591e-07
1.89588e-07
1.89585e-07
1.89581e-07
1.89578e-07
1.89575e-07
1.89572e-07
1.8957e-07
1.89567e-07
1.89564e-07
1.89561e-07
1.89558e-07
1.89556e-07
1.89553e-07
1.8955e-07
1.89548e-07
1.89545e-07
1.89542e-07
1.8954e-07
1.89537e-07
1.89535e-07
1.89533e-07
1.8953e-07
1.89528e-07
1.89526e-07
1.89523e-07
1.89521e-07
1.89519e-07
1.89517e-07
1.89515e-07
1.89513e-07
1.8951e-07
1.89508e-07
1.89506e-07
1.89505e-07
1.89503e-07
1.89501e-07
1.89499e-07
1.89497e-07
1.89495e-07
1.89493e-07
1.89492e-07
1.8949e-07
1.89488e-07
1.89487e-07
1.89485e-07
1.89483e-07
1.89482e-07
1.8948e-07
1.89478e-07
1.89477e-07
1.89475e-07
1.89474e-07
1.89472e-07
1.89471e-07
1.89469e-07
1.89467e-07
1.89466e-07
1.89464e-07
1.89463e-07
1.89461e-07
1.89459e-07
1.89457e-07
1.89456e-07
1.89454e-07
1.89452e-07
1.8945e-07
1.89449e-07
1.89447e-07
1.89445e-07
1.89443e-07
1.89441e-07
1.89439e-07
1.89437e-07
1.89434e-07
1.89432e-07
1.8943e-07
1.89427e-07
1.89425e-07
1.89422e-07
1.8942e-07
1.89417e-07
1.89414e-07
1.89411e-07
1.89409e-07
1.89406e-07
1.89403e-07
1.89399e-07
1.89396e-07
1.89393e-07
1.89389e-07
1.89386e-07
1.89382e-07
1.89379e-07
1.89375e-07
1.89371e-07
1.89367e-07
1.89363e-07
1.89359e-07
1.89355e-07
1.89351e-07
1.89347e-07
1.89342e-07
1.89338e-07
1.89334e-07
1.89329e-07
1.89324e-07
1.8932e-07
1.89315e-07
1.8931e-07
1.89305e-07
1.893e-07
1.89295e-07
1.89291e-07
)
;

boundaryField
{
    boundary
    {
        type            empty;
    }
    inlet
    {
        type            fixedValue;
        value           nonuniform 0();
    }
    outlet
    {
        type            zeroGradient;
    }
    procBoundary0to1
    {
        type            processor;
        value           uniform 1.89646e-07;
    }
}


// ************************************************************************* //
