/*--------------------------------*- C++ -*----------------------------------*\
  =========                 |
  \\      /  F ield         | OpenFOAM: The Open Source CFD Toolbox
   \\    /   O peration     | Website:  https://openfoam.org
    \\  /    A nd           | Version:  7
     \\/     M anipulation  |
\*---------------------------------------------------------------------------*/
FoamFile
{
    version     2.0;
    format      ascii;
    class       volScalarField;
    location    "2e-05";
    object      HO2;
}
// * * * * * * * * * * * * * * * * * * * * * * * * * * * * * * * * * * * * * //

dimensions      [0 0 0 0 0 0 0];

internalField   nonuniform List<scalar> 
124
(
1.71249e-06
1.71281e-06
1.71295e-06
1.713e-06
1.71303e-06
1.71304e-06
1.71304e-06
1.71305e-06
1.71306e-06
1.71306e-06
1.71307e-06
1.71308e-06
1.71308e-06
1.71309e-06
1.7131e-06
1.71311e-06
1.71312e-06
1.71312e-06
1.71313e-06
1.71314e-06
1.71314e-06
1.71315e-06
1.71315e-06
1.71315e-06
1.71316e-06
1.71316e-06
1.71316e-06
1.71317e-06
1.71317e-06
1.71317e-06
1.71317e-06
1.71317e-06
1.71317e-06
1.71317e-06
1.71317e-06
1.71317e-06
1.71318e-06
1.71318e-06
1.71318e-06
1.71317e-06
1.71317e-06
1.71316e-06
1.71316e-06
1.71315e-06
1.71315e-06
1.71314e-06
1.71313e-06
1.71312e-06
1.71311e-06
1.7131e-06
1.71309e-06
1.71308e-06
1.71307e-06
1.71306e-06
1.71305e-06
1.71304e-06
1.71302e-06
1.71301e-06
1.713e-06
1.71297e-06
1.71295e-06
1.71294e-06
1.71292e-06
1.71291e-06
1.71289e-06
1.71287e-06
1.71286e-06
1.71284e-06
1.71283e-06
1.71281e-06
1.71279e-06
1.71277e-06
1.71276e-06
1.71274e-06
1.71272e-06
1.7127e-06
1.71269e-06
1.71267e-06
1.71265e-06
1.71264e-06
1.71263e-06
1.71261e-06
1.71259e-06
1.71258e-06
1.71257e-06
1.71255e-06
1.71254e-06
1.71253e-06
1.71252e-06
1.71251e-06
1.7125e-06
1.71249e-06
1.71248e-06
1.71248e-06
1.71247e-06
1.71247e-06
1.71247e-06
1.71246e-06
1.71246e-06
1.71246e-06
1.71246e-06
1.71246e-06
1.71247e-06
1.71247e-06
1.71248e-06
1.71249e-06
1.7125e-06
1.7125e-06
1.71252e-06
1.71253e-06
1.71254e-06
1.71256e-06
1.71258e-06
1.71259e-06
1.71261e-06
1.71263e-06
1.71266e-06
1.71269e-06
1.71271e-06
1.71274e-06
1.71277e-06
1.71281e-06
1.71284e-06
1.71287e-06
)
;

boundaryField
{
    boundary
    {
        type            empty;
    }
    inlet
    {
        type            fixedValue;
        value           nonuniform 0();
    }
    outlet
    {
        type            zeroGradient;
    }
    procBoundary0to1
    {
        type            processor;
        value           uniform 1.71256e-06;
    }
}


// ************************************************************************* //
