/*--------------------------------*- C++ -*----------------------------------*\
  =========                 |
  \\      /  F ield         | OpenFOAM: The Open Source CFD Toolbox
   \\    /   O peration     | Website:  https://openfoam.org
    \\  /    A nd           | Version:  7
     \\/     M anipulation  |
\*---------------------------------------------------------------------------*/
FoamFile
{
    version     2.0;
    format      ascii;
    class       volScalarField;
    location    "2e-05";
    object      O;
}
// * * * * * * * * * * * * * * * * * * * * * * * * * * * * * * * * * * * * * //

dimensions      [0 0 0 0 0 0 0];

internalField   nonuniform List<scalar> 
124
(
0.00039197
0.000391964
0.000391963
0.000391964
0.000391965
0.000391966
0.000391966
0.000391966
0.000391966
0.000391966
0.000391966
0.000391967
0.000391967
0.000391967
0.000391968
0.000391968
0.000391969
0.000391969
0.00039197
0.00039197
0.000391971
0.000391971
0.000391972
0.000391972
0.000391973
0.000391974
0.000391974
0.000391975
0.000391975
0.000391976
0.000391977
0.000391977
0.000391978
0.000391979
0.000391979
0.00039198
0.000391981
0.000391982
0.000391982
0.000391983
0.000391984
0.000391985
0.000391986
0.000391987
0.000391987
0.000391988
0.000391989
0.00039199
0.000391991
0.000391992
0.000391993
0.000391994
0.000391995
0.000391996
0.000391997
0.000391998
0.000391999
0.000392
0.000392002
0.000392003
0.000392004
0.000392005
0.000392006
0.000392007
0.000392008
0.000392009
0.00039201
0.000392011
0.000392012
0.000392013
0.000392014
0.000392015
0.000392017
0.000392018
0.000392019
0.00039202
0.000392021
0.000392021
0.000392022
0.000392023
0.000392024
0.000392024
0.000392025
0.000392026
0.000392026
0.000392027
0.000392027
0.000392028
0.000392028
0.000392028
0.000392028
0.000392028
0.000392028
0.000392028
0.000392028
0.000392028
0.000392028
0.000392028
0.000392027
0.000392027
0.000392026
0.000392026
0.000392025
0.000392024
0.000392023
0.000392022
0.000392021
0.00039202
0.000392018
0.000392017
0.000392015
0.000392014
0.000392012
0.00039201
0.000392008
0.000392006
0.000392004
0.000392001
0.000391999
0.000391996
0.000391994
0.000391991
0.000391989
0.000391988
)
;

boundaryField
{
    boundary
    {
        type            empty;
    }
    inlet
    {
        type            fixedValue;
        value           nonuniform 0();
    }
    outlet
    {
        type            zeroGradient;
    }
    procBoundary0to1
    {
        type            processor;
        value           uniform 0.000391971;
    }
}


// ************************************************************************* //
