/*--------------------------------*- C++ -*----------------------------------*\
  =========                 |
  \\      /  F ield         | OpenFOAM: The Open Source CFD Toolbox
   \\    /   O peration     | Website:  https://openfoam.org
    \\  /    A nd           | Version:  7
     \\/     M anipulation  |
\*---------------------------------------------------------------------------*/
FoamFile
{
    version     2.0;
    format      ascii;
    class       volScalarField;
    location    "2e-05";
    object      p;
}
// * * * * * * * * * * * * * * * * * * * * * * * * * * * * * * * * * * * * * //

dimensions      [1 -1 -2 0 0 0 0];

internalField   nonuniform List<scalar> 
124
(
101872
101871
101870
101870
101869
101868
101867
101866
101865
101864
101863
101862
101862
101861
101860
101859
101858
101857
101856
101855
101855
101854
101853
101852
101851
101850
101849
101848
101848
101847
101846
101845
101844
101843
101842
101841
101840
101839
101838
101837
101836
101835
101834
101833
101832
101831
101830
101829
101828
101827
101826
101825
101824
101823
101822
101821
101820
101818
101817
101816
101815
101814
101812
101811
101810
101809
101807
101806
101805
101804
101802
101801
101799
101798
101797
101795
101794
101792
101791
101789
101788
101786
101785
101783
101782
101780
101779
101777
101776
101774
101773
101771
101769
101768
101766
101764
101763
101761
101760
101758
101756
101755
101753
101752
101750
101749
101747
101745
101744
101742
101741
101739
101738
101737
101735
101734
101732
101731
101730
101729
101727
101726
101725
101724
)
;

boundaryField
{
    boundary
    {
        type            empty;
    }
    inlet
    {
        type            zeroGradient;
    }
    outlet
    {
        type            waveTransmissive;
        gamma           1.4;
        value           uniform 101723;
    }
    procBoundary0to1
    {
        type            processor;
        value           uniform 101873;
    }
}


// ************************************************************************* //
