/*--------------------------------*- C++ -*----------------------------------*\
  =========                 |
  \\      /  F ield         | OpenFOAM: The Open Source CFD Toolbox
   \\    /   O peration     | Website:  https://openfoam.org
    \\  /    A nd           | Version:  7
     \\/     M anipulation  |
\*---------------------------------------------------------------------------*/
FoamFile
{
    version     2.0;
    format      ascii;
    class       surfaceScalarField;
    location    "2e-05";
    object      phi;
}
// * * * * * * * * * * * * * * * * * * * * * * * * * * * * * * * * * * * * * //

dimensions      [1 0 -1 0 0 0 0];

internalField   nonuniform List<scalar> 
123
(
2.80335e-06
2.80112e-06
2.79888e-06
2.79663e-06
2.79437e-06
2.79209e-06
2.7898e-06
2.78751e-06
2.7852e-06
2.78287e-06
2.78054e-06
2.77819e-06
2.77583e-06
2.77346e-06
2.77108e-06
2.76868e-06
2.76626e-06
2.76384e-06
2.76139e-06
2.75894e-06
2.75646e-06
2.75397e-06
2.75146e-06
2.74894e-06
2.7464e-06
2.74383e-06
2.74125e-06
2.73865e-06
2.73603e-06
2.73338e-06
2.73071e-06
2.72802e-06
2.7253e-06
2.72255e-06
2.71978e-06
2.71698e-06
2.71415e-06
2.71129e-06
2.7084e-06
2.70548e-06
2.70252e-06
2.69953e-06
2.6965e-06
2.69343e-06
2.69033e-06
2.68718e-06
2.684e-06
2.68077e-06
2.67749e-06
2.67418e-06
2.67081e-06
2.6674e-06
2.66393e-06
2.66042e-06
2.65685e-06
2.65323e-06
2.64956e-06
2.64583e-06
2.64205e-06
2.6382e-06
2.6343e-06
2.63033e-06
2.62631e-06
2.62222e-06
2.61807e-06
2.61385e-06
2.60957e-06
2.60523e-06
2.60082e-06
2.59634e-06
2.59179e-06
2.58718e-06
2.5825e-06
2.57776e-06
2.57294e-06
2.56806e-06
2.56311e-06
2.5581e-06
2.55302e-06
2.54787e-06
2.54266e-06
2.53739e-06
2.53206e-06
2.52666e-06
2.52121e-06
2.5157e-06
2.51014e-06
2.50452e-06
2.49886e-06
2.49314e-06
2.48739e-06
2.48159e-06
2.47575e-06
2.46987e-06
2.46396e-06
2.45803e-06
2.45207e-06
2.44609e-06
2.44009e-06
2.43408e-06
2.42806e-06
2.42204e-06
2.41603e-06
2.41002e-06
2.40401e-06
2.39802e-06
2.39206e-06
2.38612e-06
2.38022e-06
2.37436e-06
2.36854e-06
2.36278e-06
2.35708e-06
2.35144e-06
2.34587e-06
2.34038e-06
2.33498e-06
2.32966e-06
2.32444e-06
2.31933e-06
2.31432e-06
2.30943e-06
2.30466e-06
)
;

boundaryField
{
    boundary
    {
        type            empty;
        value           nonuniform 0();
    }
    inlet
    {
        type            calculated;
        value           nonuniform 0();
    }
    outlet
    {
        type            calculated;
        value           uniform 2.30002e-06;
    }
    procBoundary0to1
    {
        type            processor;
        value           uniform -2.80556e-06;
    }
}


// ************************************************************************* //
