/*--------------------------------*- C++ -*----------------------------------*\
  =========                 |
  \\      /  F ield         | OpenFOAM: The Open Source CFD Toolbox
   \\    /   O peration     | Website:  https://openfoam.org
    \\  /    A nd           | Version:  7
     \\/     M anipulation  |
\*---------------------------------------------------------------------------*/
FoamFile
{
    version     2.0;
    format      ascii;
    class       volScalarField;
    location    "2e-05";
    object      Qdot;
}
// * * * * * * * * * * * * * * * * * * * * * * * * * * * * * * * * * * * * * //

dimensions      [1 -1 -3 0 0 0 0];

internalField   nonuniform List<scalar> 
124
(
-302215
-284858
-276727
-273487
-272531
-272687
-273384
-274346
-275436
-276589
-277774
-278977
-280188
-281401
-282614
-283823
-285026
-286811
-287788
-288829
-289985
-291118
-292229
-293316
-294379
-295420
-296437
-297431
-298396
-299310
-300235
-301123
-301973
-302786
-303561
-304289
-304989
-305591
-306140
-306631
-307062
-307430
-307724
-307947
-308101
-308189
-308215
-308177
-308056
-307828
-307518
-307118
-306593
-306253
-305738
-305110
-304423
-303596
-302673
-301436
-300177
-298844
-297449
-296000
-294492
-292988
-291106
-289226
-287275
-285646
-282825
-280581
-278246
-275862
-273427
-270652
-268056
-265617
-262441
-260152
-257300
-254346
-251160
-248007
-245134
-242157
-238516
-235940
-232708
-229518
-226251
-223247
-220217
-217183
-214368
-211266
-208116
-204732
-202119
-199031
-196324
-193207
-190486
-187748
-185136
-182696
-180216
-178072
-176609
-174449
-171726
-169874
-168136
-166592
-165111
-163763
-162514
-162035
-160972
-160391
-160030
-159907
-160440
-161048
)
;

boundaryField
{
    boundary
    {
        type            empty;
    }
    inlet
    {
        type            calculated;
        value           nonuniform 0();
    }
    outlet
    {
        type            calculated;
        value           uniform 0;
    }
    procBoundary0to1
    {
        type            processor;
        value           uniform 0;
    }
}


// ************************************************************************* //
