/*--------------------------------*- C++ -*----------------------------------*\
  =========                 |
  \\      /  F ield         | OpenFOAM: The Open Source CFD Toolbox
   \\    /   O peration     | Website:  https://openfoam.org
    \\  /    A nd           | Version:  7
     \\/     M anipulation  |
\*---------------------------------------------------------------------------*/
FoamFile
{
    version     2.0;
    format      ascii;
    class       volScalarField;
    location    "2e-05";
    object      T;
}
// * * * * * * * * * * * * * * * * * * * * * * * * * * * * * * * * * * * * * //

dimensions      [0 0 0 1 0 0 0];

internalField   nonuniform List<scalar> 
124
(
2389.53
2389.53
2389.54
2389.54
2389.54
2389.55
2389.55
2389.55
2389.56
2389.56
2389.57
2389.57
2389.57
2389.58
2389.58
2389.59
2389.59
2389.59
2389.6
2389.6
2389.6
2389.61
2389.61
2389.61
2389.62
2389.62
2389.63
2389.63
2389.63
2389.63
2389.64
2389.64
2389.64
2389.65
2389.65
2389.65
2389.65
2389.66
2389.66
2389.66
2389.66
2389.67
2389.67
2389.67
2389.67
2389.67
2389.68
2389.68
2389.68
2389.68
2389.68
2389.68
2389.68
2389.68
2389.68
2389.68
2389.69
2389.69
2389.69
2389.69
2389.68
2389.68
2389.68
2389.68
2389.68
2389.68
2389.68
2389.68
2389.68
2389.68
2389.67
2389.67
2389.67
2389.67
2389.67
2389.66
2389.66
2389.66
2389.66
2389.65
2389.65
2389.65
2389.64
2389.64
2389.64
2389.64
2389.63
2389.63
2389.63
2389.62
2389.62
2389.61
2389.61
2389.61
2389.6
2389.6
2389.6
2389.59
2389.59
2389.59
2389.58
2389.58
2389.58
2389.57
2389.57
2389.57
2389.57
2389.56
2389.56
2389.56
2389.56
2389.55
2389.55
2389.55
2389.55
2389.55
2389.55
2389.54
2389.54
2389.54
2389.54
2389.55
2389.55
2389.55
)
;

boundaryField
{
    boundary
    {
        type            empty;
    }
    inlet
    {
        type            fixedValue;
        value           nonuniform 0();
    }
    outlet
    {
        type            zeroGradient;
    }
    procBoundary0to1
    {
        type            processor;
        value           uniform 2389.52;
    }
}


// ************************************************************************* //
