/*--------------------------------*- C++ -*----------------------------------*\
  =========                 |
  \\      /  F ield         | OpenFOAM: The Open Source CFD Toolbox
   \\    /   O peration     | Website:  https://openfoam.org
    \\  /    A nd           | Version:  7
     \\/     M anipulation  |
\*---------------------------------------------------------------------------*/
FoamFile
{
    version     2.0;
    format      ascii;
    class       volVectorField;
    location    "2e-05";
    object      U;
}
// * * * * * * * * * * * * * * * * * * * * * * * * * * * * * * * * * * * * * //

dimensions      [0 1 -1 0 0 0 0];

internalField   nonuniform List<vector> 
124
(
(6.60584 0 0)
(6.59663 0 0)
(6.59161 0 0)
(6.58932 0 0)
(6.58431 0 0)
(6.57886 0 0)
(6.5734 0 0)
(6.56805 0 0)
(6.56268 0 0)
(6.55724 0 0)
(6.55177 0 0)
(6.54628 0 0)
(6.54076 0 0)
(6.53522 0 0)
(6.52965 0 0)
(6.52405 0 0)
(6.51841 0 0)
(6.51275 0 0)
(6.50705 0 0)
(6.50132 0 0)
(6.49555 0 0)
(6.48974 0 0)
(6.48391 0 0)
(6.47804 0 0)
(6.47211 0 0)
(6.46613 0 0)
(6.46011 0 0)
(6.45406 0 0)
(6.44795 0 0)
(6.44179 0 0)
(6.43558 0 0)
(6.42935 0 0)
(6.42302 0 0)
(6.41656 0 0)
(6.41011 0 0)
(6.40366 0 0)
(6.39712 0 0)
(6.39044 0 0)
(6.3837 0 0)
(6.37691 0 0)
(6.37005 0 0)
(6.36309 0 0)
(6.35606 0 0)
(6.34894 0 0)
(6.34173 0 0)
(6.33442 0 0)
(6.327 0 0)
(6.3195 0 0)
(6.31193 0 0)
(6.30425 0 0)
(6.29641 0 0)
(6.28846 0 0)
(6.28041 0 0)
(6.27227 0 0)
(6.264 0 0)
(6.25566 0 0)
(6.24717 0 0)
(6.23834 0 0)
(6.22945 0 0)
(6.22065 0 0)
(6.21174 0 0)
(6.20249 0 0)
(6.19308 0 0)
(6.18359 0 0)
(6.17396 0 0)
(6.16418 0 0)
(6.15424 0 0)
(6.14415 0 0)
(6.1339 0 0)
(6.12346 0 0)
(6.11288 0 0)
(6.10225 0 0)
(6.09146 0 0)
(6.08038 0 0)
(6.06908 0 0)
(6.05771 0 0)
(6.04626 0 0)
(6.03461 0 0)
(6.02289 0 0)
(6.01095 0 0)
(5.99852 0 0)
(5.98624 0 0)
(5.97404 0 0)
(5.9616 0 0)
(5.94877 0 0)
(5.93591 0 0)
(5.92296 0 0)
(5.90988 0 0)
(5.89667 0 0)
(5.88334 0 0)
(5.86991 0 0)
(5.85638 0 0)
(5.84275 0 0)
(5.82903 0 0)
(5.81517 0 0)
(5.80127 0 0)
(5.78748 0 0)
(5.77358 0 0)
(5.75945 0 0)
(5.74525 0 0)
(5.73116 0 0)
(5.71727 0 0)
(5.70338 0 0)
(5.68879 0 0)
(5.67449 0 0)
(5.66073 0 0)
(5.64707 0 0)
(5.633 0 0)
(5.61897 0 0)
(5.60523 0 0)
(5.59156 0 0)
(5.57799 0 0)
(5.56455 0 0)
(5.55126 0 0)
(5.53813 0 0)
(5.52517 0 0)
(5.5124 0 0)
(5.49984 0 0)
(5.48749 0 0)
(5.47524 0 0)
(5.46372 0 0)
(5.45164 0 0)
(5.4396 0 0)
(5.43064 0 0)
)
;

boundaryField
{
    boundary
    {
        type            empty;
    }
    inlet
    {
        type            fixedValue;
        value           nonuniform 0();
    }
    outlet
    {
        type            zeroGradient;
    }
    procBoundary0to1
    {
        type            processor;
        value           uniform (6.61142 0 0);
    }
}


// ************************************************************************* //
