/*--------------------------------*- C++ -*----------------------------------*\
  =========                 |
  \\      /  F ield         | OpenFOAM: The Open Source CFD Toolbox
   \\    /   O peration     | Website:  https://openfoam.org
    \\  /    A nd           | Version:  7
     \\/     M anipulation  |
\*---------------------------------------------------------------------------*/
FoamFile
{
    version     2.0;
    format      ascii;
    class       volScalarField;
    location    "0.00046";
    object      p;
}
// * * * * * * * * * * * * * * * * * * * * * * * * * * * * * * * * * * * * * //

dimensions      [1 -1 -2 0 0 0 0];

internalField   nonuniform List<scalar> 
124
(
103173
103173
103173
103173
103173
103173
103173
103173
103173
103173
103173
103173
103173
103173
103172
103172
103172
103172
103172
103172
103172
103172
103172
103172
103172
103172
103172
103172
103172
103172
103172
103172
103172
103172
103172
103172
103172
103172
103172
103172
103172
103172
103172
103172
103172
103172
103172
103172
103172
103172
103172
103172
103172
103172
103172
103172
103172
103172
103172
103172
103172
103172
103172
103172
103172
103172
103172
103172
103172
103172
103172
103172
103172
103172
103172
103172
103172
103172
103172
103172
103172
103172
103172
103172
103172
103172
103172
103172
103172
103172
103172
103171
103171
103171
103171
103171
103171
103171
103171
103171
103171
103171
103171
103171
103171
103171
103171
103171
103171
103171
103171
103171
103171
103171
103171
103171
103171
103171
103171
103171
103171
103171
103171
103171
)
;

boundaryField
{
    boundary
    {
        type            empty;
    }
    inlet
    {
        type            zeroGradient;
    }
    outlet
    {
        type            waveTransmissive;
        gamma           1.4;
        value           uniform 103171;
    }
    procBoundary0to1
    {
        type            processor;
        value           uniform 103173;
    }
}


// ************************************************************************* //
