/*--------------------------------*- C++ -*----------------------------------*\
  =========                 |
  \\      /  F ield         | OpenFOAM: The Open Source CFD Toolbox
   \\    /   O peration     | Website:  https://openfoam.org
    \\  /    A nd           | Version:  7
     \\/     M anipulation  |
\*---------------------------------------------------------------------------*/
FoamFile
{
    version     2.0;
    format      ascii;
    class       volScalarField;
    location    "0.00046";
    object      Qdot;
}
// * * * * * * * * * * * * * * * * * * * * * * * * * * * * * * * * * * * * * //

dimensions      [1 -1 -3 0 0 0 0];

internalField   nonuniform List<scalar> 
124
(
1.62926e+08
1.60069e+08
1.57305e+08
1.5462e+08
1.52005e+08
1.49456e+08
1.46969e+08
1.44542e+08
1.4217e+08
1.39855e+08
1.37592e+08
1.3538e+08
1.33219e+08
1.31105e+08
1.29039e+08
1.27017e+08
1.25039e+08
1.23104e+08
1.21209e+08
1.19354e+08
1.17538e+08
1.15759e+08
1.14015e+08
1.12307e+08
1.10632e+08
1.08989e+08
1.07378e+08
1.05797e+08
1.04245e+08
1.02721e+08
1.01223e+08
9.97522e+07
9.83058e+07
9.68831e+07
9.5483e+07
9.41043e+07
9.27463e+07
9.14078e+07
9.00876e+07
8.87847e+07
8.74981e+07
8.62267e+07
8.49695e+07
8.37253e+07
8.24932e+07
8.1272e+07
8.00608e+07
7.88591e+07
7.76648e+07
7.64777e+07
7.52966e+07
7.41209e+07
7.29495e+07
7.17817e+07
7.06166e+07
6.94535e+07
6.82919e+07
6.71309e+07
6.59703e+07
6.48094e+07
6.3648e+07
6.24861e+07
6.1321e+07
6.01559e+07
5.89892e+07
5.78209e+07
5.66511e+07
5.54799e+07
5.43076e+07
5.31344e+07
5.19606e+07
5.07866e+07
4.96129e+07
4.844e+07
4.72684e+07
4.60987e+07
4.49315e+07
4.37671e+07
4.26068e+07
4.1451e+07
4.03003e+07
3.91554e+07
3.80171e+07
3.6886e+07
3.57629e+07
3.46486e+07
3.35437e+07
3.24491e+07
3.13655e+07
3.02936e+07
2.92344e+07
2.81884e+07
2.71567e+07
2.61399e+07
2.51389e+07
2.41545e+07
2.31876e+07
2.22389e+07
2.13094e+07
2.03993e+07
1.95099e+07
1.86416e+07
1.77952e+07
1.69711e+07
1.61698e+07
1.53918e+07
1.46374e+07
1.39068e+07
1.31999e+07
1.2517e+07
1.18582e+07
1.12226e+07
1.06102e+07
1.00202e+07
9.45186e+06
8.90447e+06
8.37578e+06
7.86503e+06
7.36935e+06
6.88686e+06
6.41445e+06
5.95298e+06
5.51516e+06
5.17496e+06
)
;

boundaryField
{
    boundary
    {
        type            empty;
    }
    inlet
    {
        type            calculated;
        value           nonuniform 0();
    }
    outlet
    {
        type            calculated;
        value           uniform 0;
    }
    procBoundary0to1
    {
        type            processor;
        value           uniform 0;
    }
}


// ************************************************************************* //
