/*--------------------------------*- C++ -*----------------------------------*\
  =========                 |
  \\      /  F ield         | OpenFOAM: The Open Source CFD Toolbox
   \\    /   O peration     | Website:  https://openfoam.org
    \\  /    A nd           | Version:  7
     \\/     M anipulation  |
\*---------------------------------------------------------------------------*/
FoamFile
{
    version     2.0;
    format      ascii;
    class       volVectorField;
    location    "0.00046";
    object      U;
}
// * * * * * * * * * * * * * * * * * * * * * * * * * * * * * * * * * * * * * //

dimensions      [0 1 -1 0 0 0 0];

internalField   nonuniform List<vector> 
124
(
(15.7407 0 0)
(15.751 0 0)
(15.7612 0 0)
(15.7712 0 0)
(15.7811 0 0)
(15.7908 0 0)
(15.8004 0 0)
(15.8099 0 0)
(15.8191 0 0)
(15.8279 0 0)
(15.8361 0 0)
(15.8452 0 0)
(15.855 0 0)
(15.8641 0 0)
(15.8728 0 0)
(15.8814 0 0)
(15.8898 0 0)
(15.8981 0 0)
(15.9063 0 0)
(15.9144 0 0)
(15.9224 0 0)
(15.9303 0 0)
(15.9381 0 0)
(15.9459 0 0)
(15.9535 0 0)
(15.961 0 0)
(15.9684 0 0)
(15.9757 0 0)
(15.983 0 0)
(15.9901 0 0)
(15.9972 0 0)
(16.0042 0 0)
(16.0111 0 0)
(16.018 0 0)
(16.0247 0 0)
(16.0314 0 0)
(16.038 0 0)
(16.0445 0 0)
(16.051 0 0)
(16.0574 0 0)
(16.0638 0 0)
(16.07 0 0)
(16.0763 0 0)
(16.0824 0 0)
(16.0886 0 0)
(16.0946 0 0)
(16.1006 0 0)
(16.1066 0 0)
(16.1126 0 0)
(16.1185 0 0)
(16.1243 0 0)
(16.1302 0 0)
(16.1359 0 0)
(16.1417 0 0)
(16.1474 0 0)
(16.1531 0 0)
(16.1588 0 0)
(16.1645 0 0)
(16.1701 0 0)
(16.1757 0 0)
(16.1812 0 0)
(16.1867 0 0)
(16.1922 0 0)
(16.1976 0 0)
(16.203 0 0)
(16.2084 0 0)
(16.2137 0 0)
(16.2189 0 0)
(16.2241 0 0)
(16.2292 0 0)
(16.2342 0 0)
(16.2391 0 0)
(16.244 0 0)
(16.2487 0 0)
(16.2533 0 0)
(16.2578 0 0)
(16.2622 0 0)
(16.2664 0 0)
(16.2705 0 0)
(16.2745 0 0)
(16.2782 0 0)
(16.2818 0 0)
(16.2853 0 0)
(16.2885 0 0)
(16.2916 0 0)
(16.2944 0 0)
(16.2971 0 0)
(16.2996 0 0)
(16.3019 0 0)
(16.304 0 0)
(16.3059 0 0)
(16.3076 0 0)
(16.3092 0 0)
(16.3105 0 0)
(16.3117 0 0)
(16.3127 0 0)
(16.3136 0 0)
(16.3143 0 0)
(16.3149 0 0)
(16.3153 0 0)
(16.3157 0 0)
(16.3159 0 0)
(16.316 0 0)
(16.3161 0 0)
(16.3161 0 0)
(16.316 0 0)
(16.3159 0 0)
(16.3157 0 0)
(16.3156 0 0)
(16.3154 0 0)
(16.3152 0 0)
(16.315 0 0)
(16.3149 0 0)
(16.3148 0 0)
(16.3148 0 0)
(16.3148 0 0)
(16.315 0 0)
(16.3153 0 0)
(16.3158 0 0)
(16.3165 0 0)
(16.3175 0 0)
(16.319 0 0)
(16.321 0 0)
(16.3242 0 0)
)
;

boundaryField
{
    boundary
    {
        type            empty;
    }
    inlet
    {
        type            fixedValue;
        value           nonuniform 0();
    }
    outlet
    {
        type            zeroGradient;
    }
    procBoundary0to1
    {
        type            processor;
        value           uniform (15.7303 0 0);
    }
}


// ************************************************************************* //
