/*--------------------------------*- C++ -*----------------------------------*\
  =========                 |
  \\      /  F ield         | OpenFOAM: The Open Source CFD Toolbox
   \\    /   O peration     | Website:  https://openfoam.org
    \\  /    A nd           | Version:  7
     \\/     M anipulation  |
\*---------------------------------------------------------------------------*/
FoamFile
{
    version     2.0;
    format      ascii;
    class       volScalarField;
    location    "0.00048";
    object      H2O2;
}
// * * * * * * * * * * * * * * * * * * * * * * * * * * * * * * * * * * * * * //

dimensions      [0 0 0 0 0 0 0];

internalField   nonuniform List<scalar> 
125
(
2.00022e-52
6.43101e-52
1.2795e-51
2.10992e-51
3.13512e-51
4.35603e-51
5.7739e-51
7.39041e-51
9.20784e-51
1.12293e-50
1.34591e-50
1.59026e-50
1.8567e-50
2.14613e-50
2.45962e-50
2.79847e-50
3.1642e-50
3.55846e-50
3.98303e-50
4.43972e-50
4.93024e-50
5.45604e-50
6.01816e-50
6.61702e-50
7.25222e-50
7.92239e-50
8.62501e-50
9.35632e-50
1.01113e-49
1.08838e-49
1.16665e-49
1.24513e-49
1.32296e-49
1.39926e-49
1.47315e-49
1.54384e-49
1.6106e-49
1.67285e-49
1.73013e-49
1.78214e-49
1.82875e-49
1.86995e-49
1.90588e-49
1.93681e-49
1.96308e-49
1.9851e-49
2.00331e-49
2.01818e-49
2.03017e-49
2.03972e-49
2.04722e-49
2.05305e-49
2.05752e-49
2.0609e-49
2.06344e-49
2.06532e-49
2.0667e-49
2.0677e-49
2.06841e-49
2.06892e-49
2.06928e-49
2.06952e-49
2.0697e-49
2.06981e-49
2.0699e-49
2.06995e-49
2.06999e-49
2.07002e-49
2.07004e-49
2.07006e-49
2.07007e-49
2.07009e-49
2.0701e-49
2.07011e-49
2.07013e-49
2.07014e-49
2.07015e-49
2.07017e-49
2.07019e-49
2.0702e-49
2.07022e-49
2.07024e-49
2.07026e-49
2.07029e-49
2.07031e-49
2.07034e-49
2.07037e-49
2.0704e-49
2.07043e-49
2.07046e-49
2.07049e-49
2.07053e-49
2.07057e-49
2.07061e-49
2.07065e-49
2.0707e-49
2.07074e-49
2.07079e-49
2.07084e-49
2.0709e-49
2.07095e-49
2.07101e-49
2.07107e-49
2.07113e-49
2.0712e-49
2.07127e-49
2.07134e-49
2.07141e-49
2.07149e-49
2.07157e-49
2.07165e-49
2.07174e-49
2.07183e-49
2.07192e-49
2.07201e-49
2.07211e-49
2.07221e-49
2.07232e-49
2.07242e-49
2.07253e-49
2.07263e-49
2.07267e-49
2.0725e-49
2.07147e-49
2.06706e-49
)
;

boundaryField
{
    boundary
    {
        type            empty;
    }
    inlet
    {
        type            fixedValue;
        value           uniform 0;
    }
    outlet
    {
        type            zeroGradient;
    }
    procBoundary2to3
    {
        type            processor;
        value           uniform 2.05829e-49;
    }
}


// ************************************************************************* //
