/*--------------------------------*- C++ -*----------------------------------*\
  =========                 |
  \\      /  F ield         | OpenFOAM: The Open Source CFD Toolbox
   \\    /   O peration     | Website:  https://openfoam.org
    \\  /    A nd           | Version:  7
     \\/     M anipulation  |
\*---------------------------------------------------------------------------*/
FoamFile
{
    version     2.0;
    format      ascii;
    class       volScalarField;
    location    "0.00048";
    object      HO2;
}
// * * * * * * * * * * * * * * * * * * * * * * * * * * * * * * * * * * * * * //

dimensions      [0 0 0 0 0 0 0];

internalField   nonuniform List<scalar> 
125
(
5.60441e-38
1.27622e-37
1.99555e-37
2.71645e-37
3.4386e-37
4.16201e-37
4.88686e-37
5.61343e-37
6.34214e-37
7.0736e-37
7.80862e-37
8.54824e-37
9.29378e-37
1.00469e-36
1.08094e-36
1.15838e-36
1.23723e-36
1.3178e-36
1.40036e-36
1.48521e-36
1.57261e-36
1.66282e-36
1.75598e-36
1.85219e-36
1.95142e-36
2.05349e-36
2.15809e-36
2.26476e-36
2.37287e-36
2.48167e-36
2.59027e-36
2.69771e-36
2.80296e-36
2.90503e-36
3.00292e-36
3.09575e-36
3.18276e-36
3.26334e-36
3.33705e-36
3.40365e-36
3.46306e-36
3.51541e-36
3.56095e-36
3.60007e-36
3.63324e-36
3.66102e-36
3.684e-36
3.70277e-36
3.71792e-36
3.72999e-36
3.73949e-36
3.74689e-36
3.75258e-36
3.75691e-36
3.76016e-36
3.76257e-36
3.76435e-36
3.76564e-36
3.76657e-36
3.76724e-36
3.76771e-36
3.76803e-36
3.76826e-36
3.76842e-36
3.76853e-36
3.76861e-36
3.76866e-36
3.7687e-36
3.76873e-36
3.76876e-36
3.76878e-36
3.7688e-36
3.76881e-36
3.76883e-36
3.76885e-36
3.76887e-36
3.76889e-36
3.76891e-36
3.76893e-36
3.76896e-36
3.76898e-36
3.76901e-36
3.76904e-36
3.76907e-36
3.7691e-36
3.76913e-36
3.76917e-36
3.76921e-36
3.76925e-36
3.76929e-36
3.76934e-36
3.76939e-36
3.76944e-36
3.76949e-36
3.76955e-36
3.7696e-36
3.76966e-36
3.76973e-36
3.76979e-36
3.76986e-36
3.76994e-36
3.77001e-36
3.77009e-36
3.77017e-36
3.77026e-36
3.77035e-36
3.77044e-36
3.77054e-36
3.77064e-36
3.77074e-36
3.77085e-36
3.77096e-36
3.77107e-36
3.77119e-36
3.77131e-36
3.77144e-36
3.77157e-36
3.7717e-36
3.77184e-36
3.77198e-36
3.77211e-36
3.77219e-36
3.77207e-36
3.77116e-36
3.76711e-36
)
;

boundaryField
{
    boundary
    {
        type            empty;
    }
    inlet
    {
        type            fixedValue;
        value           uniform 0;
    }
    outlet
    {
        type            zeroGradient;
    }
    procBoundary2to3
    {
        type            processor;
        value           uniform 3.75905e-36;
    }
}


// ************************************************************************* //
