/*--------------------------------*- C++ -*----------------------------------*\
  =========                 |
  \\      /  F ield         | OpenFOAM: The Open Source CFD Toolbox
   \\    /   O peration     | Website:  https://openfoam.org
    \\  /    A nd           | Version:  7
     \\/     M anipulation  |
\*---------------------------------------------------------------------------*/
FoamFile
{
    version     2.0;
    format      ascii;
    class       volScalarField;
    location    "0.00026";
    object      O;
}
// * * * * * * * * * * * * * * * * * * * * * * * * * * * * * * * * * * * * * //

dimensions      [0 0 0 0 0 0 0];

internalField   nonuniform List<scalar> 
126
(
6.73233e-46
6.73253e-46
6.73263e-46
6.73261e-46
6.73244e-46
6.73212e-46
6.73163e-46
6.731e-46
6.73025e-46
6.72946e-46
6.7287e-46
6.72808e-46
6.72768e-46
6.72758e-46
6.72785e-46
6.72851e-46
6.72954e-46
6.73091e-46
6.73255e-46
6.73436e-46
6.73627e-46
6.73819e-46
6.74004e-46
6.74178e-46
6.74337e-46
6.74478e-46
6.74603e-46
6.74711e-46
6.74803e-46
6.74883e-46
6.74952e-46
6.75011e-46
6.75063e-46
6.75108e-46
6.75148e-46
6.75183e-46
6.75214e-46
6.75241e-46
6.75264e-46
6.75284e-46
6.75299e-46
6.75311e-46
6.75319e-46
6.75322e-46
6.75321e-46
6.75315e-46
6.75304e-46
6.75288e-46
6.75266e-46
6.75239e-46
6.75206e-46
6.75167e-46
6.75121e-46
6.75068e-46
6.75008e-46
6.7494e-46
6.74865e-46
6.74783e-46
6.74691e-46
6.74591e-46
6.74483e-46
6.74365e-46
6.74237e-46
6.741e-46
6.73953e-46
6.73795e-46
6.73627e-46
6.73447e-46
6.73257e-46
6.73054e-46
6.7284e-46
6.72614e-46
6.72375e-46
6.72124e-46
6.7186e-46
6.71582e-46
6.71291e-46
6.70987e-46
6.70669e-46
6.70337e-46
6.6999e-46
6.6963e-46
6.69255e-46
6.68866e-46
6.68469e-46
6.68099e-46
6.67986e-46
6.69614e-46
6.82439e-46
7.66129e-46
1.29332e-45
4.56671e-45
2.46643e-44
1.46725e-43
8.79988e-43
5.23641e-42
3.08289e-41
1.79467e-40
1.03277e-39
5.87397e-39
3.30131e-38
1.8331e-37
1.00542e-36
5.44603e-36
2.91275e-35
1.53789e-34
8.0142e-34
4.12114e-33
2.09076e-32
1.04625e-31
5.16313e-31
2.51218e-30
1.20491e-29
5.69557e-29
2.65282e-28
1.21725e-27
5.50134e-27
2.44844e-26
1.07292e-25
4.62829e-25
1.9651e-24
8.21104e-24
3.37602e-23
1.36572e-22
5.43544e-22
2.12819e-21
)
;

boundaryField
{
    boundary
    {
        type            empty;
    }
    inlet
    {
        type            fixedValue;
        value           nonuniform 0();
    }
    outlet
    {
        type            zeroGradient;
    }
    procBoundary3to1
    {
        type            processor;
        value           uniform 8.20586e-21;
    }
    procBoundary3to2
    {
        type            processor;
        value           uniform 6.73311e-46;
    }
}


// ************************************************************************* //
