/*--------------------------------*- C++ -*----------------------------------*\
  =========                 |
  \\      /  F ield         | OpenFOAM: The Open Source CFD Toolbox
   \\    /   O peration     | Website:  https://openfoam.org
    \\  /    A nd           | Version:  7
     \\/     M anipulation  |
\*---------------------------------------------------------------------------*/
FoamFile
{
    version     2.0;
    format      ascii;
    class       volScalarField;
    location    "0.00012";
    object      cellCpuTimes;
}
// * * * * * * * * * * * * * * * * * * * * * * * * * * * * * * * * * * * * * //

dimensions      [0 0 0 0 0 0 0];

internalField   nonuniform List<scalar> 
500
(
8.7e-05
5.1e-05
4.9e-05
4.9e-05
4.8e-05
4.8e-05
4.7e-05
4.8e-05
4.8e-05
4.7e-05
4.7e-05
4.8e-05
4.8e-05
4.8e-05
4.8e-05
4.8e-05
4.8e-05
4.7e-05
4.7e-05
4.7e-05
4.7e-05
4.8e-05
4.8e-05
4.7e-05
4.7e-05
4.8e-05
4.8e-05
4.7e-05
4.8e-05
4.8e-05
4.8e-05
4.9e-05
4.9e-05
4.9e-05
4.8e-05
4.7e-05
4.8e-05
4.9e-05
4.8e-05
4.7e-05
4.7e-05
4.8e-05
4.7e-05
4.8e-05
4.7e-05
4.7e-05
4.7e-05
5.6e-05
4.7e-05
4.8e-05
4.9e-05
4.7e-05
4.9e-05
4.6e-05
4.7e-05
4.9e-05
4.8e-05
4.9e-05
4.8e-05
4.8e-05
4.9e-05
4.7e-05
4.9e-05
4.7e-05
4.8e-05
4.8e-05
4.8e-05
4.7e-05
4.8e-05
4.7e-05
4.8e-05
4.8e-05
4.8e-05
4.9e-05
4.8e-05
4.8e-05
4.8e-05
4.7e-05
4.7e-05
4.8e-05
4.8e-05
4.7e-05
4.7e-05
4.6e-05
4.7e-05
4.7e-05
4.8e-05
4.7e-05
4.8e-05
4.7e-05
4.7e-05
4.8e-05
4.7e-05
4.7e-05
4.8e-05
4.7e-05
4.7e-05
4.8e-05
4.6e-05
4.8e-05
4.9e-05
4.7e-05
4.8e-05
4.8e-05
4.7e-05
4.7e-05
4.7e-05
4.9e-05
4.7e-05
4.7e-05
4.7e-05
4.7e-05
4.8e-05
4.7e-05
4.7e-05
4.8e-05
4.7e-05
4.8e-05
4.7e-05
4.7e-05
4.7e-05
4.8e-05
4.6e-05
4.7e-05
4.7e-05
8.3e-05
5.5e-05
4.7e-05
4.7e-05
4.7e-05
4.7e-05
4.8e-05
4.7e-05
4.7e-05
4.7e-05
4.7e-05
4.6e-05
4.7e-05
4.7e-05
4.7e-05
4.7e-05
4.7e-05
4.8e-05
4.6e-05
4.7e-05
4.6e-05
4.7e-05
4.6e-05
4.7e-05
4.7e-05
4.7e-05
4.7e-05
4.7e-05
4.6e-05
4.6e-05
4.7e-05
4.7e-05
4.7e-05
4.6e-05
4.7e-05
4.7e-05
4.7e-05
4.7e-05
4.7e-05
4.7e-05
4.6e-05
4.7e-05
4.7e-05
4.7e-05
4.7e-05
4.6e-05
4.7e-05
4.6e-05
5.3e-05
4.7e-05
4.7e-05
4.6e-05
4.7e-05
4.7e-05
4.6e-05
4.7e-05
4.6e-05
4.7e-05
4.6e-05
4.7e-05
4.6e-05
4.7e-05
4.7e-05
4.7e-05
4.6e-05
4.7e-05
4.6e-05
4.8e-05
4.7e-05
4.6e-05
4.6e-05
4.6e-05
4.7e-05
4.7e-05
4.6e-05
4.7e-05
4.7e-05
4.7e-05
4.6e-05
4.7e-05
4.7e-05
4.7e-05
4.7e-05
4.7e-05
4.8e-05
4.6e-05
4.7e-05
4.7e-05
4.6e-05
4.7e-05
4.7e-05
4.7e-05
4.6e-05
4.7e-05
4.7e-05
4.6e-05
4.6e-05
4.7e-05
4.6e-05
4.6e-05
4.7e-05
4.6e-05
4.6e-05
4.6e-05
4.7e-05
4.6e-05
4.6e-05
4.6e-05
4.7e-05
4.7e-05
4.7e-05
4.7e-05
4.6e-05
4.7e-05
4.7e-05
4.6e-05
4.6e-05
4.7e-05
4.6e-05
4.7e-05
4.6e-05
4.7e-05
4.6e-05
4.7e-05
4.6e-05
4.6e-05
4.6e-05
4.7e-05
4.7e-05
4.6e-05
5e-05
4.7e-05
4.6e-05
4.7e-05
4.7e-05
4.6e-05
4.7e-05
4.7e-05
4.6e-05
4.7e-05
4.7e-05
4.7e-05
4.6e-05
4.7e-05
4.7e-05
4.7e-05
4.7e-05
5e-05
5.7e-05
6.7e-05
8e-05
0.000108
0.000138
0.000148
0.000155
0.000164
0.000169
0.000201
0.000248
0.000259
0.000298
0.000304
0.000256
0.000251
0.000224
0.000224
0.000212
0.000202
0.00017
0.000181
0.000174
0.000165
0.000159
0.000151
0.00015
0.000151
0.000149
0.000198
0.000147
0.00014
0.000139
0.000136
0.000135
0.000132
0.000133
0.000131
0.000126
0.000126
0.000131
0.000125
0.000123
0.00013
0.000127
0.000126
0.000139
0.000129
0.000122
0.000128
0.000126
0.000126
0.000126
0.000126
0.000125
0.000129
0.000127
0.000126
0.000126
0.000126
0.000123
0.000122
0.000122
0.000123
0.000122
0.000122
0.000123
0.000122
0.000122
0.000127
0.000126
0.000127
0.000127
0.000127
0.000126
0.000128
0.000131
0.000133
0.000132
0.00013
0.000126
0.000127
0.000127
0.000126
0.000126
0.000126
0.000128
0.000125
0.000124
0.000124
0.000121
0.000127
0.000128
0.000125
0.000124
0.00012
0.000119
0.000115
0.000115
0.000113
0.000114
0.000122
0.000122
0.00017
0.000131
0.000128
0.000124
0.000124
0.000124
0.000109
0.000108
0.000109
0.000107
0.000106
0.000106
0.000107
0.000106
0.000102
0.0001
9.4e-05
9.4e-05
9.6e-05
9.1e-05
9.5e-05
9.5e-05
8.5e-05
8.9e-05
8.9e-05
8.7e-05
8.7e-05
8.6e-05
8.6e-05
8.4e-05
8.4e-05
8.1e-05
7.8e-05
7.7e-05
7.5e-05
7.1e-05
7e-05
6.7e-05
6.3e-05
6.4e-05
6.9e-05
6.9e-05
6.5e-05
6.3e-05
6.2e-05
6e-05
6.1e-05
6e-05
6e-05
6.1e-05
6.3e-05
6.5e-05
6.4e-05
6.4e-05
6.4e-05
6e-05
6e-05
6e-05
6.1e-05
6.1e-05
6e-05
6.4e-05
6.4e-05
6.5e-05
6.3e-05
6.4e-05
6.4e-05
6.4e-05
6.3e-05
6.4e-05
6.4e-05
6.4e-05
6.3e-05
6.4e-05
6.4e-05
6.4e-05
6.4e-05
6.4e-05
6.6e-05
6.3e-05
6.4e-05
6.4e-05
6.4e-05
6.4e-05
6.3e-05
6.4e-05
6.3e-05
6.3e-05
6.4e-05
6.4e-05
6.4e-05
6.3e-05
6.4e-05
6.4e-05
6.3e-05
6.4e-05
6.4e-05
6.3e-05
6.3e-05
6.4e-05
6.4e-05
6.3e-05
6.4e-05
6.4e-05
6.3e-05
6.4e-05
6.6e-05
6.4e-05
6.4e-05
6.4e-05
6.4e-05
6.4e-05
6.4e-05
6.4e-05
6.4e-05
6.4e-05
6.4e-05
6.4e-05
6.4e-05
6e-05
6e-05
6e-05
6.1e-05
5.9e-05
)
;

boundaryField
{
    boundary
    {
        type            empty;
    }
    inlet
    {
        type            calculated;
        value           uniform 0;
    }
    outlet
    {
        type            calculated;
        value           uniform 0;
    }
}


// ************************************************************************* //
