/*--------------------------------*- C++ -*----------------------------------*\
  =========                 |
  \\      /  F ield         | OpenFOAM: The Open Source CFD Toolbox
   \\    /   O peration     | Website:  https://openfoam.org
    \\  /    A nd           | Version:  7
     \\/     M anipulation  |
\*---------------------------------------------------------------------------*/
FoamFile
{
    version     2.0;
    format      ascii;
    class       volScalarField;
    location    "0.00012";
    object      H2O;
}
// * * * * * * * * * * * * * * * * * * * * * * * * * * * * * * * * * * * * * //

dimensions      [0 0 0 0 0 0 0];

internalField   nonuniform List<scalar> 
500
(
8.21274e-48
2.41331e-47
4.41548e-47
6.71967e-47
9.22065e-47
1.1803e-46
1.4343e-46
1.67219e-46
1.88418e-46
2.06395e-46
2.20909e-46
2.32078e-46
2.40282e-46
2.46043e-46
2.49919e-46
2.5242e-46
2.53972e-46
2.549e-46
2.55434e-46
2.55731e-46
2.55891e-46
2.55973e-46
2.56015e-46
2.56035e-46
2.56044e-46
2.56047e-46
2.56048e-46
2.56048e-46
2.56047e-46
2.56046e-46
2.56044e-46
2.56043e-46
2.56041e-46
2.5604e-46
2.56039e-46
2.56037e-46
2.56036e-46
2.56034e-46
2.56033e-46
2.56031e-46
2.5603e-46
2.56029e-46
2.56027e-46
2.56026e-46
2.56025e-46
2.56024e-46
2.56022e-46
2.56021e-46
2.5602e-46
2.5602e-46
2.56019e-46
2.56018e-46
2.56017e-46
2.56017e-46
2.56016e-46
2.56016e-46
2.56016e-46
2.56016e-46
2.56016e-46
2.56016e-46
2.56016e-46
2.56017e-46
2.56018e-46
2.56019e-46
2.5602e-46
2.56021e-46
2.56022e-46
2.56024e-46
2.56025e-46
2.56027e-46
2.5603e-46
2.56032e-46
2.56035e-46
2.56037e-46
2.56041e-46
2.56044e-46
2.56047e-46
2.56051e-46
2.56055e-46
2.5606e-46
2.56064e-46
2.56069e-46
2.56074e-46
2.56079e-46
2.56085e-46
2.56091e-46
2.56097e-46
2.56104e-46
2.56111e-46
2.56118e-46
2.56125e-46
2.56133e-46
2.56141e-46
2.56149e-46
2.56158e-46
2.56167e-46
2.56176e-46
2.56186e-46
2.56196e-46
2.56206e-46
2.56217e-46
2.56228e-46
2.56239e-46
2.5625e-46
2.56262e-46
2.56274e-46
2.56287e-46
2.56299e-46
2.56312e-46
2.56326e-46
2.56339e-46
2.56353e-46
2.56368e-46
2.56382e-46
2.56397e-46
2.56412e-46
2.56427e-46
2.56442e-46
2.56457e-46
2.5647e-46
2.56477e-46
2.56459e-46
2.56353e-46
2.5595e-46
2.54747e-46
2.52837e-46
2.51994e-46
2.51978e-46
2.52274e-46
2.52729e-46
2.53287e-46
2.53899e-46
2.54509e-46
2.5507e-46
2.55551e-46
2.55936e-46
2.56229e-46
2.56441e-46
2.56589e-46
2.56689e-46
2.56756e-46
2.56802e-46
2.56834e-46
2.56858e-46
2.56877e-46
2.56893e-46
2.56906e-46
2.56919e-46
2.5693e-46
2.56941e-46
2.5695e-46
2.56959e-46
2.56966e-46
2.56973e-46
2.56978e-46
2.56982e-46
2.56984e-46
2.56986e-46
2.56986e-46
2.56984e-46
2.5698e-46
2.56975e-46
2.56968e-46
2.56959e-46
2.56948e-46
2.56935e-46
2.5692e-46
2.56902e-46
2.56882e-46
2.5686e-46
2.56834e-46
2.56806e-46
2.56775e-46
2.56741e-46
2.56704e-46
2.56664e-46
2.56621e-46
2.56574e-46
2.56523e-46
2.56469e-46
2.56411e-46
2.56349e-46
2.56283e-46
2.56213e-46
2.56138e-46
2.5606e-46
2.55976e-46
2.55889e-46
2.55796e-46
2.55699e-46
2.55597e-46
2.55489e-46
2.55377e-46
2.5526e-46
2.55137e-46
2.55009e-46
2.54876e-46
2.54737e-46
2.54593e-46
2.54443e-46
2.54288e-46
2.54127e-46
2.5396e-46
2.53788e-46
2.5361e-46
2.53426e-46
2.53237e-46
2.53042e-46
2.52841e-46
2.52635e-46
2.52423e-46
2.52206e-46
2.51983e-46
2.51755e-46
2.51522e-46
2.51283e-46
2.5104e-46
2.50792e-46
2.50538e-46
2.50281e-46
2.50018e-46
2.49751e-46
2.49481e-46
2.49215e-46
2.49018e-46
2.49522e-46
2.56751e-46
3.2762e-46
9.95224e-46
7.20661e-45
6.4429e-44
5.86359e-43
5.29788e-42
4.73743e-41
4.18981e-40
3.66364e-39
3.16671e-38
2.70558e-37
2.28523e-36
1.90888e-35
1.5779e-34
1.29189e-33
1.04887e-32
8.45637e-32
6.78133e-31
5.41902e-30
4.32518e-29
3.45938e-28
2.78703e-27
2.27749e-26
1.89444e-25
1.54134e-24
1.22431e-23
9.61126e-23
7.47606e-22
5.75233e-21
4.36924e-20
3.26951e-19
2.40565e-18
1.73726e-17
1.22922e-16
8.50801e-16
5.75164e-15
3.79213e-14
2.43488e-13
1.52042e-12
9.21973e-12
5.4215e-11
3.08693e-10
1.69938e-09
9.03159e-09
4.62735e-08
2.28267e-07
1.08325e-06
4.94395e-06
2.1707e-05
9.16663e-05
0.00037045
0.00140159
0.00467597
0.0125263
0.0257488
0.0427772
0.0633313
0.0876673
0.113741
0.137502
0.155912
0.171846
0.18126
0.187624
0.191993
0.195097
0.197409
0.199227
0.200733
0.20204
0.203217
0.204308
0.205338
0.206326
0.207282
0.208213
0.209124
0.210017
0.210893
0.211754
0.212598
0.213426
0.214236
0.215027
0.215797
0.216522
0.217217
0.217894
0.218553
0.219194
0.219815
0.220418
0.221001
0.221566
0.222112
0.222642
0.223154
0.223652
0.224135
0.224606
0.225065
0.225515
0.225957
0.226392
0.226822
0.227248
0.227671
0.228092
0.228512
0.228932
0.22935
0.229769
0.230188
0.230606
0.231023
0.231439
0.231852
0.232262
0.232669
0.23307
0.233465
0.233853
0.234232
0.234603
0.234963
0.235312
0.235649
0.235973
0.236284
0.23658
0.236863
0.237131
0.237385
0.237623
0.237847
0.238056
0.238251
0.238432
0.2386
0.238755
0.238897
0.239027
0.239147
0.239256
0.239356
0.239448
0.239532
0.239611
0.239686
0.239747
0.239802
0.23985
0.239891
0.239926
0.239956
0.239982
0.240005
0.240024
0.240041
0.240056
0.240069
0.24008
0.24009
0.240099
0.240107
0.240114
0.24012
0.240125
0.24013
0.240135
0.240138
0.240142
0.240144
0.240147
0.240149
0.240151
0.240153
0.240154
0.240155
0.240156
0.240157
0.240158
0.240158
0.240159
0.240159
0.24016
0.24016
0.24016
0.24016
0.24016
0.240161
0.240161
0.240161
0.240161
0.240161
0.240161
0.240161
0.240161
0.240161
0.240161
0.240161
0.240161
0.240161
0.24016
0.24016
0.24016
0.24016
0.24016
0.24016
0.24016
0.24016
0.24016
0.24016
0.24016
0.24016
0.24016
0.24016
0.24016
0.24016
0.24016
0.24016
0.24016
0.240159
0.240159
0.240159
0.240159
0.240159
0.240159
0.240159
0.240159
0.240159
0.240159
0.240159
0.240159
0.240159
0.240159
0.240159
0.240159
0.240159
0.240159
0.240159
0.240159
0.240159
0.240159
0.240159
0.240159
0.240159
0.240159
0.240158
0.240158
0.240158
0.240158
0.240158
0.240158
0.240158
0.240158
0.240158
0.240158
0.240158
0.240158
0.240158
0.240158
0.240158
0.240158
0.240158
0.240158
0.240158
0.240158
0.240158
0.240158
0.240158
0.240158
0.240158
)
;

boundaryField
{
    boundary
    {
        type            empty;
    }
    inlet
    {
        type            fixedValue;
        value           uniform 0;
    }
    outlet
    {
        type            zeroGradient;
    }
}


// ************************************************************************* //
