/*--------------------------------*- C++ -*----------------------------------*\
  =========                 |
  \\      /  F ield         | OpenFOAM: The Open Source CFD Toolbox
   \\    /   O peration     | Website:  https://openfoam.org
    \\  /    A nd           | Version:  7
     \\/     M anipulation  |
\*---------------------------------------------------------------------------*/
FoamFile
{
    version     2.0;
    format      ascii;
    class       volScalarField;
    location    "0.00012";
    object      H2O2;
}
// * * * * * * * * * * * * * * * * * * * * * * * * * * * * * * * * * * * * * //

dimensions      [0 0 0 0 0 0 0];

internalField   nonuniform List<scalar> 
500
(
2.0267e-52
6.54458e-52
1.30286e-51
2.13573e-51
3.12397e-51
4.21932e-51
5.35826e-51
6.47154e-51
7.49615e-51
8.38558e-51
9.11527e-51
9.68236e-51
1.01009e-50
1.03949e-50
1.05921e-50
1.07187e-50
1.07965e-50
1.08426e-50
1.08688e-50
1.08832e-50
1.08909e-50
1.08948e-50
1.08967e-50
1.08977e-50
1.08981e-50
1.08983e-50
1.08984e-50
1.08985e-50
1.08985e-50
1.08985e-50
1.08985e-50
1.08985e-50
1.08985e-50
1.08985e-50
1.08985e-50
1.08985e-50
1.08985e-50
1.08985e-50
1.08985e-50
1.08986e-50
1.08986e-50
1.08986e-50
1.08987e-50
1.08987e-50
1.08987e-50
1.08988e-50
1.08988e-50
1.08989e-50
1.08989e-50
1.0899e-50
1.08991e-50
1.08991e-50
1.08992e-50
1.08993e-50
1.08994e-50
1.08995e-50
1.08996e-50
1.08997e-50
1.08999e-50
1.09e-50
1.09002e-50
1.09003e-50
1.09005e-50
1.09006e-50
1.09008e-50
1.0901e-50
1.09012e-50
1.09014e-50
1.09017e-50
1.09019e-50
1.09021e-50
1.09024e-50
1.09027e-50
1.09029e-50
1.09032e-50
1.09035e-50
1.09039e-50
1.09042e-50
1.09045e-50
1.09049e-50
1.09053e-50
1.09057e-50
1.09061e-50
1.09065e-50
1.09069e-50
1.09073e-50
1.09078e-50
1.09083e-50
1.09088e-50
1.09093e-50
1.09098e-50
1.09103e-50
1.09109e-50
1.09115e-50
1.0912e-50
1.09126e-50
1.09133e-50
1.09139e-50
1.09145e-50
1.09152e-50
1.09159e-50
1.09166e-50
1.09173e-50
1.0918e-50
1.09188e-50
1.09195e-50
1.09203e-50
1.09211e-50
1.09219e-50
1.09227e-50
1.09236e-50
1.09244e-50
1.09253e-50
1.09262e-50
1.09271e-50
1.0928e-50
1.09289e-50
1.09298e-50
1.09308e-50
1.09316e-50
1.09322e-50
1.09315e-50
1.09267e-50
1.09098e-50
1.08682e-50
1.08058e-50
1.07253e-50
1.06802e-50
1.06711e-50
1.06883e-50
1.07213e-50
1.07616e-50
1.08029e-50
1.08409e-50
1.08731e-50
1.08984e-50
1.09172e-50
1.09305e-50
1.09396e-50
1.09456e-50
1.09495e-50
1.09522e-50
1.09541e-50
1.09555e-50
1.09567e-50
1.09577e-50
1.09586e-50
1.09595e-50
1.09603e-50
1.0961e-50
1.09618e-50
1.09624e-50
1.09631e-50
1.09637e-50
1.09642e-50
1.09647e-50
1.09651e-50
1.09655e-50
1.09658e-50
1.0966e-50
1.09662e-50
1.09662e-50
1.09662e-50
1.09661e-50
1.0966e-50
1.09657e-50
1.09653e-50
1.09648e-50
1.09642e-50
1.09635e-50
1.09627e-50
1.09617e-50
1.09606e-50
1.09594e-50
1.09581e-50
1.09565e-50
1.09549e-50
1.09531e-50
1.09511e-50
1.09489e-50
1.09466e-50
1.09441e-50
1.09414e-50
1.09386e-50
1.09355e-50
1.09322e-50
1.09288e-50
1.09251e-50
1.09212e-50
1.09171e-50
1.09127e-50
1.09081e-50
1.09033e-50
1.08983e-50
1.0893e-50
1.08875e-50
1.08817e-50
1.08757e-50
1.08694e-50
1.08629e-50
1.08561e-50
1.08491e-50
1.08417e-50
1.08342e-50
1.08263e-50
1.08182e-50
1.08099e-50
1.08013e-50
1.07924e-50
1.07833e-50
1.07739e-50
1.07642e-50
1.07543e-50
1.07442e-50
1.07338e-50
1.07231e-50
1.07123e-50
1.07012e-50
1.06899e-50
1.06783e-50
1.06666e-50
1.06546e-50
1.06425e-50
1.06302e-50
1.06176e-50
1.0605e-50
1.05933e-50
1.05963e-50
1.08106e-50
1.39914e-50
5.83886e-50
6.69331e-49
8.98237e-48
1.20826e-46
1.60832e-45
2.11608e-44
2.75133e-43
3.53484e-42
4.48766e-41
5.63045e-40
6.98266e-39
8.56118e-38
1.03775e-36
1.24323e-35
1.47057e-34
1.71442e-33
1.96483e-32
2.20682e-31
2.42203e-30
2.59274e-29
2.70671e-28
2.6913e-27
2.6854e-26
2.62511e-25
2.51222e-24
2.35185e-23
2.15204e-22
1.92308e-21
1.67664e-20
1.42474e-19
1.1787e-18
9.48256e-18
7.4087e-17
5.61362e-16
4.11878e-15
2.92152e-14
1.99988e-13
1.3187e-12
8.35969e-12
5.08479e-11
2.9617e-10
1.64894e-09
8.76253e-09
4.44056e-08
2.1457e-07
9.88075e-07
4.30435e-06
1.70746e-05
5.41082e-05
0.000105461
0.00012888
0.000102377
5.3088e-05
2.16957e-05
8.92912e-06
5.04282e-06
4.40161e-06
4.79401e-06
5.50461e-06
6.04649e-06
6.42407e-06
6.63742e-06
6.71691e-06
6.69749e-06
6.60928e-06
6.47537e-06
6.31256e-06
6.13258e-06
5.94354e-06
5.75088e-06
5.5582e-06
5.36785e-06
5.18127e-06
4.9993e-06
4.82236e-06
4.65057e-06
4.48389e-06
4.32214e-06
4.16505e-06
4.01236e-06
3.86379e-06
3.71915e-06
3.58249e-06
3.45078e-06
3.32114e-06
3.1934e-06
3.06743e-06
2.94316e-06
2.82057e-06
2.69968e-06
2.58056e-06
2.46334e-06
2.34816e-06
2.2352e-06
2.12469e-06
2.01683e-06
1.91188e-06
1.81006e-06
1.7116e-06
1.61671e-06
1.52556e-06
1.43831e-06
1.35507e-06
1.27593e-06
1.20091e-06
1.13001e-06
1.06321e-06
1.00044e-06
9.41586e-07
8.86536e-07
8.35145e-07
7.87253e-07
7.42688e-07
7.01274e-07
6.62828e-07
6.27168e-07
5.94115e-07
5.63493e-07
5.35131e-07
5.08869e-07
4.84553e-07
4.62037e-07
4.41186e-07
4.21872e-07
4.03979e-07
3.87397e-07
3.72026e-07
3.57775e-07
3.44557e-07
3.32297e-07
3.20921e-07
3.10366e-07
3.00573e-07
2.91486e-07
2.83055e-07
2.75236e-07
2.67987e-07
2.61268e-07
2.55045e-07
2.49285e-07
2.43958e-07
2.39034e-07
2.34489e-07
2.30292e-07
2.26407e-07
2.22755e-07
2.19603e-07
2.16641e-07
2.13918e-07
2.11425e-07
2.0915e-07
2.07078e-07
2.05195e-07
2.03486e-07
2.01939e-07
2.00541e-07
1.99281e-07
1.98147e-07
1.97129e-07
1.96217e-07
1.95403e-07
1.94677e-07
1.94032e-07
1.93459e-07
1.92953e-07
1.92506e-07
1.92113e-07
1.91768e-07
1.91465e-07
1.91201e-07
1.90971e-07
1.90771e-07
1.90597e-07
1.90447e-07
1.90317e-07
1.90205e-07
1.90109e-07
1.90027e-07
1.89956e-07
1.89896e-07
1.89844e-07
1.898e-07
1.89763e-07
1.89731e-07
1.89703e-07
1.8968e-07
1.8966e-07
1.89643e-07
1.89628e-07
1.89616e-07
1.89605e-07
1.89595e-07
1.89586e-07
1.89579e-07
1.89572e-07
1.89566e-07
1.8956e-07
1.89555e-07
1.8955e-07
1.89546e-07
1.89542e-07
1.89537e-07
1.89534e-07
1.8953e-07
1.89526e-07
1.89522e-07
1.89519e-07
1.89515e-07
1.89512e-07
1.89509e-07
1.89505e-07
1.89502e-07
1.89499e-07
1.89495e-07
1.89492e-07
1.89489e-07
1.89486e-07
1.89482e-07
1.89479e-07
1.89476e-07
1.89473e-07
1.8947e-07
1.89466e-07
1.89463e-07
1.8946e-07
1.89457e-07
1.89454e-07
1.89451e-07
1.89448e-07
1.89445e-07
1.89442e-07
1.89439e-07
1.89436e-07
1.89433e-07
1.8943e-07
1.89428e-07
1.89425e-07
1.89422e-07
1.89419e-07
1.89417e-07
1.89414e-07
1.89411e-07
1.89409e-07
1.89406e-07
1.89404e-07
1.89401e-07
1.89399e-07
1.89396e-07
1.89394e-07
1.89392e-07
1.89389e-07
1.89387e-07
1.89385e-07
1.89383e-07
1.89381e-07
1.89378e-07
1.89376e-07
1.89374e-07
1.89372e-07
1.89371e-07
1.89369e-07
1.89367e-07
1.89365e-07
1.89364e-07
1.89362e-07
1.8936e-07
1.89359e-07
1.89357e-07
1.89356e-07
1.89355e-07
)
;

boundaryField
{
    boundary
    {
        type            empty;
    }
    inlet
    {
        type            fixedValue;
        value           uniform 0;
    }
    outlet
    {
        type            zeroGradient;
    }
}


// ************************************************************************* //
