/*--------------------------------*- C++ -*----------------------------------*\
  =========                 |
  \\      /  F ield         | OpenFOAM: The Open Source CFD Toolbox
   \\    /   O peration     | Website:  https://openfoam.org
    \\  /    A nd           | Version:  7
     \\/     M anipulation  |
\*---------------------------------------------------------------------------*/
FoamFile
{
    version     2.0;
    format      ascii;
    class       volScalarField;
    location    "0.00012";
    object      O;
}
// * * * * * * * * * * * * * * * * * * * * * * * * * * * * * * * * * * * * * //

dimensions      [0 0 0 0 0 0 0];

internalField   nonuniform List<scalar> 
500
(
1.62886e-47
3.95614e-47
6.38553e-47
8.90802e-47
1.14943e-46
1.40856e-46
1.66002e-46
1.89484e-46
2.105e-46
2.2849e-46
2.43208e-46
2.54719e-46
2.63336e-46
2.69515e-46
2.73769e-46
2.76585e-46
2.78379e-46
2.79482e-46
2.80137e-46
2.80513e-46
2.80722e-46
2.80835e-46
2.80894e-46
2.80924e-46
2.80938e-46
2.80945e-46
2.80947e-46
2.80948e-46
2.80948e-46
2.80948e-46
2.80947e-46
2.80946e-46
2.80945e-46
2.80944e-46
2.80944e-46
2.80943e-46
2.80942e-46
2.80941e-46
2.80941e-46
2.8094e-46
2.80939e-46
2.80939e-46
2.80938e-46
2.80938e-46
2.80937e-46
2.80937e-46
2.80936e-46
2.80936e-46
2.80936e-46
2.80936e-46
2.80936e-46
2.80937e-46
2.80937e-46
2.80937e-46
2.80938e-46
2.80939e-46
2.8094e-46
2.80941e-46
2.80942e-46
2.80943e-46
2.80945e-46
2.80946e-46
2.80948e-46
2.8095e-46
2.80953e-46
2.80955e-46
2.80958e-46
2.80961e-46
2.80964e-46
2.80967e-46
2.80971e-46
2.80975e-46
2.80979e-46
2.80983e-46
2.80988e-46
2.80993e-46
2.80998e-46
2.81003e-46
2.81009e-46
2.81015e-46
2.81021e-46
2.81028e-46
2.81035e-46
2.81042e-46
2.8105e-46
2.81058e-46
2.81066e-46
2.81075e-46
2.81084e-46
2.81093e-46
2.81102e-46
2.81112e-46
2.81123e-46
2.81133e-46
2.81144e-46
2.81156e-46
2.81167e-46
2.81179e-46
2.81192e-46
2.81205e-46
2.81218e-46
2.81231e-46
2.81245e-46
2.81259e-46
2.81274e-46
2.81289e-46
2.81304e-46
2.8132e-46
2.81336e-46
2.81352e-46
2.81369e-46
2.81385e-46
2.81403e-46
2.8142e-46
2.81438e-46
2.81456e-46
2.81474e-46
2.81492e-46
2.81509e-46
2.81523e-46
2.81528e-46
2.81514e-46
2.81459e-46
2.81331e-46
2.81081e-46
2.80695e-46
2.80342e-46
2.79972e-46
2.79671e-46
2.79518e-46
2.79549e-46
2.79751e-46
2.80068e-46
2.80436e-46
2.80797e-46
2.81114e-46
2.81371e-46
2.81566e-46
2.81708e-46
2.81808e-46
2.81879e-46
2.81928e-46
2.81965e-46
2.81993e-46
2.82015e-46
2.82034e-46
2.82051e-46
2.82067e-46
2.82081e-46
2.82094e-46
2.82106e-46
2.82117e-46
2.82127e-46
2.82135e-46
2.82142e-46
2.82148e-46
2.82153e-46
2.82155e-46
2.82157e-46
2.82156e-46
2.82154e-46
2.82149e-46
2.82143e-46
2.82134e-46
2.82124e-46
2.82111e-46
2.82095e-46
2.82077e-46
2.82056e-46
2.82032e-46
2.82006e-46
2.81976e-46
2.81943e-46
2.81907e-46
2.81868e-46
2.81825e-46
2.81778e-46
2.81727e-46
2.81673e-46
2.81614e-46
2.81552e-46
2.81485e-46
2.81413e-46
2.81337e-46
2.81256e-46
2.81171e-46
2.81081e-46
2.80985e-46
2.80884e-46
2.80779e-46
2.80667e-46
2.80551e-46
2.80428e-46
2.803e-46
2.80167e-46
2.80027e-46
2.79882e-46
2.79731e-46
2.79573e-46
2.7941e-46
2.7924e-46
2.79064e-46
2.78883e-46
2.78694e-46
2.785e-46
2.783e-46
2.78093e-46
2.7788e-46
2.77661e-46
2.77436e-46
2.77205e-46
2.76968e-46
2.76725e-46
2.76476e-46
2.76221e-46
2.75961e-46
2.75695e-46
2.75425e-46
2.75148e-46
2.74867e-46
2.74582e-46
2.74294e-46
2.7403e-46
2.74029e-46
2.76515e-46
3.02092e-46
5.39628e-46
2.70294e-45
2.21773e-44
1.95528e-43
1.72062e-42
1.49732e-41
1.28644e-40
1.09032e-39
9.10976e-39
7.49801e-38
6.0757e-37
4.84409e-36
3.79829e-35
2.92799e-34
2.21846e-33
1.65186e-32
1.20868e-31
8.69061e-31
6.13997e-30
4.26182e-29
2.90546e-28
1.94463e-27
1.27706e-26
8.22316e-26
5.18803e-25
3.22018e-24
1.94645e-23
1.14978e-22
6.6341e-22
3.73591e-21
2.05162e-20
1.09776e-19
5.7181e-19
2.89697e-18
1.42627e-17
6.81793e-17
3.16185e-16
1.42149e-15
6.19128e-15
2.61117e-14
1.06605e-13
4.21282e-13
1.61183e-12
5.97366e-12
2.14644e-11
7.48674e-11
2.53939e-10
8.39801e-10
2.72053e-09
8.7218e-09
2.84617e-08
1.02507e-07
4.79594e-07
3.13415e-06
2.10567e-05
0.000103648
0.000404592
0.00116276
0.0023803
0.00373828
0.00488992
0.00568657
0.00614826
0.00632959
0.00635247
0.00627879
0.00614935
0.00598999
0.0058164
0.00563784
0.00545954
0.00528435
0.00511368
0.00494813
0.00478784
0.00463272
0.00448257
0.00433717
0.00419628
0.00405972
0.00392733
0.00379897
0.00367458
0.0035541
0.00343752
0.00332489
0.00321951
0.00311942
0.00302234
0.00292827
0.0028372
0.00274912
0.002664
0.00258181
0.0025025
0.00242599
0.0023522
0.00228103
0.00221235
0.00214605
0.002082
0.00202004
0.00196005
0.00190187
0.00184538
0.00179044
0.00173693
0.00168474
0.00163376
0.00158393
0.00153516
0.00148741
0.00144063
0.0013948
0.00134991
0.00130594
0.00126292
0.00122085
0.00117976
0.00113968
0.00110064
0.00106268
0.00102582
0.000990102
0.000955553
0.0009222
0.000890064
0.000859165
0.000829513
0.000801117
0.000773978
0.000748092
0.00072345
0.000700038
0.000677838
0.000656827
0.000636979
0.000618264
0.000600649
0.0005841
0.000568582
0.000554055
0.000540482
0.000527824
0.000516041
0.000505096
0.000494951
0.000485567
0.00047691
0.00046894
0.000461605
0.000454849
0.000448645
0.00044296
0.000437763
0.000433022
0.000428706
0.000424787
0.000421236
0.000418026
0.00041513
0.000412524
0.000410186
0.000408092
0.000406221
0.000404555
0.000403074
0.000401762
0.000400602
0.00039958
0.000398681
0.000397893
0.000397204
0.000396604
0.000396081
0.000395629
0.000395237
0.0003949
0.000394611
0.000394363
0.000394151
0.000393971
0.000393818
0.000393688
0.000393579
0.000393488
0.000393411
0.000393347
0.000393295
0.000393251
0.000393215
0.000393186
0.000393162
0.000393142
0.000393127
0.000393115
0.000393105
0.000393097
0.000393092
0.000393087
0.000393084
0.000393082
0.000393081
0.000393081
0.000393081
0.000393081
0.000393082
0.000393083
0.000393084
0.000393085
0.000393086
0.000393088
0.00039309
0.000393091
0.000393093
0.000393095
0.000393096
0.000393098
0.0003931
0.000393102
0.000393103
0.000393105
0.000393107
0.000393108
0.00039311
0.000393112
0.000393113
0.000393115
0.000393116
0.000393118
0.000393119
0.000393121
0.000393122
0.000393124
0.000393125
0.000393126
0.000393128
0.000393129
0.00039313
0.000393131
0.000393133
0.000393134
0.000393135
0.000393136
0.000393137
0.000393138
0.000393139
0.00039314
0.00039314
0.000393141
0.000393142
0.000393143
0.000393143
0.000393144
0.000393144
0.000393145
0.000393145
0.000393146
0.000393146
0.000393146
0.000393147
0.000393147
0.000393147
0.000393147
0.000393148
0.000393148
0.000393148
0.000393148
0.000393148
0.000393148
0.000393148
0.000393148
0.000393148
0.000393148
)
;

boundaryField
{
    boundary
    {
        type            empty;
    }
    inlet
    {
        type            fixedValue;
        value           uniform 0;
    }
    outlet
    {
        type            zeroGradient;
    }
}


// ************************************************************************* //
