/*--------------------------------*- C++ -*----------------------------------*\
  =========                 |
  \\      /  F ield         | OpenFOAM: The Open Source CFD Toolbox
   \\    /   O peration     | Website:  https://openfoam.org
    \\  /    A nd           | Version:  7
     \\/     M anipulation  |
\*---------------------------------------------------------------------------*/
FoamFile
{
    version     2.0;
    format      ascii;
    class       volScalarField;
    location    "0.00012";
    object      O2;
}
// * * * * * * * * * * * * * * * * * * * * * * * * * * * * * * * * * * * * * //

dimensions      [0 0 0 0 0 0 0];

internalField   nonuniform List<scalar> 
500
(
0.226269
0.226269
0.226269
0.226269
0.226269
0.226269
0.226269
0.226269
0.226269
0.226269
0.226269
0.226269
0.226269
0.226269
0.226269
0.226269
0.226269
0.226269
0.226269
0.226269
0.226269
0.226269
0.226269
0.226269
0.226269
0.226269
0.226269
0.226269
0.226269
0.226269
0.226269
0.226269
0.226269
0.226269
0.226269
0.226269
0.226269
0.226269
0.226269
0.226269
0.226269
0.226269
0.226269
0.226269
0.226269
0.226269
0.226269
0.226269
0.226269
0.226269
0.226269
0.226269
0.226269
0.226269
0.226269
0.226269
0.226269
0.226269
0.226269
0.226269
0.226269
0.226269
0.226269
0.226269
0.226269
0.226269
0.226269
0.226269
0.226269
0.226269
0.226269
0.226269
0.226269
0.226269
0.226269
0.226269
0.226269
0.226269
0.226269
0.226269
0.226269
0.226269
0.226269
0.226269
0.226269
0.226269
0.226269
0.226269
0.226269
0.226269
0.226269
0.226269
0.226269
0.226269
0.226269
0.226269
0.226269
0.226269
0.226269
0.226269
0.226269
0.226269
0.226269
0.226269
0.226269
0.226269
0.226269
0.226269
0.226269
0.226269
0.226269
0.226269
0.226269
0.226269
0.226269
0.226269
0.226269
0.226269
0.226269
0.226269
0.226269
0.226269
0.226269
0.226269
0.226269
0.226269
0.226269
0.226269
0.226269
0.226269
0.226269
0.226269
0.226269
0.226269
0.226269
0.226269
0.226269
0.226269
0.226269
0.226269
0.226269
0.226269
0.226269
0.226269
0.226269
0.226269
0.226269
0.226269
0.226269
0.226269
0.226269
0.226269
0.226269
0.226269
0.226269
0.226269
0.226269
0.226269
0.226269
0.226269
0.226269
0.226269
0.226269
0.226269
0.226269
0.226269
0.226269
0.226269
0.226269
0.226269
0.226269
0.226269
0.226269
0.226269
0.226269
0.226269
0.226269
0.226269
0.226269
0.226269
0.226269
0.226269
0.226269
0.226269
0.226269
0.226269
0.226269
0.226269
0.226269
0.226269
0.226269
0.226269
0.226269
0.226269
0.226269
0.226269
0.226269
0.226269
0.226269
0.226269
0.226269
0.226269
0.226269
0.226269
0.226269
0.226269
0.226269
0.226269
0.226269
0.226269
0.226269
0.226269
0.226269
0.226269
0.226269
0.226269
0.226269
0.226269
0.226269
0.226269
0.226269
0.226269
0.226269
0.226269
0.226269
0.226269
0.226269
0.226269
0.226269
0.226269
0.226269
0.226269
0.226269
0.226269
0.226269
0.226269
0.226269
0.226269
0.226269
0.226269
0.226269
0.226269
0.226269
0.226269
0.226269
0.226269
0.226269
0.226269
0.226269
0.226269
0.226269
0.226269
0.226269
0.226269
0.226269
0.226269
0.226269
0.226269
0.226269
0.226269
0.226269
0.226269
0.226269
0.226269
0.226269
0.226269
0.226269
0.226269
0.226269
0.226269
0.226269
0.22627
0.226271
0.226273
0.226277
0.226275
0.226237
0.226026
0.225179
0.22254
0.216126
0.205039
0.190598
0.172303
0.14925
0.123375
0.099108
0.0800449
0.0629485
0.0528914
0.0460645
0.0414007
0.0381366
0.0357654
0.0339631
0.0325258
0.0313261
0.0302835
0.0293469
0.0284835
0.0276717
0.0268972
0.0261505
0.0254252
0.0247171
0.0240234
0.0233426
0.0226739
0.0220172
0.0213729
0.0207418
0.0201254
0.0195435
0.0189836
0.0184359
0.0179013
0.0173806
0.0168747
0.0163844
0.0159101
0.0154523
0.0150115
0.0145877
0.0141811
0.0137915
0.0134188
0.0130625
0.0127223
0.0123977
0.012088
0.0117927
0.0115111
0.0112425
0.0109863
0.0107416
0.0105081
0.0102849
0.0100716
0.00986767
0.00967262
0.00948604
0.00930758
0.00913694
0.00897387
0.00881816
0.00866964
0.0085282
0.00839374
0.00826619
0.0081455
0.00803165
0.00792459
0.00782432
0.0077308
0.00764398
0.00756382
0.00749024
0.00742315
0.00736241
0.00730787
0.00725935
0.00721663
0.00717948
0.00714763
0.00712077
0.0070986
0.00708078
0.00706698
0.00705686
0.00705007
0.0070463
0.00704528
0.0070468
0.0070508
0.00705745
0.00706736
0.00707738
0.00708413
0.0070914
0.007099
0.00710677
0.00711455
0.00712222
0.00712968
0.00713685
0.00714365
0.00715004
0.007156
0.0071615
0.00716655
0.00717114
0.0071753
0.00717904
0.00718239
0.00718537
0.00718802
0.00719035
0.0071924
0.0071942
0.00719577
0.00719714
0.00719833
0.00719936
0.00720024
0.00720101
0.00720166
0.00720223
0.00720271
0.00720312
0.00720347
0.00720377
0.00720402
0.00720423
0.00720441
0.00720457
0.00720469
0.0072048
0.00720489
0.00720497
0.00720503
0.00720508
0.00720513
0.00720516
0.00720519
0.00720522
0.00720524
0.00720526
0.00720527
0.00720529
0.0072053
0.00720531
0.00720531
0.00720532
0.00720533
0.00720533
0.00720534
0.00720534
0.00720535
0.00720535
0.00720536
0.00720536
0.00720536
0.00720537
0.00720537
0.00720537
0.00720538
0.00720538
0.00720538
0.00720539
0.00720539
0.00720539
0.00720539
0.00720539
0.0072054
0.0072054
0.0072054
0.0072054
0.0072054
0.0072054
0.00720541
0.00720541
0.00720541
0.00720541
0.00720541
0.00720541
0.00720541
0.00720541
0.00720541
0.00720541
0.00720541
0.00720541
0.00720541
0.00720541
0.00720541
0.0072054
0.0072054
0.0072054
0.0072054
0.0072054
0.0072054
0.00720539
0.00720539
0.00720539
0.00720538
0.00720538
0.00720538
0.00720537
0.00720537
0.00720537
0.00720536
0.00720536
0.00720535
0.00720535
0.00720534
0.00720534
0.00720533
0.00720533
0.00720532
0.00720532
0.00720532
)
;

boundaryField
{
    boundary
    {
        type            empty;
    }
    inlet
    {
        type            fixedValue;
        value           uniform 0.226269;
    }
    outlet
    {
        type            zeroGradient;
    }
}


// ************************************************************************* //
