/*--------------------------------*- C++ -*----------------------------------*\
  =========                 |
  \\      /  F ield         | OpenFOAM: The Open Source CFD Toolbox
   \\    /   O peration     | Website:  https://openfoam.org
    \\  /    A nd           | Version:  7
     \\/     M anipulation  |
\*---------------------------------------------------------------------------*/
FoamFile
{
    version     2.0;
    format      ascii;
    class       volScalarField;
    location    "0.00012";
    object      OH;
}
// * * * * * * * * * * * * * * * * * * * * * * * * * * * * * * * * * * * * * //

dimensions      [0 0 0 0 0 0 0];

internalField   nonuniform List<scalar> 
500
(
9.60973e-48
1.90786e-47
2.60692e-47
3.15058e-47
3.6032e-47
4.00226e-47
4.36469e-47
4.69389e-47
4.98635e-47
5.23694e-47
5.44253e-47
5.60355e-47
5.72389e-47
5.80977e-47
5.86843e-47
5.90682e-47
5.93097e-47
5.9456e-47
5.95414e-47
5.95897e-47
5.96161e-47
5.96303e-47
5.96377e-47
5.96415e-47
5.96435e-47
5.96447e-47
5.96454e-47
5.96459e-47
5.96463e-47
5.96468e-47
5.96472e-47
5.96476e-47
5.96481e-47
5.96485e-47
5.9649e-47
5.96495e-47
5.965e-47
5.96506e-47
5.96511e-47
5.96517e-47
5.96523e-47
5.9653e-47
5.96536e-47
5.96543e-47
5.96551e-47
5.96558e-47
5.96566e-47
5.96574e-47
5.96582e-47
5.96591e-47
5.966e-47
5.96609e-47
5.96619e-47
5.96629e-47
5.9664e-47
5.9665e-47
5.96662e-47
5.96673e-47
5.96686e-47
5.96698e-47
5.96711e-47
5.96725e-47
5.96739e-47
5.96753e-47
5.96768e-47
5.96784e-47
5.968e-47
5.96817e-47
5.96834e-47
5.96852e-47
5.9687e-47
5.9689e-47
5.96909e-47
5.9693e-47
5.96951e-47
5.96972e-47
5.96995e-47
5.97018e-47
5.97041e-47
5.97066e-47
5.97091e-47
5.97117e-47
5.97144e-47
5.97171e-47
5.97199e-47
5.97229e-47
5.97258e-47
5.97289e-47
5.97321e-47
5.97353e-47
5.97386e-47
5.9742e-47
5.97455e-47
5.9749e-47
5.97527e-47
5.97564e-47
5.97603e-47
5.97642e-47
5.97682e-47
5.97723e-47
5.97764e-47
5.97807e-47
5.97851e-47
5.97895e-47
5.9794e-47
5.97986e-47
5.98033e-47
5.98081e-47
5.98129e-47
5.98178e-47
5.98228e-47
5.98279e-47
5.98331e-47
5.98383e-47
5.98436e-47
5.98489e-47
5.98544e-47
5.98599e-47
5.98654e-47
5.98709e-47
5.98763e-47
5.98815e-47
5.98861e-47
5.98895e-47
5.98908e-47
5.98897e-47
5.98905e-47
5.9891e-47
5.98922e-47
5.98955e-47
5.99015e-47
5.99101e-47
5.99205e-47
5.99317e-47
5.99429e-47
5.99533e-47
5.99628e-47
5.99712e-47
5.99788e-47
5.99856e-47
5.99919e-47
5.99978e-47
6.00034e-47
6.00087e-47
6.00139e-47
6.00188e-47
6.00236e-47
6.00282e-47
6.00326e-47
6.00368e-47
6.00408e-47
6.00445e-47
6.0048e-47
6.00512e-47
6.00541e-47
6.00567e-47
6.0059e-47
6.0061e-47
6.00626e-47
6.00638e-47
6.00646e-47
6.00649e-47
6.00649e-47
6.00643e-47
6.00633e-47
6.00617e-47
6.00596e-47
6.00569e-47
6.00537e-47
6.00498e-47
6.00453e-47
6.00402e-47
6.00343e-47
6.00277e-47
6.00204e-47
6.00123e-47
6.00034e-47
5.99937e-47
5.99831e-47
5.99717e-47
5.99594e-47
5.99461e-47
5.99319e-47
5.99166e-47
5.99004e-47
5.98832e-47
5.98649e-47
5.98455e-47
5.9825e-47
5.98034e-47
5.97806e-47
5.97567e-47
5.97316e-47
5.97053e-47
5.96777e-47
5.9649e-47
5.96189e-47
5.95876e-47
5.95551e-47
5.95212e-47
5.94861e-47
5.94496e-47
5.94119e-47
5.93728e-47
5.93325e-47
5.92908e-47
5.92478e-47
5.92036e-47
5.91581e-47
5.91113e-47
5.90632e-47
5.90139e-47
5.89634e-47
5.89117e-47
5.88588e-47
5.88048e-47
5.87496e-47
5.86934e-47
5.86361e-47
5.85778e-47
5.85185e-47
5.84583e-47
5.83984e-47
5.8348e-47
5.83955e-47
5.93693e-47
6.89683e-47
1.58047e-46
9.71976e-46
8.3253e-45
7.40077e-44
6.53782e-43
5.70815e-42
4.92028e-41
4.18477e-40
3.5103e-39
2.90302e-38
2.36631e-37
1.90076e-36
1.50445e-35
1.1733e-34
9.01619e-34
6.82699e-33
5.09355e-32
3.74421e-31
2.71127e-30
1.93351e-29
1.35748e-28
9.37912e-28
6.37471e-27
4.26048e-26
2.80854e-25
1.81318e-24
1.14966e-23
7.1584e-23
4.37586e-22
2.62544e-21
1.54574e-20
8.92876e-20
5.0596e-19
2.81249e-18
1.53368e-17
8.20556e-17
4.30839e-16
2.22077e-15
1.12426e-14
5.59291e-14
2.73592e-13
1.31715e-12
6.24817e-12
2.92563e-11
1.35564e-10
6.31329e-10
2.95817e-09
1.39592e-08
6.67355e-08
3.31585e-07
1.82712e-06
1.19066e-05
8.04381e-05
0.000354981
0.000699317
0.000869122
0.00108786
0.00163517
0.00262054
0.00391758
0.00528849
0.00669692
0.00776205
0.0086057
0.00926118
0.00976608
0.0101546
0.010454
0.0106847
0.0108618
0.0109962
0.011096
0.0111671
0.0112141
0.0112405
0.0112491
0.0112425
0.0112225
0.0111909
0.0111495
0.0110996
0.0110426
0.01098
0.0109129
0.0108426
0.0107726
0.0107028
0.0106327
0.0105629
0.0104942
0.010427
0.0103621
0.0102998
0.0102404
0.0101842
0.0101313
0.0100817
0.0100353
0.0099918
0.00995094
0.0099123
0.00987539
0.00983965
0.00980447
0.00976922
0.00973323
0.00969586
0.00965646
0.00961444
0.00956924
0.00952037
0.0094674
0.00941
0.00934791
0.00928097
0.00920909
0.00913231
0.00905071
0.00896449
0.00887391
0.00877929
0.00868102
0.00857954
0.00847531
0.00836883
0.00826063
0.00815124
0.00804117
0.00793095
0.00782108
0.00771204
0.00760429
0.00749824
0.00739429
0.00729277
0.00719401
0.00709828
0.0070058
0.00691677
0.00683135
0.00674966
0.00667179
0.00659781
0.00652776
0.00646165
0.00639948
0.00634124
0.00628689
0.00623629
0.00618917
0.0061453
0.00610459
0.00606691
0.00603214
0.00600017
0.00597084
0.00594404
0.00591961
0.00589742
0.00587731
0.00585915
0.0058428
0.00582812
0.00581497
0.00580323
0.00579279
0.00578352
0.00577531
0.00576808
0.00576171
0.00575613
0.00575125
0.005747
0.00574331
0.00574011
0.00573735
0.00573498
0.00573294
0.0057312
0.00572973
0.00572847
0.00572741
0.00572653
0.00572578
0.00572516
0.00572465
0.00572423
0.00572389
0.00572361
0.00572339
0.00572321
0.00572308
0.00572297
0.0057229
0.00572284
0.0057228
0.00572278
0.00572278
0.00572278
0.00572279
0.00572281
0.00572283
0.00572286
0.00572289
0.00572293
0.00572296
0.005723
0.00572304
0.00572308
0.00572313
0.00572317
0.00572321
0.00572325
0.0057233
0.00572334
0.00572338
0.00572343
0.00572347
0.00572351
0.00572355
0.0057236
0.00572364
0.00572368
0.00572372
0.00572376
0.0057238
0.00572384
0.00572388
0.00572392
0.00572396
0.005724
0.00572403
0.00572407
0.00572411
0.00572414
0.00572418
0.00572421
0.00572425
0.00572428
0.00572432
0.00572435
0.00572438
0.00572441
0.00572444
0.00572447
0.0057245
0.00572453
0.00572455
0.00572458
0.00572461
0.00572463
0.00572466
0.00572468
0.0057247
0.00572472
0.00572474
0.00572477
0.00572478
0.0057248
0.00572482
0.00572484
0.00572485
0.00572487
0.00572488
0.0057249
0.00572491
0.00572492
0.00572493
0.00572494
0.00572495
0.00572496
0.00572497
0.00572498
)
;

boundaryField
{
    boundary
    {
        type            empty;
    }
    inlet
    {
        type            fixedValue;
        value           uniform 0;
    }
    outlet
    {
        type            zeroGradient;
    }
}


// ************************************************************************* //
