/*--------------------------------*- C++ -*----------------------------------*\
  =========                 |
  \\      /  F ield         | OpenFOAM: The Open Source CFD Toolbox
   \\    /   O peration     | Website:  https://openfoam.org
    \\  /    A nd           | Version:  7
     \\/     M anipulation  |
\*---------------------------------------------------------------------------*/
FoamFile
{
    version     2.0;
    format      ascii;
    class       surfaceScalarField;
    location    "0.00012";
    object      phi;
}
// * * * * * * * * * * * * * * * * * * * * * * * * * * * * * * * * * * * * * //

dimensions      [1 0 -1 0 0 0 0];

internalField   nonuniform List<scalar> 
499
(
6.91426e-06
6.9095e-06
6.90457e-06
6.89914e-06
6.89311e-06
6.88654e-06
6.87962e-06
6.87261e-06
6.86576e-06
6.85926e-06
6.85323e-06
6.84769e-06
6.84263e-06
6.83798e-06
6.83367e-06
6.8296e-06
6.82571e-06
6.82195e-06
6.81826e-06
6.81463e-06
6.81103e-06
6.80745e-06
6.80389e-06
6.80034e-06
6.7968e-06
6.79326e-06
6.78974e-06
6.78622e-06
6.7827e-06
6.7792e-06
6.7757e-06
6.77221e-06
6.76873e-06
6.76526e-06
6.7618e-06
6.75834e-06
6.7549e-06
6.75146e-06
6.74803e-06
6.74462e-06
6.74121e-06
6.73781e-06
6.73443e-06
6.73105e-06
6.72768e-06
6.72433e-06
6.72098e-06
6.71765e-06
6.71433e-06
6.71101e-06
6.70772e-06
6.70443e-06
6.70115e-06
6.69789e-06
6.69463e-06
6.69139e-06
6.68817e-06
6.68495e-06
6.68175e-06
6.67856e-06
6.67538e-06
6.67222e-06
6.66907e-06
6.66593e-06
6.6628e-06
6.65969e-06
6.65659e-06
6.65351e-06
6.65044e-06
6.64738e-06
6.64434e-06
6.64131e-06
6.63829e-06
6.63529e-06
6.6323e-06
6.62933e-06
6.62637e-06
6.62342e-06
6.62049e-06
6.61757e-06
6.61467e-06
6.61178e-06
6.60891e-06
6.60605e-06
6.6032e-06
6.60037e-06
6.59755e-06
6.59475e-06
6.59196e-06
6.58919e-06
6.58643e-06
6.58369e-06
6.58096e-06
6.57824e-06
6.57554e-06
6.57285e-06
6.57018e-06
6.56752e-06
6.56488e-06
6.56225e-06
6.55964e-06
6.55703e-06
6.55445e-06
6.55187e-06
6.54932e-06
6.54677e-06
6.54424e-06
6.54172e-06
6.53922e-06
6.53673e-06
6.53425e-06
6.53178e-06
6.52933e-06
6.5269e-06
6.52447e-06
6.52206e-06
6.51966e-06
6.51728e-06
6.5149e-06
6.51254e-06
6.51019e-06
6.50786e-06
6.50553e-06
6.50322e-06
6.50092e-06
6.49864e-06
6.49636e-06
6.4941e-06
6.49185e-06
6.4896e-06
6.48737e-06
6.48515e-06
6.48294e-06
6.48074e-06
6.47854e-06
6.47636e-06
6.47419e-06
6.47203e-06
6.46988e-06
6.46774e-06
6.46561e-06
6.46349e-06
6.46138e-06
6.45928e-06
6.45719e-06
6.4551e-06
6.45303e-06
6.45096e-06
6.4489e-06
6.44686e-06
6.44482e-06
6.44278e-06
6.44076e-06
6.43875e-06
6.43674e-06
6.43474e-06
6.43275e-06
6.43076e-06
6.42879e-06
6.42682e-06
6.42486e-06
6.42291e-06
6.42096e-06
6.41903e-06
6.4171e-06
6.41517e-06
6.41326e-06
6.41135e-06
6.40945e-06
6.40756e-06
6.40567e-06
6.40379e-06
6.40192e-06
6.40006e-06
6.3982e-06
6.39635e-06
6.39451e-06
6.39268e-06
6.39085e-06
6.38903e-06
6.38721e-06
6.38541e-06
6.38361e-06
6.38182e-06
6.38003e-06
6.37826e-06
6.37649e-06
6.37473e-06
6.37297e-06
6.37122e-06
6.36948e-06
6.36775e-06
6.36602e-06
6.36431e-06
6.3626e-06
6.36089e-06
6.3592e-06
6.35751e-06
6.35583e-06
6.35415e-06
6.35249e-06
6.35083e-06
6.34918e-06
6.34754e-06
6.3459e-06
6.34428e-06
6.34266e-06
6.34105e-06
6.33944e-06
6.33785e-06
6.33626e-06
6.33468e-06
6.33311e-06
6.33154e-06
6.32998e-06
6.32844e-06
6.3269e-06
6.32536e-06
6.32384e-06
6.32232e-06
6.32082e-06
6.31932e-06
6.31782e-06
6.31634e-06
6.31487e-06
6.3134e-06
6.31194e-06
6.31049e-06
6.30905e-06
6.30762e-06
6.30619e-06
6.30478e-06
6.30337e-06
6.30197e-06
6.30058e-06
6.2992e-06
6.29783e-06
6.29647e-06
6.29512e-06
6.29377e-06
6.29244e-06
6.29111e-06
6.28979e-06
6.28849e-06
6.28719e-06
6.2859e-06
6.28462e-06
6.28336e-06
6.2821e-06
6.28085e-06
6.27961e-06
6.27839e-06
6.27718e-06
6.27597e-06
6.27478e-06
6.2736e-06
6.27242e-06
6.27126e-06
6.27011e-06
6.26896e-06
6.26783e-06
6.26671e-06
6.26561e-06
6.26451e-06
6.26343e-06
6.26236e-06
6.26131e-06
6.26026e-06
6.25923e-06
6.2582e-06
6.2572e-06
6.25625e-06
6.25546e-06
6.25515e-06
6.25623e-06
6.26109e-06
6.27595e-06
6.3158e-06
6.40678e-06
6.55249e-06
6.697e-06
6.79964e-06
6.86653e-06
6.91223e-06
6.94512e-06
6.96899e-06
6.98627e-06
6.99876e-06
7.00808e-06
7.01529e-06
7.02112e-06
7.02602e-06
7.03029e-06
7.03413e-06
7.0377e-06
7.0411e-06
7.04442e-06
7.04769e-06
7.05095e-06
7.05422e-06
7.05748e-06
7.06074e-06
7.06395e-06
7.06708e-06
7.07007e-06
7.07286e-06
7.07537e-06
7.07751e-06
7.07918e-06
7.08027e-06
7.08065e-06
7.08021e-06
7.07892e-06
7.07665e-06
7.07326e-06
7.06865e-06
7.06268e-06
7.05525e-06
7.04625e-06
7.03561e-06
7.02325e-06
7.00914e-06
6.99325e-06
6.97558e-06
6.95617e-06
6.93508e-06
6.91238e-06
6.8882e-06
6.86265e-06
6.83589e-06
6.80809e-06
6.77944e-06
6.75013e-06
6.72037e-06
6.69035e-06
6.6603e-06
6.6304e-06
6.60086e-06
6.57185e-06
6.54356e-06
6.51615e-06
6.48975e-06
6.46449e-06
6.44049e-06
6.41782e-06
6.39657e-06
6.37679e-06
6.3585e-06
6.34173e-06
6.32648e-06
6.31274e-06
6.30047e-06
6.28964e-06
6.28019e-06
6.27207e-06
6.26519e-06
6.25949e-06
6.25489e-06
6.2513e-06
6.24862e-06
6.24678e-06
6.24569e-06
6.24526e-06
6.24541e-06
6.24605e-06
6.24712e-06
6.24853e-06
6.25023e-06
6.25216e-06
6.25425e-06
6.25645e-06
6.25874e-06
6.26105e-06
6.26334e-06
6.26559e-06
6.26775e-06
6.26981e-06
6.27177e-06
6.27364e-06
6.27545e-06
6.27718e-06
6.27883e-06
6.28037e-06
6.2818e-06
6.28313e-06
6.28433e-06
6.28543e-06
6.28641e-06
6.28728e-06
6.28806e-06
6.28874e-06
6.28933e-06
6.28983e-06
6.29026e-06
6.29062e-06
6.29091e-06
6.29115e-06
6.29133e-06
6.29145e-06
6.29154e-06
6.29158e-06
6.29159e-06
6.29157e-06
6.29152e-06
6.29145e-06
6.29135e-06
6.29123e-06
6.29109e-06
6.29095e-06
6.29078e-06
6.29061e-06
6.29042e-06
6.29023e-06
6.29003e-06
6.28982e-06
6.28961e-06
6.28939e-06
6.28917e-06
6.28895e-06
6.28872e-06
6.28849e-06
6.28825e-06
6.28801e-06
6.28778e-06
6.28754e-06
6.28729e-06
6.28705e-06
6.28681e-06
6.28656e-06
6.28631e-06
6.28606e-06
6.28581e-06
6.28556e-06
6.28531e-06
6.28506e-06
6.2848e-06
6.28455e-06
6.28429e-06
6.28403e-06
6.28377e-06
6.28351e-06
6.28325e-06
6.28299e-06
6.28272e-06
6.28246e-06
6.28219e-06
6.28192e-06
6.28165e-06
6.28138e-06
6.28111e-06
6.28084e-06
6.28057e-06
6.28029e-06
6.28001e-06
6.27973e-06
6.27945e-06
6.27917e-06
6.27889e-06
6.27861e-06
6.27832e-06
6.27803e-06
6.27775e-06
6.27746e-06
6.27716e-06
6.27687e-06
6.27658e-06
6.27628e-06
6.27598e-06
6.27568e-06
6.27538e-06
6.27508e-06
6.27477e-06
6.27447e-06
6.27416e-06
6.27385e-06
6.27354e-06
6.27322e-06
6.27291e-06
6.27259e-06
6.27227e-06
6.27195e-06
6.27162e-06
6.2713e-06
6.27097e-06
6.27064e-06
6.27031e-06
6.26997e-06
6.26964e-06
6.2693e-06
6.26896e-06
6.26861e-06
6.26827e-06
6.26792e-06
6.26757e-06
6.26721e-06
6.26686e-06
6.2665e-06
6.26614e-06
6.26577e-06
)
;

boundaryField
{
    boundary
    {
        type            empty;
        value           nonuniform 0();
    }
    inlet
    {
        type            calculated;
        value           uniform -6.91925e-06;
    }
    outlet
    {
        type            calculated;
        value           uniform 6.2654e-06;
    }
}


// ************************************************************************* //
