/*--------------------------------*- C++ -*----------------------------------*\
  =========                 |
  \\      /  F ield         | OpenFOAM: The Open Source CFD Toolbox
   \\    /   O peration     | Website:  https://openfoam.org
    \\  /    A nd           | Version:  7
     \\/     M anipulation  |
\*---------------------------------------------------------------------------*/
FoamFile
{
    version     2.0;
    format      ascii;
    class       volScalarField;
    location    "0.00012";
    object      Qdot;
}
// * * * * * * * * * * * * * * * * * * * * * * * * * * * * * * * * * * * * * //

dimensions      [1 -1 -3 0 0 0 0];

internalField   nonuniform List<scalar> 
500
(
-2.4729e-27
-1.91105e-27
-1.81991e-27
-1.84278e-27
-1.90287e-27
-1.9812e-27
-2.06938e-27
-2.16037e-27
-2.24756e-27
-2.32557e-27
-2.39103e-27
-2.44275e-27
-2.48139e-27
-2.5088e-27
-2.52732e-27
-2.53929e-27
-2.54671e-27
-2.55112e-27
-2.55364e-27
-2.55502e-27
-2.55575e-27
-2.55611e-27
-2.55627e-27
-2.55633e-27
-2.55634e-27
-2.55632e-27
-2.55628e-27
-2.55624e-27
-2.5562e-27
-2.55615e-27
-2.55611e-27
-2.55606e-27
-2.55601e-27
-2.55595e-27
-2.5559e-27
-2.55584e-27
-2.55579e-27
-2.55573e-27
-2.55568e-27
-2.55562e-27
-2.55556e-27
-2.5555e-27
-2.55544e-27
-2.55537e-27
-2.55531e-27
-2.55525e-27
-2.55519e-27
-2.55512e-27
-2.55506e-27
-2.555e-27
-2.55493e-27
-2.55487e-27
-2.5548e-27
-2.55474e-27
-2.55467e-27
-2.55461e-27
-2.55454e-27
-2.55448e-27
-2.55442e-27
-2.55435e-27
-2.55429e-27
-2.55423e-27
-2.55417e-27
-2.55411e-27
-2.55405e-27
-2.55399e-27
-2.55393e-27
-2.55388e-27
-2.55382e-27
-2.55377e-27
-2.55372e-27
-2.55366e-27
-2.55362e-27
-2.55357e-27
-2.55352e-27
-2.55348e-27
-2.55344e-27
-2.5534e-27
-2.55336e-27
-2.55332e-27
-2.55329e-27
-2.55326e-27
-2.55323e-27
-2.55321e-27
-2.55318e-27
-2.55316e-27
-2.55314e-27
-2.55313e-27
-2.55311e-27
-2.55311e-27
-2.5531e-27
-2.55309e-27
-2.55309e-27
-2.5531e-27
-2.5531e-27
-2.55311e-27
-2.55312e-27
-2.55314e-27
-2.55316e-27
-2.55318e-27
-2.55321e-27
-2.55324e-27
-2.55327e-27
-2.5533e-27
-2.55334e-27
-2.55339e-27
-2.55343e-27
-2.55348e-27
-2.55354e-27
-2.55359e-27
-2.55366e-27
-2.55372e-27
-2.55379e-27
-2.55386e-27
-2.55393e-27
-2.55401e-27
-2.55409e-27
-2.55417e-27
-2.55425e-27
-2.55434e-27
-2.55443e-27
-2.55452e-27
-2.5546e-27
-2.55467e-27
-2.55474e-27
-2.55477e-27
-2.55473e-27
-2.55474e-27
-2.55478e-27
-2.55486e-27
-2.55498e-27
-2.55514e-27
-2.55533e-27
-2.55552e-27
-2.55572e-27
-2.5559e-27
-2.55607e-27
-2.55622e-27
-2.55636e-27
-2.55649e-27
-2.55661e-27
-2.55673e-27
-2.55684e-27
-2.55695e-27
-2.55705e-27
-2.55715e-27
-2.55725e-27
-2.55734e-27
-2.55743e-27
-2.55751e-27
-2.55759e-27
-2.55766e-27
-2.55772e-27
-2.55777e-27
-2.55782e-27
-2.55786e-27
-2.55789e-27
-2.55791e-27
-2.55791e-27
-2.55791e-27
-2.5579e-27
-2.55787e-27
-2.55783e-27
-2.55777e-27
-2.5577e-27
-2.55762e-27
-2.55752e-27
-2.5574e-27
-2.55726e-27
-2.5571e-27
-2.55692e-27
-2.55673e-27
-2.55651e-27
-2.55627e-27
-2.556e-27
-2.55571e-27
-2.5554e-27
-2.55505e-27
-2.55469e-27
-2.55429e-27
-2.55386e-27
-2.55341e-27
-2.55292e-27
-2.5524e-27
-2.55185e-27
-2.55127e-27
-2.55065e-27
-2.55e-27
-2.54931e-27
-2.54858e-27
-2.54782e-27
-2.54702e-27
-2.54618e-27
-2.5453e-27
-2.54438e-27
-2.54342e-27
-2.54242e-27
-2.54138e-27
-2.54029e-27
-2.53916e-27
-2.53799e-27
-2.53678e-27
-2.53553e-27
-2.53423e-27
-2.53288e-27
-2.5315e-27
-2.53007e-27
-2.5286e-27
-2.52709e-27
-2.52553e-27
-2.52393e-27
-2.5223e-27
-2.52062e-27
-2.5189e-27
-2.51714e-27
-2.51535e-27
-2.51352e-27
-2.51165e-27
-2.50974e-27
-2.50781e-27
-2.50584e-27
-2.50384e-27
-2.50181e-27
-2.49975e-27
-2.49766e-27
-2.49555e-27
-2.49342e-27
-2.49126e-27
-2.48907e-27
-2.48684e-27
-2.4844e-27
-2.48046e-27
-2.46539e-27
-2.36706e-27
-1.64572e-27
3.72535e-27
4.36796e-26
3.39707e-25
2.52155e-24
1.85029e-23
1.34731e-22
9.73354e-22
6.97188e-21
4.94763e-20
3.47625e-19
2.41651e-18
1.66083e-17
1.12772e-16
7.55968e-16
4.99941e-15
3.2595e-14
2.11086e-13
1.33594e-12
8.32152e-12
5.09939e-11
3.0729e-10
1.82023e-09
1.05952e-08
6.0588e-08
3.40314e-07
1.87741e-06
1.01731e-05
5.41572e-05
0.000283356
0.00145809
0.00738604
0.0368821
0.181909
0.888771
4.32003
21.0234
110.533
633.292
4465.88
33836.5
288221
2.68475e+06
2.57249e+07
2.32042e+08
1.5975e+09
6.03715e+09
1.14434e+10
1.35546e+10
1.37894e+10
1.38016e+10
1.35218e+10
1.24814e+10
1.07029e+10
8.7129e+09
7.07649e+09
5.85123e+09
4.91368e+09
4.19897e+09
3.64631e+09
3.21062e+09
2.86016e+09
2.57282e+09
2.33312e+09
2.1301e+09
1.95584e+09
1.80453e+09
1.67179e+09
1.55428e+09
1.44942e+09
1.35514e+09
1.26981e+09
1.19212e+09
1.12098e+09
1.05548e+09
9.94916e+08
9.38679e+08
8.86362e+08
8.38762e+08
7.94724e+08
7.52798e+08
7.12936e+08
6.74935e+08
6.38628e+08
6.03899e+08
5.70645e+08
5.38782e+08
5.08245e+08
4.7898e+08
4.50939e+08
4.24089e+08
3.98399e+08
3.73845e+08
3.50404e+08
3.28056e+08
3.06779e+08
2.86553e+08
2.67354e+08
2.4916e+08
2.31943e+08
2.15677e+08
2.0033e+08
1.85871e+08
1.72268e+08
1.59484e+08
1.47487e+08
1.36239e+08
1.25706e+08
1.15853e+08
1.06646e+08
9.80503e+07
9.0035e+07
8.25687e+07
7.56217e+07
6.91654e+07
6.31724e+07
5.76162e+07
5.24726e+07
4.77174e+07
4.33274e+07
3.92804e+07
3.55553e+07
3.21315e+07
2.89896e+07
2.61108e+07
2.34767e+07
2.10703e+07
1.88751e+07
1.68756e+07
1.50569e+07
1.34052e+07
1.19068e+07
1.05499e+07
9.32276e+06
8.21436e+06
7.21451e+06
6.31355e+06
5.50209e+06
4.77033e+06
4.10717e+06
3.49645e+06
2.92676e+06
2.45189e+06
2.04956e+06
1.69184e+06
1.37619e+06
1.09766e+06
852027
635875
445760
279100
133368
6488.82
-103211
-198228
-279938
-350000
-409559
-459694
-502829
-538559
-568542
-593440
-613843
-630416
-644567
-655756
-664811
-672019
-676621
-681146
-685959
-688792
-691280
-692843
-694044
-695209
-695966
-696771
-697499
-698169
-698911
-699727
-700250
-700827
-701762
-702670
-703275
-704029
-704867
-705724
-706862
-707732
-708594
-709615
-710634
-711664
-712714
-713771
-714839
-715916
-717001
-718095
-719195
-720310
-721419
-722523
-723620
-724714
-725803
-726889
-727970
-729047
-730120
-731187
-732249
-733305
-734354
-735397
-736433
-737464
-738491
-739507
-740510
-741501
-742477
-743429
-744333
-745121
-745998
-746907
-747823
-748734
-749637
-750529
-751410
-752278
-753133
-753974
-754801
-755611
-756399
-757138
-757892
-758643
-759384
-760116
-760846
-761607
-762743
-763468
-764126
-764751
-765351
-765932
-766495
-767041
-767571
-768084
-768580
-769061
-769597
-770042
-770466
-770853
-770763
)
;

boundaryField
{
    boundary
    {
        type            empty;
    }
    inlet
    {
        type            calculated;
        value           uniform 0;
    }
    outlet
    {
        type            calculated;
        value           uniform 0;
    }
}


// ************************************************************************* //
