/*--------------------------------*- C++ -*----------------------------------*\
  =========                 |
  \\      /  F ield         | OpenFOAM: The Open Source CFD Toolbox
   \\    /   O peration     | Website:  https://openfoam.org
    \\  /    A nd           | Version:  7
     \\/     M anipulation  |
\*---------------------------------------------------------------------------*/
FoamFile
{
    version     2.0;
    format      ascii;
    class       volScalarField;
    location    "0.00012";
    object      rho;
}
// * * * * * * * * * * * * * * * * * * * * * * * * * * * * * * * * * * * * * //

dimensions      [1 -3 0 0 0 0 0];

internalField   nonuniform List<scalar> 
500
(
0.863194
0.863032
0.862832
0.862567
0.862236
0.861851
0.861441
0.861035
0.860659
0.860332
0.860063
0.859853
0.859698
0.859587
0.859511
0.859462
0.859431
0.859412
0.859401
0.859395
0.859391
0.859389
0.859388
0.859387
0.859386
0.859386
0.859385
0.859385
0.859385
0.859384
0.859384
0.859383
0.859383
0.859382
0.859382
0.859381
0.859381
0.85938
0.85938
0.859379
0.859379
0.859378
0.859378
0.859377
0.859376
0.859376
0.859375
0.859374
0.859374
0.859373
0.859372
0.859372
0.859371
0.85937
0.859369
0.859369
0.859368
0.859367
0.859366
0.859366
0.859365
0.859364
0.859363
0.859362
0.859361
0.85936
0.85936
0.859359
0.859358
0.859357
0.859356
0.859355
0.859354
0.859353
0.859352
0.859351
0.85935
0.859349
0.859348
0.859347
0.859346
0.859345
0.859344
0.859343
0.859342
0.85934
0.859339
0.859338
0.859337
0.859336
0.859335
0.859334
0.859332
0.859331
0.85933
0.859329
0.859328
0.859326
0.859325
0.859324
0.859323
0.859322
0.85932
0.859319
0.859318
0.859316
0.859315
0.859314
0.859313
0.859311
0.85931
0.859309
0.859307
0.859306
0.859305
0.859303
0.859302
0.859301
0.859299
0.859298
0.859297
0.859296
0.859294
0.859293
0.859292
0.859291
0.85929
0.859289
0.859288
0.859287
0.859286
0.859284
0.859283
0.859281
0.85928
0.859278
0.859277
0.859276
0.859274
0.859273
0.859272
0.859271
0.85927
0.859269
0.859268
0.859267
0.859266
0.859265
0.859264
0.859263
0.859262
0.859262
0.859261
0.85926
0.85926
0.859259
0.859258
0.859258
0.859258
0.859257
0.859257
0.859257
0.859257
0.859257
0.859257
0.859257
0.859257
0.859257
0.859257
0.859258
0.859258
0.859259
0.85926
0.859261
0.859262
0.859263
0.859264
0.859265
0.859266
0.859268
0.85927
0.859271
0.859273
0.859275
0.859277
0.85928
0.859282
0.859285
0.859288
0.859291
0.859294
0.859297
0.8593
0.859304
0.859308
0.859312
0.859316
0.85932
0.859325
0.859329
0.859334
0.859339
0.859344
0.85935
0.859355
0.859361
0.859367
0.859373
0.859379
0.859386
0.859392
0.859399
0.859406
0.859413
0.85942
0.859428
0.859436
0.859443
0.859451
0.859459
0.859468
0.859476
0.859484
0.859493
0.859502
0.859511
0.85952
0.859529
0.859538
0.859547
0.859557
0.859566
0.859576
0.859585
0.859595
0.859605
0.859615
0.859624
0.859634
0.859644
0.859654
0.859664
0.859674
0.859685
0.859695
0.859705
0.859715
0.859726
0.859736
0.859747
0.859758
0.859769
0.85978
0.859792
0.859803
0.859814
0.859825
0.859836
0.859847
0.859859
0.85987
0.859882
0.859895
0.859907
0.85992
0.859933
0.859947
0.859961
0.859976
0.859991
0.860006
0.860014
0.859986
0.859814
0.85913
0.856765
0.849195
0.826754
0.768721
0.656746
0.519049
0.407329
0.33359
0.285294
0.251819
0.227999
0.211359
0.199056
0.189615
0.182817
0.177803
0.17378
0.170485
0.167726
0.165375
0.163343
0.161564
0.159993
0.158592
0.157335
0.1562
0.155168
0.154226
0.15336
0.152559
0.151815
0.151119
0.150464
0.149842
0.149248
0.148675
0.14812
0.14759
0.147077
0.146561
0.146041
0.145513
0.144974
0.144423
0.143857
0.143275
0.142675
0.142058
0.141423
0.140772
0.140105
0.139424
0.138731
0.138029
0.13732
0.136608
0.135896
0.135187
0.134485
0.133793
0.133114
0.132452
0.13181
0.13119
0.130595
0.130026
0.129486
0.128976
0.128497
0.12805
0.127636
0.127253
0.126903
0.126585
0.126298
0.126042
0.125814
0.125614
0.125441
0.125292
0.125166
0.125062
0.124978
0.124911
0.124861
0.124825
0.124803
0.124791
0.124789
0.124796
0.12481
0.124829
0.124854
0.124881
0.124912
0.124944
0.124977
0.12501
0.125043
0.125074
0.125104
0.125134
0.125164
0.125192
0.12522
0.125246
0.125272
0.125295
0.125317
0.125338
0.125356
0.125374
0.125389
0.125403
0.125416
0.125427
0.125438
0.125447
0.125455
0.125462
0.125468
0.125473
0.125478
0.125482
0.125485
0.125488
0.125491
0.125493
0.125494
0.125496
0.125497
0.125498
0.125498
0.125499
0.125499
0.125499
0.1255
0.125499
0.125499
0.125499
0.125499
0.125499
0.125498
0.125498
0.125498
0.125497
0.125497
0.125496
0.125496
0.125495
0.125495
0.125495
0.125494
0.125494
0.125493
0.125493
0.125492
0.125492
0.125491
0.125491
0.12549
0.12549
0.125489
0.125489
0.125488
0.125488
0.125487
0.125487
0.125486
0.125486
0.125485
0.125485
0.125484
0.125484
0.125483
0.125483
0.125482
0.125482
0.125481
0.125481
0.12548
0.12548
0.125479
0.125479
0.125478
0.125478
0.125478
0.125477
0.125477
0.125476
0.125476
0.125475
0.125475
0.125475
0.125474
0.125474
0.125473
0.125473
0.125473
0.125472
0.125472
0.125471
0.125471
0.125471
0.12547
0.12547
0.12547
0.125469
0.125469
0.125469
0.125468
0.125468
0.125468
0.125467
0.125467
0.125467
0.125467
0.125466
0.125466
0.125466
0.125465
0.125465
0.125465
0.125465
0.125465
)
;

boundaryField
{
    boundary
    {
        type            empty;
    }
    inlet
    {
        type            calculated;
        value           uniform 0.863315;
    }
    outlet
    {
        type            calculated;
        value           uniform 0.125465;
    }
}


// ************************************************************************* //
