/*--------------------------------*- C++ -*----------------------------------*\
  =========                 |
  \\      /  F ield         | OpenFOAM: The Open Source CFD Toolbox
   \\    /   O peration     | Website:  https://openfoam.org
    \\  /    A nd           | Version:  7
     \\/     M anipulation  |
\*---------------------------------------------------------------------------*/
FoamFile
{
    version     2.0;
    format      ascii;
    class       volScalarField;
    location    "0.00012";
    object      T;
}
// * * * * * * * * * * * * * * * * * * * * * * * * * * * * * * * * * * * * * //

dimensions      [0 0 0 1 0 0 0];

internalField   nonuniform List<scalar> 
500
(
300.042
300.098
300.168
300.26
300.376
300.51
300.653
300.794
300.926
301.04
301.134
301.207
301.262
301.301
301.327
301.344
301.355
301.362
301.365
301.367
301.369
301.369
301.37
301.37
301.37
301.37
301.37
301.37
301.37
301.37
301.37
301.37
301.369
301.369
301.369
301.369
301.369
301.369
301.369
301.369
301.369
301.369
301.369
301.369
301.369
301.369
301.369
301.369
301.369
301.369
301.369
301.369
301.369
301.369
301.369
301.368
301.368
301.368
301.368
301.368
301.368
301.368
301.368
301.368
301.368
301.368
301.368
301.368
301.368
301.368
301.368
301.368
301.368
301.368
301.368
301.368
301.368
301.368
301.368
301.368
301.368
301.368
301.368
301.368
301.368
301.368
301.368
301.368
301.368
301.368
301.368
301.368
301.368
301.368
301.368
301.368
301.369
301.369
301.369
301.369
301.369
301.369
301.369
301.369
301.369
301.369
301.369
301.37
301.37
301.37
301.37
301.37
301.37
301.37
301.37
301.371
301.371
301.371
301.371
301.371
301.371
301.372
301.372
301.372
301.372
301.372
301.372
301.372
301.372
301.372
301.372
301.373
301.373
301.373
301.374
301.374
301.374
301.374
301.375
301.375
301.375
301.375
301.375
301.376
301.376
301.376
301.376
301.376
301.376
301.376
301.377
301.377
301.377
301.377
301.377
301.377
301.377
301.377
301.377
301.377
301.377
301.377
301.377
301.377
301.377
301.377
301.377
301.377
301.377
301.376
301.376
301.376
301.376
301.375
301.375
301.375
301.374
301.374
301.373
301.373
301.372
301.372
301.371
301.37
301.37
301.369
301.368
301.367
301.366
301.365
301.364
301.363
301.362
301.361
301.36
301.359
301.357
301.356
301.355
301.353
301.352
301.35
301.348
301.347
301.345
301.343
301.341
301.339
301.337
301.335
301.333
301.331
301.328
301.326
301.324
301.321
301.319
301.316
301.314
301.311
301.309
301.306
301.303
301.301
301.298
301.295
301.292
301.289
301.286
301.283
301.28
301.277
301.274
301.271
301.268
301.265
301.262
301.259
301.255
301.252
301.249
301.246
301.243
301.239
301.236
301.233
301.23
301.226
301.223
301.22
301.216
301.213
301.209
301.205
301.202
301.198
301.195
301.191
301.188
301.184
301.18
301.177
301.173
301.169
301.165
301.16
301.156
301.152
301.147
301.143
301.141
301.145
301.171
301.267
301.586
302.591
305.655
314.717
340.036
401.057
512.773
661.251
817.294
966.639
1105.88
1230.59
1334.66
1422.92
1497.29
1556.54
1603.64
1643.68
1678.13
1708.2
1734.76
1758.44
1779.72
1798.97
1816.48
1832.46
1847.13
1860.64
1873.12
1884.71
1895.51
1905.62
1915.14
1924.15
1932.74
1940.99
1948.97
1956.75
1964.19
1971.44
1978.75
1986.16
1993.73
2001.5
2009.51
2017.81
2026.42
2035.37
2044.68
2054.35
2064.4
2074.81
2085.57
2096.66
2108.05
2119.71
2131.59
2143.66
2155.85
2168.12
2180.4
2192.65
2204.8
2216.8
2228.59
2240.12
2251.33
2262.19
2272.66
2282.7
2292.28
2301.37
2309.97
2318.05
2325.61
2332.65
2339.18
2345.2
2350.72
2355.76
2360.34
2364.48
2368.21
2371.54
2374.52
2377.15
2379.48
2381.53
2383.31
2384.87
2386.22
2387.38
2388.38
2389.24
2389.97
2390.59
2391.12
2391.58
2391.97
2392.31
2392.63
2392.91
2393.12
2393.31
2393.45
2393.57
2393.67
2393.74
2393.8
2393.85
2393.89
2393.92
2393.94
2393.97
2393.99
2394.01
2394.02
2394.04
2394.05
2394.07
2394.08
2394.09
2394.1
2394.12
2394.13
2394.14
2394.15
2394.16
2394.17
2394.18
2394.19
2394.2
2394.21
2394.22
2394.23
2394.24
2394.25
2394.26
2394.27
2394.28
2394.29
2394.3
2394.31
2394.32
2394.32
2394.33
2394.34
2394.35
2394.36
2394.37
2394.38
2394.39
2394.39
2394.4
2394.41
2394.42
2394.43
2394.44
2394.44
2394.45
2394.46
2394.47
2394.48
2394.49
2394.49
2394.5
2394.51
2394.52
2394.53
2394.53
2394.54
2394.55
2394.56
2394.56
2394.57
2394.58
2394.59
2394.6
2394.6
2394.61
2394.62
2394.62
2394.63
2394.64
2394.65
2394.65
2394.66
2394.67
2394.67
2394.68
2394.69
2394.69
2394.7
2394.71
2394.71
2394.72
2394.72
2394.73
2394.74
2394.74
2394.75
2394.75
2394.76
2394.76
2394.77
2394.77
2394.78
2394.78
2394.79
2394.79
2394.8
2394.8
2394.8
2394.81
2394.81
2394.82
2394.82
2394.82
2394.83
2394.83
2394.83
2394.83
2394.84
2394.84
2394.84
2394.84
)
;

boundaryField
{
    boundary
    {
        type            empty;
    }
    inlet
    {
        type            fixedValue;
        value           uniform 300;
    }
    outlet
    {
        type            zeroGradient;
    }
}


// ************************************************************************* //
