/*--------------------------------*- C++ -*----------------------------------*\
  =========                 |
  \\      /  F ield         | OpenFOAM: The Open Source CFD Toolbox
   \\    /   O peration     | Website:  https://openfoam.org
    \\  /    A nd           | Version:  7
     \\/     M anipulation  |
\*---------------------------------------------------------------------------*/
FoamFile
{
    version     2.0;
    format      ascii;
    class       volVectorField;
    location    "0.00012";
    object      U;
}
// * * * * * * * * * * * * * * * * * * * * * * * * * * * * * * * * * * * * * //

dimensions      [0 1 -1 0 0 0 0];

internalField   nonuniform List<vector> 
500
(
(2.34864 0 0)
(2.34727 0 0)
(2.34616 0 0)
(2.34515 0 0)
(2.34407 0 0)
(2.34293 0 0)
(2.34175 0 0)
(2.34048 0 0)
(2.33912 0 0)
(2.33771 0 0)
(2.3363 0 0)
(2.3349 0 0)
(2.33352 0 0)
(2.33218 0 0)
(2.33086 0 0)
(2.32957 0 0)
(2.3283 0 0)
(2.32705 0 0)
(2.32582 0 0)
(2.32459 0 0)
(2.32337 0 0)
(2.32215 0 0)
(2.32093 0 0)
(2.31972 0 0)
(2.31852 0 0)
(2.31731 0 0)
(2.31611 0 0)
(2.31491 0 0)
(2.31371 0 0)
(2.31252 0 0)
(2.31132 0 0)
(2.31013 0 0)
(2.30894 0 0)
(2.30776 0 0)
(2.30658 0 0)
(2.3054 0 0)
(2.30422 0 0)
(2.30305 0 0)
(2.30188 0 0)
(2.30072 0 0)
(2.29956 0 0)
(2.2984 0 0)
(2.29724 0 0)
(2.29609 0 0)
(2.29494 0 0)
(2.2938 0 0)
(2.29266 0 0)
(2.29152 0 0)
(2.29039 0 0)
(2.28926 0 0)
(2.28813 0 0)
(2.28701 0 0)
(2.28589 0 0)
(2.28478 0 0)
(2.28367 0 0)
(2.28257 0 0)
(2.28147 0 0)
(2.28037 0 0)
(2.27928 0 0)
(2.27819 0 0)
(2.27711 0 0)
(2.27603 0 0)
(2.27495 0 0)
(2.27388 0 0)
(2.27281 0 0)
(2.27175 0 0)
(2.2707 0 0)
(2.26965 0 0)
(2.2686 0 0)
(2.26756 0 0)
(2.26652 0 0)
(2.26548 0 0)
(2.26445 0 0)
(2.26343 0 0)
(2.26241 0 0)
(2.2614 0 0)
(2.26039 0 0)
(2.25938 0 0)
(2.25839 0 0)
(2.25739 0 0)
(2.2564 0 0)
(2.25542 0 0)
(2.25444 0 0)
(2.25346 0 0)
(2.25249 0 0)
(2.25153 0 0)
(2.25057 0 0)
(2.24961 0 0)
(2.24866 0 0)
(2.24772 0 0)
(2.24678 0 0)
(2.24584 0 0)
(2.24491 0 0)
(2.24398 0 0)
(2.24306 0 0)
(2.24215 0 0)
(2.24124 0 0)
(2.24033 0 0)
(2.23943 0 0)
(2.23853 0 0)
(2.23764 0 0)
(2.23676 0 0)
(2.23587 0 0)
(2.235 0 0)
(2.23413 0 0)
(2.23326 0 0)
(2.2324 0 0)
(2.23154 0 0)
(2.23068 0 0)
(2.22984 0 0)
(2.22899 0 0)
(2.22815 0 0)
(2.22732 0 0)
(2.22649 0 0)
(2.22566 0 0)
(2.22484 0 0)
(2.22402 0 0)
(2.22321 0 0)
(2.2224 0 0)
(2.22159 0 0)
(2.22079 0 0)
(2.22 0 0)
(2.21921 0 0)
(2.21842 0 0)
(2.21762 0 0)
(2.21683 0 0)
(2.21608 0 0)
(2.21532 0 0)
(2.21455 0 0)
(2.21378 0 0)
(2.21302 0 0)
(2.21226 0 0)
(2.21151 0 0)
(2.21077 0 0)
(2.21002 0 0)
(2.20928 0 0)
(2.20854 0 0)
(2.20781 0 0)
(2.20707 0 0)
(2.20635 0 0)
(2.20562 0 0)
(2.2049 0 0)
(2.20418 0 0)
(2.20347 0 0)
(2.20275 0 0)
(2.20204 0 0)
(2.20134 0 0)
(2.20063 0 0)
(2.19993 0 0)
(2.19923 0 0)
(2.19854 0 0)
(2.19785 0 0)
(2.19716 0 0)
(2.19647 0 0)
(2.19579 0 0)
(2.19511 0 0)
(2.19443 0 0)
(2.19375 0 0)
(2.19307 0 0)
(2.1924 0 0)
(2.19174 0 0)
(2.19107 0 0)
(2.1904 0 0)
(2.18974 0 0)
(2.18908 0 0)
(2.18843 0 0)
(2.18777 0 0)
(2.18712 0 0)
(2.18647 0 0)
(2.18582 0 0)
(2.18517 0 0)
(2.18453 0 0)
(2.18389 0 0)
(2.18325 0 0)
(2.18261 0 0)
(2.18198 0 0)
(2.18135 0 0)
(2.18072 0 0)
(2.18009 0 0)
(2.17946 0 0)
(2.17884 0 0)
(2.17822 0 0)
(2.1776 0 0)
(2.17698 0 0)
(2.17636 0 0)
(2.17575 0 0)
(2.17514 0 0)
(2.17453 0 0)
(2.17392 0 0)
(2.17332 0 0)
(2.17272 0 0)
(2.17212 0 0)
(2.17152 0 0)
(2.17092 0 0)
(2.17033 0 0)
(2.16973 0 0)
(2.16914 0 0)
(2.16856 0 0)
(2.16797 0 0)
(2.16739 0 0)
(2.16681 0 0)
(2.16623 0 0)
(2.16565 0 0)
(2.16508 0 0)
(2.1645 0 0)
(2.16393 0 0)
(2.16336 0 0)
(2.1628 0 0)
(2.16223 0 0)
(2.16167 0 0)
(2.16111 0 0)
(2.16055 0 0)
(2.16 0 0)
(2.15945 0 0)
(2.15889 0 0)
(2.15835 0 0)
(2.1578 0 0)
(2.15726 0 0)
(2.15672 0 0)
(2.15618 0 0)
(2.15564 0 0)
(2.15511 0 0)
(2.15458 0 0)
(2.15405 0 0)
(2.15352 0 0)
(2.153 0 0)
(2.15248 0 0)
(2.15196 0 0)
(2.15144 0 0)
(2.15093 0 0)
(2.15042 0 0)
(2.14991 0 0)
(2.1494 0 0)
(2.1489 0 0)
(2.1484 0 0)
(2.1479 0 0)
(2.14741 0 0)
(2.14692 0 0)
(2.14643 0 0)
(2.14595 0 0)
(2.14546 0 0)
(2.14498 0 0)
(2.14451 0 0)
(2.14404 0 0)
(2.14357 0 0)
(2.1431 0 0)
(2.14263 0 0)
(2.14217 0 0)
(2.14172 0 0)
(2.14126 0 0)
(2.1408 0 0)
(2.14035 0 0)
(2.13992 0 0)
(2.1395 0 0)
(2.13906 0 0)
(2.13862 0 0)
(2.13818 0 0)
(2.13776 0 0)
(2.13734 0 0)
(2.13692 0 0)
(2.1365 0 0)
(2.13609 0 0)
(2.13568 0 0)
(2.13527 0 0)
(2.13487 0 0)
(2.13447 0 0)
(2.13408 0 0)
(2.13368 0 0)
(2.13329 0 0)
(2.13291 0 0)
(2.13253 0 0)
(2.13217 0 0)
(2.13195 0 0)
(2.13231 0 0)
(2.13454 0 0)
(2.14275 0 0)
(2.16717 0 0)
(2.23049 0 0)
(2.38224 0 0)
(2.72111 0 0)
(3.41684 0 0)
(4.48984 0 0)
(5.71965 0 0)
(6.90417 0 0)
(7.96238 0 0)
(8.87639 0 0)
(9.64337 0 0)
(10.2803 0 0)
(10.808 0 0)
(11.2332 0 0)
(11.5701 0 0)
(11.8457 0 0)
(12.0812 0 0)
(12.2869 0 0)
(12.4683 0 0)
(12.6299 0 0)
(12.7751 0 0)
(12.9067 0 0)
(13.0267 0 0)
(13.1369 0 0)
(13.2386 0 0)
(13.3328 0 0)
(13.4205 0 0)
(13.5024 0 0)
(13.5792 0 0)
(13.6513 0 0)
(13.7194 0 0)
(13.7837 0 0)
(13.8447 0 0)
(13.9026 0 0)
(13.9576 0 0)
(14.01 0 0)
(14.0587 0 0)
(14.1042 0 0)
(14.1482 0 0)
(14.1907 0 0)
(14.2316 0 0)
(14.2709 0 0)
(14.3088 0 0)
(14.3451 0 0)
(14.3799 0 0)
(14.4132 0 0)
(14.4448 0 0)
(14.4749 0 0)
(14.5032 0 0)
(14.5299 0 0)
(14.5548 0 0)
(14.5779 0 0)
(14.5992 0 0)
(14.6186 0 0)
(14.6362 0 0)
(14.6519 0 0)
(14.6658 0 0)
(14.6779 0 0)
(14.6883 0 0)
(14.6969 0 0)
(14.7039 0 0)
(14.7094 0 0)
(14.7134 0 0)
(14.7161 0 0)
(14.7176 0 0)
(14.718 0 0)
(14.7175 0 0)
(14.7161 0 0)
(14.714 0 0)
(14.7114 0 0)
(14.7083 0 0)
(14.7048 0 0)
(14.7012 0 0)
(14.6975 0 0)
(14.6937 0 0)
(14.69 0 0)
(14.6865 0 0)
(14.6832 0 0)
(14.6801 0 0)
(14.6773 0 0)
(14.6749 0 0)
(14.6727 0 0)
(14.671 0 0)
(14.6696 0 0)
(14.6685 0 0)
(14.6678 0 0)
(14.6675 0 0)
(14.6674 0 0)
(14.6675 0 0)
(14.668 0 0)
(14.6687 0 0)
(14.6695 0 0)
(14.6705 0 0)
(14.6717 0 0)
(14.673 0 0)
(14.6744 0 0)
(14.676 0 0)
(14.6777 0 0)
(14.6794 0 0)
(14.6811 0 0)
(14.6825 0 0)
(14.6835 0 0)
(14.6843 0 0)
(14.6858 0 0)
(14.6868 0 0)
(14.6878 0 0)
(14.6887 0 0)
(14.6896 0 0)
(14.6904 0 0)
(14.6912 0 0)
(14.6919 0 0)
(14.6924 0 0)
(14.693 0 0)
(14.6934 0 0)
(14.6937 0 0)
(14.694 0 0)
(14.6942 0 0)
(14.6944 0 0)
(14.6945 0 0)
(14.6945 0 0)
(14.6945 0 0)
(14.6944 0 0)
(14.6943 0 0)
(14.6941 0 0)
(14.6939 0 0)
(14.6937 0 0)
(14.6935 0 0)
(14.6932 0 0)
(14.6929 0 0)
(14.6925 0 0)
(14.6922 0 0)
(14.6918 0 0)
(14.6914 0 0)
(14.691 0 0)
(14.6906 0 0)
(14.6901 0 0)
(14.6897 0 0)
(14.6892 0 0)
(14.6888 0 0)
(14.6883 0 0)
(14.6879 0 0)
(14.6874 0 0)
(14.6869 0 0)
(14.6864 0 0)
(14.6859 0 0)
(14.6854 0 0)
(14.6849 0 0)
(14.6844 0 0)
(14.6839 0 0)
(14.6834 0 0)
(14.6829 0 0)
(14.6824 0 0)
(14.6819 0 0)
(14.6814 0 0)
(14.6808 0 0)
(14.6803 0 0)
(14.6798 0 0)
(14.6792 0 0)
(14.6787 0 0)
(14.6782 0 0)
(14.6776 0 0)
(14.6771 0 0)
(14.6766 0 0)
(14.676 0 0)
(14.6755 0 0)
(14.6749 0 0)
(14.6744 0 0)
(14.6738 0 0)
(14.6732 0 0)
(14.6727 0 0)
(14.6721 0 0)
(14.6715 0 0)
(14.671 0 0)
(14.6704 0 0)
(14.6698 0 0)
(14.6692 0 0)
(14.6686 0 0)
(14.6681 0 0)
(14.6675 0 0)
(14.6669 0 0)
(14.6663 0 0)
(14.6657 0 0)
(14.665 0 0)
(14.6644 0 0)
(14.6638 0 0)
(14.6632 0 0)
(14.6626 0 0)
(14.6619 0 0)
(14.6613 0 0)
(14.6607 0 0)
(14.66 0 0)
(14.6594 0 0)
(14.6587 0 0)
(14.6581 0 0)
(14.6574 0 0)
(14.6568 0 0)
(14.6561 0 0)
(14.6554 0 0)
(14.6547 0 0)
(14.6541 0 0)
(14.6534 0 0)
(14.6527 0 0)
(14.652 0 0)
(14.6513 0 0)
(14.6506 0 0)
(14.6499 0 0)
(14.6491 0 0)
(14.6484 0 0)
(14.6477 0 0)
(14.6469 0 0)
(14.6462 0 0)
(14.6455 0 0)
(14.6447 0 0)
(14.6439 0 0)
(14.6432 0 0)
(14.6424 0 0)
(14.6416 0 0)
(14.6408 0 0)
(14.6401 0 0)
(14.6393 0 0)
(14.6384 0 0)
(14.6376 0 0)
(14.6368 0 0)
(14.6356 0 0)
)
;

boundaryField
{
    boundary
    {
        type            empty;
    }
    inlet
    {
        type            fixedValue;
        value           uniform (2.34893 0 0);
    }
    outlet
    {
        type            zeroGradient;
    }
}


// ************************************************************************* //
