/*--------------------------------*- C++ -*----------------------------------*\
  =========                 |
  \\      /  F ield         | OpenFOAM: The Open Source CFD Toolbox
   \\    /   O peration     | Website:  https://openfoam.org
    \\  /    A nd           | Version:  7
     \\/     M anipulation  |
\*---------------------------------------------------------------------------*/
FoamFile
{
    version     2.0;
    format      ascii;
    class       surfaceScalarField;
    location    "0.00033";
    object      phi;
}
// * * * * * * * * * * * * * * * * * * * * * * * * * * * * * * * * * * * * * //

dimensions      [1 0 -1 0 0 0 0];

internalField   nonuniform List<scalar> 
124
(
6.93149e-06
6.93116e-06
6.93081e-06
6.93045e-06
6.93007e-06
6.92965e-06
6.9292e-06
6.9287e-06
6.92813e-06
6.92748e-06
6.92673e-06
6.92586e-06
6.92487e-06
6.92372e-06
6.92243e-06
6.92098e-06
6.91937e-06
6.91761e-06
6.91572e-06
6.91373e-06
6.91166e-06
6.90954e-06
6.90742e-06
6.90533e-06
6.9033e-06
6.90136e-06
6.89954e-06
6.89786e-06
6.89633e-06
6.89496e-06
6.89375e-06
6.89268e-06
6.89175e-06
6.89095e-06
6.89027e-06
6.88967e-06
6.88916e-06
6.88872e-06
6.88833e-06
6.88799e-06
6.88767e-06
6.88739e-06
6.88712e-06
6.88687e-06
6.88662e-06
6.88639e-06
6.88615e-06
6.88593e-06
6.8857e-06
6.88548e-06
6.88525e-06
6.88503e-06
6.88481e-06
6.88459e-06
6.88437e-06
6.88415e-06
6.88393e-06
6.8837e-06
6.88348e-06
6.88326e-06
6.88304e-06
6.88282e-06
6.8826e-06
6.88238e-06
6.88216e-06
6.88194e-06
6.88171e-06
6.88149e-06
6.88127e-06
6.88105e-06
6.88083e-06
6.88061e-06
6.88039e-06
6.88017e-06
6.87994e-06
6.87972e-06
6.8795e-06
6.87928e-06
6.87906e-06
6.87884e-06
6.87861e-06
6.87839e-06
6.87817e-06
6.87795e-06
6.87773e-06
6.8775e-06
6.87728e-06
6.87706e-06
6.87684e-06
6.87661e-06
6.87639e-06
6.87617e-06
6.87595e-06
6.87572e-06
6.8755e-06
6.87528e-06
6.87505e-06
6.87483e-06
6.87461e-06
6.87438e-06
6.87416e-06
6.87394e-06
6.87371e-06
6.87349e-06
6.87326e-06
6.87304e-06
6.87282e-06
6.87259e-06
6.87237e-06
6.87214e-06
6.87192e-06
6.87169e-06
6.87147e-06
6.87124e-06
6.87102e-06
6.87079e-06
6.87057e-06
6.87034e-06
6.87011e-06
6.86989e-06
6.86966e-06
6.86943e-06
6.86921e-06
6.86898e-06
)
;

boundaryField
{
    boundary
    {
        type            empty;
        value           nonuniform 0();
    }
    inlet
    {
        type            calculated;
        value           uniform -6.93182e-06;
    }
    outlet
    {
        type            calculated;
        value           nonuniform 0();
    }
    procBoundary2to3
    {
        type            processor;
        value           uniform 6.86875e-06;
    }
}


// ************************************************************************* //
