/*--------------------------------*- C++ -*----------------------------------*\
  =========                 |
  \\      /  F ield         | OpenFOAM: The Open Source CFD Toolbox
   \\    /   O peration     | Website:  https://openfoam.org
    \\  /    A nd           | Version:  7
     \\/     M anipulation  |
\*---------------------------------------------------------------------------*/
FoamFile
{
    version     2.0;
    format      ascii;
    class       volScalarField;
    location    "0.00033";
    object      T;
}
// * * * * * * * * * * * * * * * * * * * * * * * * * * * * * * * * * * * * * //

dimensions      [0 0 0 1 0 0 0];

internalField   nonuniform List<scalar> 
125
(
300.003
300.009
300.015
300.021
300.029
300.039
300.05
300.064
300.082
300.103
300.129
300.161
300.198
300.242
300.292
300.35
300.413
300.483
300.558
300.636
300.717
300.799
300.881
300.961
301.037
301.108
301.174
301.234
301.287
301.333
301.373
301.406
301.434
301.457
301.475
301.489
301.5
301.509
301.515
301.52
301.523
301.526
301.527
301.529
301.53
301.53
301.53
301.531
301.531
301.531
301.531
301.531
301.531
301.531
301.531
301.531
301.531
301.531
301.531
301.531
301.531
301.531
301.531
301.531
301.531
301.531
301.531
301.531
301.531
301.531
301.532
301.532
301.532
301.532
301.532
301.532
301.532
301.532
301.532
301.532
301.532
301.532
301.532
301.532
301.532
301.532
301.532
301.532
301.532
301.532
301.533
301.533
301.533
301.533
301.533
301.533
301.533
301.533
301.533
301.533
301.533
301.534
301.534
301.534
301.534
301.534
301.534
301.534
301.534
301.535
301.535
301.535
301.535
301.535
301.535
301.535
301.536
301.536
301.536
301.536
301.536
301.537
301.537
301.537
301.537
)
;

boundaryField
{
    boundary
    {
        type            empty;
    }
    inlet
    {
        type            fixedValue;
        value           uniform 300;
    }
    outlet
    {
        type            zeroGradient;
    }
    procBoundary2to3
    {
        type            processor;
        value           uniform 301.537;
    }
}


// ************************************************************************* //
