/*--------------------------------*- C++ -*----------------------------------*\
  =========                 |
  \\      /  F ield         | OpenFOAM: The Open Source CFD Toolbox
   \\    /   O peration     | Website:  https://openfoam.org
    \\  /    A nd           | Version:  7
     \\/     M anipulation  |
\*---------------------------------------------------------------------------*/
FoamFile
{
    version     2.0;
    format      ascii;
    class       volScalarField;
    location    "0.00067";
    object      H;
}
// * * * * * * * * * * * * * * * * * * * * * * * * * * * * * * * * * * * * * //

dimensions      [0 0 0 0 0 0 0];

internalField   nonuniform List<scalar> 
126
(
3.45461e-41
3.45486e-41
3.45506e-41
3.45521e-41
3.45532e-41
3.45538e-41
3.45542e-41
3.45545e-41
3.45546e-41
3.45548e-41
3.45552e-41
3.45557e-41
3.45564e-41
3.45573e-41
3.45585e-41
3.45599e-41
3.45616e-41
3.45634e-41
3.45653e-41
3.45674e-41
3.45695e-41
3.45717e-41
3.45739e-41
3.45761e-41
3.45783e-41
3.45805e-41
3.45827e-41
3.4585e-41
3.45872e-41
3.45894e-41
3.45917e-41
3.4594e-41
3.45962e-41
3.45985e-41
3.46009e-41
3.46032e-41
3.46056e-41
3.4608e-41
3.46104e-41
3.46129e-41
3.46153e-41
3.46179e-41
3.46204e-41
3.4623e-41
3.46255e-41
3.46281e-41
3.46308e-41
3.46334e-41
3.4636e-41
3.46386e-41
3.46412e-41
3.46438e-41
3.46464e-41
3.46489e-41
3.46514e-41
3.46538e-41
3.46562e-41
3.46585e-41
3.46607e-41
3.46629e-41
3.46649e-41
3.46669e-41
3.46687e-41
3.46704e-41
3.4672e-41
3.46735e-41
3.46749e-41
3.46761e-41
3.46771e-41
3.4678e-41
3.46787e-41
3.46793e-41
3.46797e-41
3.46799e-41
3.46798e-41
3.46796e-41
3.46791e-41
3.46785e-41
3.46775e-41
3.46764e-41
3.46749e-41
3.46732e-41
3.46712e-41
3.4669e-41
3.46667e-41
3.46648e-41
3.46652e-41
3.46745e-41
3.4716e-41
3.48709e-41
3.54209e-41
3.73346e-41
4.39256e-41
6.64539e-41
1.42949e-40
4.01072e-40
1.26684e-39
4.15365e-39
1.37245e-38
4.52794e-38
1.48756e-37
4.86325e-37
1.58208e-36
5.12196e-36
1.65057e-35
5.2957e-35
1.69202e-34
5.38506e-34
1.70762e-33
5.39665e-33
1.70025e-32
5.34179e-32
1.67411e-31
5.23546e-31
1.63447e-30
5.09625e-30
1.58794e-29
4.94823e-29
1.54357e-28
4.82666e-28
1.51562e-27
4.79101e-27
1.52957e-26
4.95269e-26
1.6348e-25
5.53281e-25
)
;

boundaryField
{
    boundary
    {
        type            empty;
    }
    inlet
    {
        type            fixedValue;
        value           nonuniform 0();
    }
    outlet
    {
        type            zeroGradient;
    }
    procBoundary3to1
    {
        type            processor;
        value           uniform 1.94072e-24;
    }
    procBoundary3to2
    {
        type            processor;
        value           uniform 3.45413e-41;
    }
}


// ************************************************************************* //
