/*--------------------------------*- C++ -*----------------------------------*\
  =========                 |
  \\      /  F ield         | OpenFOAM: The Open Source CFD Toolbox
   \\    /   O peration     | Website:  https://openfoam.org
    \\  /    A nd           | Version:  7
     \\/     M anipulation  |
\*---------------------------------------------------------------------------*/
FoamFile
{
    version     2.0;
    format      ascii;
    class       volScalarField;
    location    "0.00067";
    object      H2O;
}
// * * * * * * * * * * * * * * * * * * * * * * * * * * * * * * * * * * * * * //

dimensions      [0 0 0 0 0 0 0];

internalField   nonuniform List<scalar> 
126
(
2.0935e-45
2.09359e-45
2.09368e-45
2.09377e-45
2.09386e-45
2.09395e-45
2.09405e-45
2.09415e-45
2.09427e-45
2.09441e-45
2.09458e-45
2.09477e-45
2.09501e-45
2.09528e-45
2.0956e-45
2.09597e-45
2.09638e-45
2.09683e-45
2.09732e-45
2.09784e-45
2.09838e-45
2.09893e-45
2.09947e-45
2.1e-45
2.1005e-45
2.10097e-45
2.10139e-45
2.10176e-45
2.10209e-45
2.10236e-45
2.10259e-45
2.10277e-45
2.10291e-45
2.10302e-45
2.1031e-45
2.10317e-45
2.10323e-45
2.10328e-45
2.10334e-45
2.10342e-45
2.1035e-45
2.10361e-45
2.10374e-45
2.10389e-45
2.10406e-45
2.10426e-45
2.10447e-45
2.10471e-45
2.10496e-45
2.10522e-45
2.1055e-45
2.10577e-45
2.10605e-45
2.10633e-45
2.1066e-45
2.10687e-45
2.10712e-45
2.10736e-45
2.10759e-45
2.10781e-45
2.10801e-45
2.1082e-45
2.10837e-45
2.10852e-45
2.10867e-45
2.10879e-45
2.1089e-45
2.109e-45
2.10908e-45
2.10914e-45
2.10919e-45
2.10923e-45
2.10928e-45
2.1094e-45
2.10985e-45
2.11162e-45
2.11861e-45
2.14583e-45
2.25082e-45
2.65292e-45
4.18301e-45
9.97062e-45
3.1741e-44
1.13212e-43
4.16706e-43
1.54286e-42
5.70877e-42
2.10883e-41
7.7822e-41
2.87256e-40
1.06224e-39
3.94213e-39
1.471e-38
5.52934e-38
2.09724e-37
8.03744e-37
3.11491e-36
1.22104e-35
4.83951e-35
1.9375e-34
7.82439e-34
3.18212e-33
1.30104e-32
5.33889e-32
2.1955e-31
9.03589e-31
3.71787e-30
1.52804e-29
6.26916e-29
2.56638e-28
1.04794e-27
4.26758e-27
1.73311e-26
7.01895e-26
2.83502e-25
1.14217e-24
4.59051e-24
1.8409e-23
7.36745e-23
2.94314e-22
1.17381e-21
4.67483e-21
1.85949e-20
7.38852e-20
2.93313e-19
1.16354e-18
)
;

boundaryField
{
    boundary
    {
        type            empty;
    }
    inlet
    {
        type            fixedValue;
        value           nonuniform 0();
    }
    outlet
    {
        type            zeroGradient;
    }
    procBoundary3to1
    {
        type            processor;
        value           uniform 4.64004e-18;
    }
    procBoundary3to2
    {
        type            processor;
        value           uniform 2.09683e-45;
    }
}


// ************************************************************************* //
