/*--------------------------------*- C++ -*----------------------------------*\
  =========                 |
  \\      /  F ield         | OpenFOAM: The Open Source CFD Toolbox
   \\    /   O peration     | Website:  https://openfoam.org
    \\  /    A nd           | Version:  7
     \\/     M anipulation  |
\*---------------------------------------------------------------------------*/
FoamFile
{
    version     2.0;
    format      ascii;
    class       volScalarField;
    location    "3e-05";
    object      H;
}
// * * * * * * * * * * * * * * * * * * * * * * * * * * * * * * * * * * * * * //

dimensions      [0 0 0 0 0 0 0];

internalField   nonuniform List<scalar> 
126
(
2.53751e-41
2.54513e-41
2.54675e-41
2.54716e-41
2.54735e-41
2.54751e-41
2.54768e-41
2.54787e-41
2.54808e-41
2.5483e-41
2.54854e-41
2.5488e-41
2.54907e-41
2.54936e-41
2.54965e-41
2.54996e-41
2.55028e-41
2.5506e-41
2.55093e-41
2.55127e-41
2.55161e-41
2.55196e-41
2.5523e-41
2.55265e-41
2.55299e-41
2.55334e-41
2.55368e-41
2.55402e-41
2.55435e-41
2.55468e-41
2.555e-41
2.55532e-41
2.55562e-41
2.55591e-41
2.5562e-41
2.55647e-41
2.55672e-41
2.55697e-41
2.55719e-41
2.5574e-41
2.5576e-41
2.55777e-41
2.55793e-41
2.55806e-41
2.55818e-41
2.55827e-41
2.55833e-41
2.55838e-41
2.55839e-41
2.55839e-41
2.55835e-41
2.55828e-41
2.55819e-41
2.55806e-41
2.55791e-41
2.55772e-41
2.5575e-41
2.55725e-41
2.55696e-41
2.55663e-41
2.55627e-41
2.55587e-41
2.55543e-41
2.55496e-41
2.55444e-41
2.55389e-41
2.55329e-41
2.55266e-41
2.55198e-41
2.55126e-41
2.55049e-41
2.54969e-41
2.54884e-41
2.54795e-41
2.54701e-41
2.54603e-41
2.54501e-41
2.54395e-41
2.54284e-41
2.54169e-41
2.5405e-41
2.53926e-41
2.53798e-41
2.53667e-41
2.53531e-41
2.53391e-41
2.53248e-41
2.53101e-41
2.5295e-41
2.52796e-41
2.52638e-41
2.52477e-41
2.52313e-41
2.52146e-41
2.51976e-41
2.51803e-41
2.51628e-41
2.5145e-41
2.5127e-41
2.51089e-41
2.50905e-41
2.50719e-41
2.50532e-41
2.50344e-41
2.50157e-41
2.49986e-41
2.49908e-41
2.50389e-41
2.54161e-41
2.77303e-41
4.1442e-41
1.22197e-40
5.97177e-40
3.38925e-39
1.9794e-38
1.16138e-37
6.81759e-37
4.00168e-36
2.3487e-35
1.37869e-34
8.09567e-34
4.7565e-33
2.79674e-32
1.64588e-31
9.69438e-31
5.71412e-30
)
;

boundaryField
{
    boundary
    {
        type            empty;
    }
    inlet
    {
        type            fixedValue;
        value           nonuniform 0();
    }
    outlet
    {
        type            zeroGradient;
    }
    procBoundary3to1
    {
        type            processor;
        value           uniform 4.02862e-29;
    }
    procBoundary3to2
    {
        type            processor;
        value           uniform 2.53957e-41;
    }
}


// ************************************************************************* //
