/*--------------------------------*- C++ -*----------------------------------*\
  =========                 |
  \\      /  F ield         | OpenFOAM: The Open Source CFD Toolbox
   \\    /   O peration     | Website:  https://openfoam.org
    \\  /    A nd           | Version:  7
     \\/     M anipulation  |
\*---------------------------------------------------------------------------*/
FoamFile
{
    version     2.0;
    format      ascii;
    class       volScalarField;
    location    "3e-05";
    object      H2O;
}
// * * * * * * * * * * * * * * * * * * * * * * * * * * * * * * * * * * * * * //

dimensions      [0 0 0 0 0 0 0];

internalField   nonuniform List<scalar> 
126
(
2.60777e-47
2.69452e-47
2.74576e-47
2.77416e-47
2.78945e-47
2.7975e-47
2.80182e-47
2.8044e-47
2.80626e-47
2.80785e-47
2.80935e-47
2.81082e-47
2.81229e-47
2.81376e-47
2.81524e-47
2.81672e-47
2.81821e-47
2.8197e-47
2.8212e-47
2.8227e-47
2.8242e-47
2.82571e-47
2.82721e-47
2.82872e-47
2.83023e-47
2.83174e-47
2.83325e-47
2.83476e-47
2.83626e-47
2.83776e-47
2.83926e-47
2.84076e-47
2.84225e-47
2.84373e-47
2.84521e-47
2.84668e-47
2.84814e-47
2.84959e-47
2.85103e-47
2.85246e-47
2.85388e-47
2.85528e-47
2.85667e-47
2.85804e-47
2.8594e-47
2.86074e-47
2.86206e-47
2.86336e-47
2.86464e-47
2.8659e-47
2.86713e-47
2.86834e-47
2.86952e-47
2.87068e-47
2.8718e-47
2.8729e-47
2.87397e-47
2.875e-47
2.87601e-47
2.87697e-47
2.8779e-47
2.8788e-47
2.87965e-47
2.88047e-47
2.88125e-47
2.88198e-47
2.88267e-47
2.88332e-47
2.88392e-47
2.88448e-47
2.88499e-47
2.88545e-47
2.88586e-47
2.88622e-47
2.88653e-47
2.88679e-47
2.887e-47
2.88715e-47
2.88725e-47
2.8873e-47
2.88729e-47
2.88722e-47
2.8871e-47
2.88692e-47
2.88669e-47
2.88639e-47
2.88604e-47
2.88564e-47
2.88517e-47
2.88465e-47
2.88407e-47
2.88343e-47
2.88274e-47
2.88198e-47
2.88117e-47
2.88031e-47
2.87938e-47
2.8784e-47
2.87736e-47
2.87627e-47
2.87512e-47
2.87392e-47
2.87266e-47
2.87135e-47
2.87e-47
2.86872e-47
2.86813e-47
2.87222e-47
2.90637e-47
3.13191e-47
4.57441e-47
1.37496e-46
7.20193e-46
4.41656e-45
2.78333e-44
1.75922e-43
1.11017e-42
6.98337e-42
4.37222e-41
2.72148e-40
1.68642e-39
1.05037e-38
6.7711e-38
4.80496e-37
4.05818e-36
4.1913e-35
)
;

boundaryField
{
    boundary
    {
        type            empty;
    }
    inlet
    {
        type            fixedValue;
        value           nonuniform 0();
    }
    outlet
    {
        type            zeroGradient;
    }
    procBoundary3to1
    {
        type            processor;
        value           uniform 1.06555e-33;
    }
    procBoundary3to2
    {
        type            processor;
        value           uniform 2.6954e-47;
    }
}


// ************************************************************************* //
