/*--------------------------------*- C++ -*----------------------------------*\
  =========                 |
  \\      /  F ield         | OpenFOAM: The Open Source CFD Toolbox
   \\    /   O peration     | Website:  https://openfoam.org
    \\  /    A nd           | Version:  7
     \\/     M anipulation  |
\*---------------------------------------------------------------------------*/
FoamFile
{
    version     2.0;
    format      ascii;
    class       volScalarField;
    location    "3e-05";
    object      H2O2;
}
// * * * * * * * * * * * * * * * * * * * * * * * * * * * * * * * * * * * * * //

dimensions      [0 0 0 0 0 0 0];

internalField   nonuniform List<scalar> 
126
(
5.34453e-52
5.5497e-52
5.65363e-52
5.70226e-52
5.72581e-52
5.73795e-52
5.74478e-52
5.74925e-52
5.75276e-52
5.75592e-52
5.75897e-52
5.76201e-52
5.76505e-52
5.76811e-52
5.77118e-52
5.77426e-52
5.77736e-52
5.78047e-52
5.7836e-52
5.78673e-52
5.78987e-52
5.79302e-52
5.79617e-52
5.79933e-52
5.80249e-52
5.80566e-52
5.80882e-52
5.81198e-52
5.81514e-52
5.8183e-52
5.82144e-52
5.82458e-52
5.82771e-52
5.83082e-52
5.83392e-52
5.83701e-52
5.84007e-52
5.84311e-52
5.84613e-52
5.84912e-52
5.85209e-52
5.85502e-52
5.85792e-52
5.86079e-52
5.86361e-52
5.8664e-52
5.86914e-52
5.87184e-52
5.87449e-52
5.87709e-52
5.87963e-52
5.88212e-52
5.88455e-52
5.88691e-52
5.88921e-52
5.89144e-52
5.8936e-52
5.89569e-52
5.8977e-52
5.89963e-52
5.90148e-52
5.90324e-52
5.90491e-52
5.9065e-52
5.90799e-52
5.90939e-52
5.91069e-52
5.91189e-52
5.91299e-52
5.91398e-52
5.91486e-52
5.91563e-52
5.9163e-52
5.91685e-52
5.91728e-52
5.9176e-52
5.9178e-52
5.91788e-52
5.91783e-52
5.91767e-52
5.91738e-52
5.91697e-52
5.91643e-52
5.91577e-52
5.91498e-52
5.91407e-52
5.91302e-52
5.91186e-52
5.91056e-52
5.90914e-52
5.9076e-52
5.90593e-52
5.90413e-52
5.90222e-52
5.90018e-52
5.89801e-52
5.89573e-52
5.89333e-52
5.89081e-52
5.88818e-52
5.88543e-52
5.88256e-52
5.87958e-52
5.87649e-52
5.8733e-52
5.87005e-52
5.86704e-52
5.86611e-52
5.87881e-52
5.97823e-52
6.62591e-52
1.07379e-51
3.67356e-51
2.00943e-50
1.23753e-49
7.7782e-49
4.9039e-48
3.09319e-47
1.95081e-46
1.2288e-45
7.71697e-45
4.8384e-44
3.08944e-43
2.17356e-42
1.99283e-41
2.64241e-40
)
;

boundaryField
{
    boundary
    {
        type            empty;
    }
    inlet
    {
        type            fixedValue;
        value           nonuniform 0();
    }
    outlet
    {
        type            zeroGradient;
    }
    procBoundary3to1
    {
        type            processor;
        value           uniform 1.0662e-38;
    }
    procBoundary3to2
    {
        type            processor;
        value           uniform 5.53989e-52;
    }
}


// ************************************************************************* //
