/*--------------------------------*- C++ -*----------------------------------*\
  =========                 |
  \\      /  F ield         | OpenFOAM: The Open Source CFD Toolbox
   \\    /   O peration     | Website:  https://openfoam.org
    \\  /    A nd           | Version:  7
     \\/     M anipulation  |
\*---------------------------------------------------------------------------*/
FoamFile
{
    version     2.0;
    format      ascii;
    class       volScalarField;
    location    "3e-05";
    object      HO2;
}
// * * * * * * * * * * * * * * * * * * * * * * * * * * * * * * * * * * * * * //

dimensions      [0 0 0 0 0 0 0];

internalField   nonuniform List<scalar> 
126
(
1.57495e-37
1.60956e-37
1.62772e-37
1.63633e-37
1.64044e-37
1.64252e-37
1.64369e-37
1.64448e-37
1.64511e-37
1.64569e-37
1.64625e-37
1.64681e-37
1.64737e-37
1.64794e-37
1.6485e-37
1.64907e-37
1.64965e-37
1.65022e-37
1.6508e-37
1.65138e-37
1.65196e-37
1.65254e-37
1.65312e-37
1.65371e-37
1.65429e-37
1.65487e-37
1.65545e-37
1.65604e-37
1.65662e-37
1.6572e-37
1.65777e-37
1.65835e-37
1.65892e-37
1.65949e-37
1.66005e-37
1.66061e-37
1.66117e-37
1.66172e-37
1.66227e-37
1.6628e-37
1.66334e-37
1.66386e-37
1.66438e-37
1.66489e-37
1.66539e-37
1.66588e-37
1.66637e-37
1.66684e-37
1.6673e-37
1.66775e-37
1.66819e-37
1.66861e-37
1.66902e-37
1.66942e-37
1.6698e-37
1.67017e-37
1.67052e-37
1.67086e-37
1.67118e-37
1.67148e-37
1.67177e-37
1.67204e-37
1.67229e-37
1.67251e-37
1.67272e-37
1.67291e-37
1.67308e-37
1.67323e-37
1.67335e-37
1.67345e-37
1.67353e-37
1.67359e-37
1.67362e-37
1.67363e-37
1.67361e-37
1.67357e-37
1.67351e-37
1.67342e-37
1.67331e-37
1.67317e-37
1.673e-37
1.67281e-37
1.6726e-37
1.67235e-37
1.67209e-37
1.67179e-37
1.67147e-37
1.67113e-37
1.67076e-37
1.67036e-37
1.66994e-37
1.6695e-37
1.66903e-37
1.66854e-37
1.66802e-37
1.66748e-37
1.66691e-37
1.66632e-37
1.66571e-37
1.66508e-37
1.66443e-37
1.66375e-37
1.66305e-37
1.66233e-37
1.6616e-37
1.66085e-37
1.6602e-37
1.66015e-37
1.66397e-37
1.69174e-37
1.86751e-37
2.95856e-37
9.71408e-37
5.15441e-36
3.10619e-35
1.91549e-34
1.18586e-33
7.3465e-33
4.54973e-32
2.81181e-31
1.72753e-30
1.04811e-29
6.22293e-29
3.58265e-28
1.99047e-27
1.07229e-26
)
;

boundaryField
{
    boundary
    {
        type            empty;
    }
    inlet
    {
        type            fixedValue;
        value           nonuniform 0();
    }
    outlet
    {
        type            zeroGradient;
    }
    procBoundary3to1
    {
        type            processor;
        value           uniform 6.49119e-26;
    }
    procBoundary3to2
    {
        type            processor;
        value           uniform 1.60797e-37;
    }
}


// ************************************************************************* //
