/*--------------------------------*- C++ -*----------------------------------*\
  =========                 |
  \\      /  F ield         | OpenFOAM: The Open Source CFD Toolbox
   \\    /   O peration     | Website:  https://openfoam.org
    \\  /    A nd           | Version:  7
     \\/     M anipulation  |
\*---------------------------------------------------------------------------*/
FoamFile
{
    version     2.0;
    format      ascii;
    class       volScalarField;
    location    "3e-05";
    object      O;
}
// * * * * * * * * * * * * * * * * * * * * * * * * * * * * * * * * * * * * * //

dimensions      [0 0 0 0 0 0 0];

internalField   nonuniform List<scalar> 
126
(
5.0244e-47
5.12964e-47
5.17679e-47
5.19977e-47
5.21315e-47
5.2215e-47
5.22681e-47
5.23042e-47
5.2332e-47
5.23562e-47
5.23792e-47
5.24018e-47
5.24244e-47
5.24471e-47
5.24699e-47
5.24928e-47
5.25158e-47
5.25389e-47
5.2562e-47
5.25853e-47
5.26086e-47
5.26319e-47
5.26553e-47
5.26787e-47
5.27021e-47
5.27254e-47
5.27488e-47
5.27721e-47
5.27954e-47
5.28185e-47
5.28416e-47
5.28646e-47
5.28875e-47
5.29102e-47
5.29328e-47
5.29552e-47
5.29774e-47
5.29994e-47
5.30211e-47
5.30426e-47
5.30638e-47
5.30847e-47
5.31053e-47
5.31255e-47
5.31454e-47
5.31648e-47
5.31839e-47
5.32025e-47
5.32207e-47
5.32384e-47
5.32556e-47
5.32722e-47
5.32883e-47
5.33039e-47
5.33188e-47
5.33331e-47
5.33467e-47
5.33597e-47
5.33719e-47
5.33835e-47
5.33943e-47
5.34043e-47
5.34136e-47
5.3422e-47
5.34296e-47
5.34364e-47
5.34423e-47
5.34472e-47
5.34513e-47
5.34545e-47
5.34567e-47
5.34579e-47
5.34581e-47
5.34574e-47
5.34557e-47
5.34529e-47
5.34491e-47
5.34443e-47
5.34384e-47
5.34315e-47
5.34235e-47
5.34145e-47
5.34044e-47
5.33932e-47
5.3381e-47
5.33677e-47
5.33533e-47
5.33379e-47
5.33215e-47
5.3304e-47
5.32854e-47
5.32659e-47
5.32453e-47
5.32237e-47
5.32011e-47
5.31776e-47
5.31531e-47
5.31276e-47
5.31012e-47
5.30739e-47
5.30457e-47
5.30166e-47
5.29866e-47
5.29559e-47
5.29249e-47
5.28973e-47
5.28948e-47
5.30568e-47
5.42665e-47
6.21315e-47
1.12246e-46
4.30434e-46
2.44818e-45
1.52271e-44
9.60038e-44
6.05029e-43
3.79717e-42
2.36688e-41
1.46105e-40
8.909e-40
5.36653e-39
3.21826e-38
1.97059e-37
1.30107e-36
9.9753e-36
9.21541e-35
)
;

boundaryField
{
    boundary
    {
        type            empty;
    }
    inlet
    {
        type            fixedValue;
        value           nonuniform 0();
    }
    outlet
    {
        type            zeroGradient;
    }
    procBoundary3to1
    {
        type            processor;
        value           uniform 2.06763e-33;
    }
    procBoundary3to2
    {
        type            processor;
        value           uniform 5.10218e-47;
    }
}


// ************************************************************************* //
