/*--------------------------------*- C++ -*----------------------------------*\
  =========                 |
  \\      /  F ield         | OpenFOAM: The Open Source CFD Toolbox
   \\    /   O peration     | Website:  https://openfoam.org
    \\  /    A nd           | Version:  7
     \\/     M anipulation  |
\*---------------------------------------------------------------------------*/
FoamFile
{
    version     2.0;
    format      ascii;
    class       volScalarField;
    location    "3e-05";
    object      OH;
}
// * * * * * * * * * * * * * * * * * * * * * * * * * * * * * * * * * * * * * //

dimensions      [0 0 0 0 0 0 0];

internalField   nonuniform List<scalar> 
126
(
2.85445e-47
2.89131e-47
2.90843e-47
2.91665e-47
2.9212e-47
2.92401e-47
2.92587e-47
2.92725e-47
2.92839e-47
2.92944e-47
2.93047e-47
2.93148e-47
2.9325e-47
2.93353e-47
2.93457e-47
2.93561e-47
2.93666e-47
2.93771e-47
2.93877e-47
2.93983e-47
2.9409e-47
2.94196e-47
2.94303e-47
2.94411e-47
2.94518e-47
2.94624e-47
2.94731e-47
2.94838e-47
2.94943e-47
2.95049e-47
2.95154e-47
2.95258e-47
2.95361e-47
2.95464e-47
2.95565e-47
2.95665e-47
2.95764e-47
2.95861e-47
2.95957e-47
2.96052e-47
2.96144e-47
2.96234e-47
2.96323e-47
2.96409e-47
2.96493e-47
2.96574e-47
2.96653e-47
2.96729e-47
2.96802e-47
2.96872e-47
2.96939e-47
2.97003e-47
2.97063e-47
2.9712e-47
2.97173e-47
2.97222e-47
2.97266e-47
2.97307e-47
2.97344e-47
2.97376e-47
2.97403e-47
2.97426e-47
2.97444e-47
2.97457e-47
2.97465e-47
2.97468e-47
2.97466e-47
2.97458e-47
2.97445e-47
2.97426e-47
2.97402e-47
2.97372e-47
2.97336e-47
2.97294e-47
2.97247e-47
2.97193e-47
2.97133e-47
2.97068e-47
2.96996e-47
2.96918e-47
2.96835e-47
2.96745e-47
2.96649e-47
2.96547e-47
2.96439e-47
2.96325e-47
2.96206e-47
2.9608e-47
2.95949e-47
2.95812e-47
2.9567e-47
2.95521e-47
2.95368e-47
2.95209e-47
2.95046e-47
2.94877e-47
2.94703e-47
2.94524e-47
2.94341e-47
2.94153e-47
2.93961e-47
2.93765e-47
2.93564e-47
2.9336e-47
2.93156e-47
2.92966e-47
2.92889e-47
2.93533e-47
2.98699e-47
3.32094e-47
5.41738e-47
1.85185e-46
1.00313e-45
6.10653e-45
3.79164e-44
2.35904e-43
1.46603e-42
9.10003e-42
5.65859e-41
3.55885e-40
2.31785e-39
1.63521e-38
1.32389e-37
1.26775e-36
1.39572e-35
1.66601e-34
)
;

boundaryField
{
    boundary
    {
        type            empty;
    }
    inlet
    {
        type            fixedValue;
        value           nonuniform 0();
    }
    outlet
    {
        type            zeroGradient;
    }
    procBoundary3to1
    {
        type            processor;
        value           uniform 4.24451e-33;
    }
    procBoundary3to2
    {
        type            processor;
        value           uniform 2.88097e-47;
    }
}


// ************************************************************************* //
