/*--------------------------------*- C++ -*----------------------------------*\
  =========                 |
  \\      /  F ield         | OpenFOAM: The Open Source CFD Toolbox
   \\    /   O peration     | Website:  https://openfoam.org
    \\  /    A nd           | Version:  7
     \\/     M anipulation  |
\*---------------------------------------------------------------------------*/
FoamFile
{
    version     2.0;
    format      ascii;
    class       volScalarField;
    location    "3e-05";
    object      p;
}
// * * * * * * * * * * * * * * * * * * * * * * * * * * * * * * * * * * * * * //

dimensions      [1 -1 -2 0 0 0 0];

internalField   nonuniform List<scalar> 
126
(
102093
102091
102090
102088
102087
102085
102084
102082
102081
102079
102078
102077
102075
102074
102072
102071
102070
102068
102067
102066
102064
102063
102062
102061
102059
102058
102057
102056
102055
102053
102052
102051
102050
102049
102048
102047
102046
102045
102044
102043
102042
102041
102040
102040
102039
102038
102037
102036
102036
102035
102034
102033
102033
102032
102031
102031
102030
102030
102029
102029
102028
102028
102027
102027
102026
102026
102026
102025
102025
102025
102024
102024
102024
102023
102023
102023
102023
102023
102022
102022
102022
102022
102022
102022
102022
102022
102022
102021
102021
102021
102021
102021
102022
102022
102022
102022
102022
102022
102022
102022
102022
102022
102023
102023
102023
102023
102023
102024
102024
102024
102024
102025
102025
102025
102025
102026
102026
102026
102027
102027
102028
102028
102028
102029
102029
102030
)
;

boundaryField
{
    boundary
    {
        type            empty;
    }
    inlet
    {
        type            zeroGradient;
    }
    outlet
    {
        type            waveTransmissive;
        gamma           1.4;
        value           nonuniform 0();
    }
    procBoundary3to1
    {
        type            processor;
        value           uniform 102030;
    }
    procBoundary3to2
    {
        type            processor;
        value           uniform 102094;
    }
}


// ************************************************************************* //
