/*--------------------------------*- C++ -*----------------------------------*\
  =========                 |
  \\      /  F ield         | OpenFOAM: The Open Source CFD Toolbox
   \\    /   O peration     | Website:  https://openfoam.org
    \\  /    A nd           | Version:  7
     \\/     M anipulation  |
\*---------------------------------------------------------------------------*/
FoamFile
{
    version     2.0;
    format      ascii;
    class       surfaceScalarField;
    location    "3e-05";
    object      phi;
}
// * * * * * * * * * * * * * * * * * * * * * * * * * * * * * * * * * * * * * //

dimensions      [1 0 -1 0 0 0 0];

internalField   nonuniform List<scalar> 
125
(
3.994e-06
3.95528e-06
3.91684e-06
3.87868e-06
3.8408e-06
3.80321e-06
3.76591e-06
3.72889e-06
3.69217e-06
3.65575e-06
3.61962e-06
3.58379e-06
3.54825e-06
3.51302e-06
3.47809e-06
3.44346e-06
3.40913e-06
3.3751e-06
3.34137e-06
3.30795e-06
3.27483e-06
3.24201e-06
3.20949e-06
3.17727e-06
3.14534e-06
3.11372e-06
3.0824e-06
3.05137e-06
3.02064e-06
2.99021e-06
2.96007e-06
2.93023e-06
2.90067e-06
2.87141e-06
2.84244e-06
2.81376e-06
2.78537e-06
2.75726e-06
2.72945e-06
2.70191e-06
2.67466e-06
2.6477e-06
2.62101e-06
2.59461e-06
2.56848e-06
2.54263e-06
2.51706e-06
2.49176e-06
2.46674e-06
2.44199e-06
2.41752e-06
2.39331e-06
2.36937e-06
2.3457e-06
2.32229e-06
2.29915e-06
2.27627e-06
2.25365e-06
2.23129e-06
2.20919e-06
2.18735e-06
2.16576e-06
2.14442e-06
2.12333e-06
2.10249e-06
2.0819e-06
2.06155e-06
2.04144e-06
2.02158e-06
2.00195e-06
1.98256e-06
1.96341e-06
1.94448e-06
1.92579e-06
1.90732e-06
1.88908e-06
1.87106e-06
1.85326e-06
1.83568e-06
1.81831e-06
1.80116e-06
1.78421e-06
1.76747e-06
1.75094e-06
1.7346e-06
1.71847e-06
1.70253e-06
1.68679e-06
1.67123e-06
1.65586e-06
1.64068e-06
1.62568e-06
1.61086e-06
1.59621e-06
1.58173e-06
1.56742e-06
1.55328e-06
1.5393e-06
1.52548e-06
1.51182e-06
1.4983e-06
1.48494e-06
1.47172e-06
1.45865e-06
1.44571e-06
1.4329e-06
1.42023e-06
1.40769e-06
1.39527e-06
1.38297e-06
1.37079e-06
1.35872e-06
1.34676e-06
1.3349e-06
1.32315e-06
1.3115e-06
1.29994e-06
1.28848e-06
1.2771e-06
1.26581e-06
1.25461e-06
1.24348e-06
1.23243e-06
1.22145e-06
1.21054e-06
)
;

boundaryField
{
    boundary
    {
        type            empty;
        value           nonuniform 0();
    }
    inlet
    {
        type            calculated;
        value           nonuniform 0();
    }
    outlet
    {
        type            calculated;
        value           nonuniform 0();
    }
    procBoundary3to1
    {
        type            processor;
        value           uniform 1.19971e-06;
    }
    procBoundary3to2
    {
        type            processor;
        value           uniform -4.033e-06;
    }
}


// ************************************************************************* //
