/*--------------------------------*- C++ -*----------------------------------*\
  =========                 |
  \\      /  F ield         | OpenFOAM: The Open Source CFD Toolbox
   \\    /   O peration     | Website:  https://openfoam.org
    \\  /    A nd           | Version:  7
     \\/     M anipulation  |
\*---------------------------------------------------------------------------*/
FoamFile
{
    version     2.0;
    format      ascii;
    class       volScalarField;
    location    "3e-05";
    object      Qdot;
}
// * * * * * * * * * * * * * * * * * * * * * * * * * * * * * * * * * * * * * //

dimensions      [1 -1 -3 0 0 0 0];

internalField   nonuniform List<scalar> 
126
(
-1.99855e-27
-1.99453e-27
-1.99358e-27
-1.99324e-27
-1.99302e-27
-1.99282e-27
-1.99262e-27
-1.99241e-27
-1.9922e-27
-1.99198e-27
-1.99176e-27
-1.99153e-27
-1.99129e-27
-1.99105e-27
-1.9908e-27
-1.99054e-27
-1.99027e-27
-1.99e-27
-1.98972e-27
-1.98943e-27
-1.98914e-27
-1.98884e-27
-1.98853e-27
-1.98821e-27
-1.98788e-27
-1.98755e-27
-1.98721e-27
-1.98687e-27
-1.98651e-27
-1.98615e-27
-1.98579e-27
-1.98541e-27
-1.98503e-27
-1.98464e-27
-1.98425e-27
-1.98384e-27
-1.98343e-27
-1.98302e-27
-1.98259e-27
-1.98216e-27
-1.98172e-27
-1.98128e-27
-1.98082e-27
-1.98036e-27
-1.97989e-27
-1.9794e-27
-1.97891e-27
-1.97841e-27
-1.9779e-27
-1.97738e-27
-1.97685e-27
-1.9763e-27
-1.97575e-27
-1.97518e-27
-1.97459e-27
-1.97399e-27
-1.97338e-27
-1.97275e-27
-1.97211e-27
-1.97145e-27
-1.97077e-27
-1.97007e-27
-1.96935e-27
-1.96862e-27
-1.96786e-27
-1.96709e-27
-1.96629e-27
-1.96547e-27
-1.96462e-27
-1.96376e-27
-1.96287e-27
-1.96195e-27
-1.96102e-27
-1.96005e-27
-1.95907e-27
-1.95805e-27
-1.95701e-27
-1.95595e-27
-1.95486e-27
-1.95374e-27
-1.9526e-27
-1.95144e-27
-1.95025e-27
-1.94903e-27
-1.94779e-27
-1.94652e-27
-1.94524e-27
-1.94393e-27
-1.94259e-27
-1.94124e-27
-1.93986e-27
-1.93847e-27
-1.93705e-27
-1.93562e-27
-1.93417e-27
-1.93271e-27
-1.93122e-27
-1.92973e-27
-1.92822e-27
-1.9267e-27
-1.92517e-27
-1.92363e-27
-1.92208e-27
-1.92051e-27
-1.91892e-27
-1.91721e-27
-1.9148e-27
-1.90836e-27
-1.87822e-27
-1.70864e-27
-7.18155e-28
5.10675e-27
3.94007e-26
2.41285e-25
1.42914e-24
8.41312e-24
4.94383e-23
2.90194e-22
1.70172e-21
9.97048e-21
5.83814e-20
3.41761e-19
2.00118e-18
1.17284e-17
6.88475e-17
4.05026e-16
)
;

boundaryField
{
    boundary
    {
        type            empty;
    }
    inlet
    {
        type            calculated;
        value           nonuniform 0();
    }
    outlet
    {
        type            calculated;
        value           nonuniform 0();
    }
    procBoundary3to1
    {
        type            processor;
        value           uniform 0;
    }
    procBoundary3to2
    {
        type            processor;
        value           uniform 0;
    }
}


// ************************************************************************* //
