/*--------------------------------*- C++ -*----------------------------------*\
  =========                 |
  \\      /  F ield         | OpenFOAM: The Open Source CFD Toolbox
   \\    /   O peration     | Website:  https://openfoam.org
    \\  /    A nd           | Version:  7
     \\/     M anipulation  |
\*---------------------------------------------------------------------------*/
FoamFile
{
    version     2.0;
    format      ascii;
    class       volScalarField;
    location    "3e-05";
    object      T;
}
// * * * * * * * * * * * * * * * * * * * * * * * * * * * * * * * * * * * * * //

dimensions      [0 0 0 1 0 0 0];

internalField   nonuniform List<scalar> 
126
(
300.587
300.587
300.586
300.586
300.585
300.585
300.584
300.584
300.583
300.583
300.582
300.582
300.581
300.581
300.58
300.58
300.58
300.579
300.579
300.578
300.578
300.577
300.577
300.577
300.576
300.576
300.575
300.575
300.575
300.574
300.574
300.573
300.573
300.572
300.572
300.572
300.571
300.571
300.57
300.57
300.569
300.569
300.568
300.568
300.567
300.566
300.566
300.565
300.565
300.564
300.563
300.563
300.562
300.561
300.56
300.559
300.559
300.558
300.557
300.556
300.555
300.554
300.553
300.552
300.55
300.549
300.548
300.547
300.545
300.544
300.543
300.541
300.54
300.538
300.536
300.535
300.533
300.531
300.529
300.528
300.526
300.524
300.522
300.52
300.518
300.516
300.513
300.511
300.509
300.507
300.504
300.502
300.499
300.497
300.495
300.492
300.489
300.487
300.484
300.482
300.479
300.476
300.474
300.471
300.468
300.466
300.463
300.46
300.457
300.455
300.452
300.449
300.446
300.443
300.441
300.438
300.435
300.432
300.429
300.427
300.424
300.421
300.418
300.415
300.412
300.409
)
;

boundaryField
{
    boundary
    {
        type            empty;
    }
    inlet
    {
        type            fixedValue;
        value           nonuniform 0();
    }
    outlet
    {
        type            zeroGradient;
    }
    procBoundary3to1
    {
        type            processor;
        value           uniform 300.405;
    }
    procBoundary3to2
    {
        type            processor;
        value           uniform 300.588;
    }
}


// ************************************************************************* //
