/*--------------------------------*- C++ -*----------------------------------*\
  =========                 |
  \\      /  F ield         | OpenFOAM: The Open Source CFD Toolbox
   \\    /   O peration     | Website:  https://openfoam.org
    \\  /    A nd           | Version:  7
     \\/     M anipulation  |
\*---------------------------------------------------------------------------*/
FoamFile
{
    version     2.0;
    format      ascii;
    class       volVectorField;
    location    "3e-05";
    object      U;
}
// * * * * * * * * * * * * * * * * * * * * * * * * * * * * * * * * * * * * * //

dimensions      [0 1 -1 0 0 0 0];

internalField   nonuniform List<vector> 
126
(
(1.37688 0 0)
(1.3636 0 0)
(1.35029 0 0)
(1.33716 0 0)
(1.32418 0 0)
(1.31125 0 0)
(1.29841 0 0)
(1.28568 0 0)
(1.27305 0 0)
(1.26053 0 0)
(1.24807 0 0)
(1.23578 0 0)
(1.22351 0 0)
(1.21141 0 0)
(1.19938 0 0)
(1.18746 0 0)
(1.17564 0 0)
(1.16393 0 0)
(1.15232 0 0)
(1.14081 0 0)
(1.12941 0 0)
(1.11811 0 0)
(1.10691 0 0)
(1.09582 0 0)
(1.08481 0 0)
(1.07394 0 0)
(1.06313 0 0)
(1.05245 0 0)
(1.04187 0 0)
(1.03143 0 0)
(1.02101 0 0)
(1.01069 0 0)
(1.00053 0 0)
(0.990457 0 0)
(0.980472 0 0)
(0.970587 0 0)
(0.960802 0 0)
(0.951115 0 0)
(0.941526 0 0)
(0.932037 0 0)
(0.922631 0 0)
(0.913354 0 0)
(0.904134 0 0)
(0.895018 0 0)
(0.886047 0 0)
(0.877149 0 0)
(0.868344 0 0)
(0.859532 0 0)
(0.850925 0 0)
(0.842414 0 0)
(0.833967 0 0)
(0.825614 0 0)
(0.817355 0 0)
(0.809188 0 0)
(0.801112 0 0)
(0.793125 0 0)
(0.785232 0 0)
(0.77741 0 0)
(0.769733 0 0)
(0.762057 0 0)
(0.75451 0 0)
(0.74715 0 0)
(0.739734 0 0)
(0.732404 0 0)
(0.725235 0 0)
(0.718137 0 0)
(0.711109 0 0)
(0.704165 0 0)
(0.697305 0 0)
(0.690527 0 0)
(0.68383 0 0)
(0.677213 0 0)
(0.670679 0 0)
(0.664208 0 0)
(0.657867 0 0)
(0.651482 0 0)
(0.645352 0 0)
(0.639175 0 0)
(0.633077 0 0)
(0.627087 0 0)
(0.62116 0 0)
(0.615305 0 0)
(0.60952 0 0)
(0.603807 0 0)
(0.598162 0 0)
(0.592586 0 0)
(0.587078 0 0)
(0.581639 0 0)
(0.576265 0 0)
(0.570923 0 0)
(0.56575 0 0)
(0.560505 0 0)
(0.555372 0 0)
(0.550332 0 0)
(0.545328 0 0)
(0.540381 0 0)
(0.535493 0 0)
(0.530661 0 0)
(0.525884 0 0)
(0.521161 0 0)
(0.516491 0 0)
(0.511875 0 0)
(0.507312 0 0)
(0.502744 0 0)
(0.498387 0 0)
(0.493869 0 0)
(0.489485 0 0)
(0.485184 0 0)
(0.48089 0 0)
(0.476636 0 0)
(0.472428 0 0)
(0.468259 0 0)
(0.464128 0 0)
(0.460034 0 0)
(0.455979 0 0)
(0.451974 0 0)
(0.447927 0 0)
(0.444038 0 0)
(0.440145 0 0)
(0.436104 0 0)
(0.432268 0 0)
(0.428482 0 0)
(0.424661 0 0)
(0.42086 0 0)
(0.417086 0 0)
(0.413285 0 0)
)
;

boundaryField
{
    boundary
    {
        type            empty;
    }
    inlet
    {
        type            fixedValue;
        value           nonuniform 0();
    }
    outlet
    {
        type            zeroGradient;
    }
    procBoundary3to1
    {
        type            processor;
        value           uniform (0.409593 0 0);
    }
    procBoundary3to2
    {
        type            processor;
        value           uniform (1.39023 0 0);
    }
}


// ************************************************************************* //
