/*--------------------------------*- C++ -*----------------------------------*\
  =========                 |
  \\      /  F ield         | OpenFOAM: The Open Source CFD Toolbox
   \\    /   O peration     | Website:  https://openfoam.org
    \\  /    A nd           | Version:  7
     \\/     M anipulation  |
\*---------------------------------------------------------------------------*/
FoamFile
{
    version     2.0;
    format      ascii;
    class       volScalarField;
    location    "0.00025";
    object      H2O;
}
// * * * * * * * * * * * * * * * * * * * * * * * * * * * * * * * * * * * * * //

dimensions      [0 0 0 0 0 0 0];

internalField   nonuniform List<scalar> 
126
(
6.71679e-46
6.71562e-46
6.71369e-46
6.7111e-46
6.70802e-46
6.70464e-46
6.70112e-46
6.69757e-46
6.69419e-46
6.6912e-46
6.68886e-46
6.68738e-46
6.68693e-46
6.68755e-46
6.68916e-46
6.69159e-46
6.69462e-46
6.698e-46
6.70151e-46
6.70494e-46
6.70816e-46
6.71105e-46
6.71359e-46
6.71576e-46
6.71758e-46
6.71909e-46
6.72032e-46
6.72134e-46
6.72218e-46
6.72288e-46
6.72347e-46
6.72398e-46
6.72442e-46
6.72481e-46
6.72515e-46
6.72546e-46
6.72572e-46
6.72596e-46
6.72615e-46
6.72631e-46
6.72643e-46
6.72652e-46
6.72656e-46
6.72655e-46
6.7265e-46
6.72641e-46
6.72626e-46
6.72605e-46
6.7258e-46
6.72548e-46
6.7251e-46
6.72465e-46
6.72414e-46
6.72356e-46
6.72291e-46
6.72218e-46
6.72137e-46
6.72048e-46
6.7195e-46
6.71844e-46
6.71729e-46
6.71604e-46
6.71469e-46
6.71325e-46
6.7117e-46
6.71004e-46
6.70828e-46
6.7064e-46
6.70441e-46
6.7023e-46
6.70007e-46
6.69772e-46
6.69524e-46
6.69263e-46
6.6899e-46
6.68702e-46
6.68402e-46
6.68087e-46
6.67758e-46
6.67416e-46
6.67059e-46
6.66687e-46
6.66301e-46
6.65901e-46
6.65485e-46
6.65055e-46
6.64609e-46
6.6415e-46
6.63682e-46
6.6324e-46
6.63055e-46
6.64655e-46
6.78024e-46
7.67992e-46
1.35235e-45
5.10545e-45
2.90412e-44
1.80826e-43
1.13882e-42
7.16354e-42
4.49631e-41
2.81892e-40
1.76769e-39
1.11034e-38
6.99525e-38
4.42512e-37
2.81276e-36
1.79694e-35
1.15348e-34
7.43418e-34
4.8048e-33
3.10939e-32
2.01131e-31
1.29805e-30
8.34279e-30
5.33027e-29
3.37949e-28
2.1228e-27
1.31906e-26
8.09704e-26
4.90434e-25
2.92818e-24
1.72198e-23
9.96789e-23
5.67676e-22
3.17933e-21
)
;

boundaryField
{
    boundary
    {
        type            empty;
    }
    inlet
    {
        type            fixedValue;
        value           nonuniform 0();
    }
    outlet
    {
        type            zeroGradient;
    }
    procBoundary3to1
    {
        type            processor;
        value           uniform 1.7365e-20;
    }
    procBoundary3to2
    {
        type            processor;
        value           uniform 6.7109e-46;
    }
}


// ************************************************************************* //
