/*--------------------------------*- C++ -*----------------------------------*\
  =========                 |
  \\      /  F ield         | OpenFOAM: The Open Source CFD Toolbox
   \\    /   O peration     | Website:  https://openfoam.org
    \\  /    A nd           | Version:  7
     \\/     M anipulation  |
\*---------------------------------------------------------------------------*/
FoamFile
{
    version     2.0;
    format      ascii;
    class       volScalarField;
    location    "0.00079";
    object      H;
}
// * * * * * * * * * * * * * * * * * * * * * * * * * * * * * * * * * * * * * //

dimensions      [0 0 0 0 0 0 0];

internalField   nonuniform List<scalar> 
500
(
1.48624e-41
2.01369e-41
2.12767e-41
2.1522e-41
2.1571e-41
2.15741e-41
2.15635e-41
2.15465e-41
2.15249e-41
2.14996e-41
2.14714e-41
2.14411e-41
2.141e-41
2.1379e-41
2.13494e-41
2.13221e-41
2.12981e-41
2.12783e-41
2.12633e-41
2.12534e-41
2.12489e-41
2.125e-41
2.12567e-41
2.12689e-41
2.12867e-41
2.13098e-41
2.13385e-41
2.13728e-41
2.14129e-41
2.14593e-41
2.15126e-41
2.15735e-41
2.16427e-41
2.17215e-41
2.18108e-41
2.19119e-41
2.20262e-41
2.2155e-41
2.22998e-41
2.24619e-41
2.26426e-41
2.28431e-41
2.30645e-41
2.33077e-41
2.35733e-41
2.38616e-41
2.41727e-41
2.45062e-41
2.48614e-41
2.52372e-41
2.56322e-41
2.60442e-41
2.64712e-41
2.69102e-41
2.73585e-41
2.78126e-41
2.82692e-41
2.87248e-41
2.91756e-41
2.96183e-41
3.00495e-41
3.0466e-41
3.08652e-41
3.12445e-41
3.16021e-41
3.19364e-41
3.22463e-41
3.25314e-41
3.27915e-41
3.30268e-41
3.32381e-41
3.34262e-41
3.35925e-41
3.37382e-41
3.38651e-41
3.39746e-41
3.40685e-41
3.41483e-41
3.42158e-41
3.42724e-41
3.43195e-41
3.43584e-41
3.43904e-41
3.44165e-41
3.44377e-41
3.44547e-41
3.44683e-41
3.44792e-41
3.44877e-41
3.44945e-41
3.44998e-41
3.45039e-41
3.45072e-41
3.45097e-41
3.45116e-41
3.45132e-41
3.45144e-41
3.45154e-41
3.45162e-41
3.45168e-41
3.45174e-41
3.45179e-41
3.45184e-41
3.45188e-41
3.45193e-41
3.45197e-41
3.45201e-41
3.45205e-41
3.4521e-41
3.45215e-41
3.45219e-41
3.45224e-41
3.45229e-41
3.45235e-41
3.4524e-41
3.45246e-41
3.45252e-41
3.45259e-41
3.45265e-41
3.45272e-41
3.4528e-41
3.45287e-41
3.45295e-41
3.45302e-41
3.45307e-41
3.45312e-41
3.45326e-41
3.45343e-41
3.45362e-41
3.45382e-41
3.45403e-41
3.45424e-41
3.45444e-41
3.45464e-41
3.45482e-41
3.45499e-41
3.45514e-41
3.45527e-41
3.45539e-41
3.45549e-41
3.45558e-41
3.45565e-41
3.45573e-41
3.4558e-41
3.45587e-41
3.45596e-41
3.45605e-41
3.45615e-41
3.45627e-41
3.4564e-41
3.45654e-41
3.45669e-41
3.45686e-41
3.45704e-41
3.45722e-41
3.45741e-41
3.45761e-41
3.45781e-41
3.45802e-41
3.45823e-41
3.45844e-41
3.45865e-41
3.45886e-41
3.45908e-41
3.45929e-41
3.45951e-41
3.45973e-41
3.45996e-41
3.46018e-41
3.46041e-41
3.46064e-41
3.46087e-41
3.4611e-41
3.46134e-41
3.46157e-41
3.46181e-41
3.46206e-41
3.4623e-41
3.46254e-41
3.46279e-41
3.46304e-41
3.46328e-41
3.46353e-41
3.46377e-41
3.46401e-41
3.46425e-41
3.46449e-41
3.46472e-41
3.46495e-41
3.46517e-41
3.46539e-41
3.4656e-41
3.4658e-41
3.46599e-41
3.46617e-41
3.46635e-41
3.46651e-41
3.46666e-41
3.4668e-41
3.46692e-41
3.46703e-41
3.46713e-41
3.46721e-41
3.46727e-41
3.46732e-41
3.46735e-41
3.46737e-41
3.46737e-41
3.4674e-41
3.46753e-41
3.46808e-41
3.47006e-41
3.47683e-41
3.49941e-41
3.57384e-41
3.8174e-41
4.61005e-41
7.17776e-41
1.546e-40
4.20674e-40
1.27219e-39
3.9874e-39
1.26155e-38
3.99439e-38
1.26238e-37
3.97942e-37
1.25114e-36
3.92368e-36
1.22759e-35
3.83235e-35
1.19401e-34
3.71334e-34
1.15296e-33
3.57464e-33
1.10688e-32
3.42377e-32
1.05809e-31
3.26778e-31
1.00878e-30
3.11373e-30
9.61313e-30
2.97001e-29
9.18848e-29
2.84916e-28
8.8661e-28
2.77376e-27
8.74592e-27
2.78872e-26
9.0317e-26
2.98691e-25
1.01452e-24
3.57261e-24
1.30152e-23
4.92358e-23
1.93463e-22
7.87152e-22
3.29978e-21
1.41723e-20
6.20399e-20
2.75667e-19
1.23985e-18
5.63676e-18
2.59085e-17
1.2061e-16
5.70709e-16
2.76009e-15
1.37418e-14
7.10095e-14
3.83695e-13
2.34734e-12
1.73335e-11
1.66063e-10
1.55969e-09
1.45929e-08
1.34872e-07
1.17313e-06
8.73661e-06
4.81652e-05
0.000168521
0.000386763
0.000687547
0.00104268
0.00139468
0.00167393
0.00184543
0.00191988
0.00191985
0.00187733
0.00181267
0.00173871
0.00166286
0.00158909
0.00151929
0.00145423
0.00139403
0.0013385
0.0012873
0.00124006
0.00119638
0.0011559
0.0011183
0.00108328
0.00105058
0.00101998
0.000991276
0.000964287
0.000938862
0.000914862
0.000892169
0.000870676
0.000850286
0.000830916
0.000813029
0.000796355
0.000780342
0.000764953
0.000750149
0.000735898
0.000722168
0.000708929
0.000696155
0.000683821
0.000671903
0.000660381
0.000649233
0.000638442
0.000627989
0.000617859
0.000608037
0.000598507
0.000589258
0.000580276
0.000571549
0.000563066
0.000554818
0.000546794
0.000538984
0.000531381
0.000523976
0.000516761
0.000509729
0.000502872
0.000496184
0.000489659
0.000483291
0.000477074
0.000471002
0.000465071
0.000459275
0.00045361
0.000448072
0.000442656
0.000437358
0.000432174
0.000427101
0.000422134
0.000417272
0.00041251
0.000407845
0.000403275
0.000398796
0.000394406
0.000390102
0.000385882
0.000381744
0.000377685
0.000373702
0.000369795
0.000365961
0.000362199
0.000358505
0.00035488
0.000351321
0.000347827
0.000344397
0.000341028
0.000337714
0.000334447
0.000331235
0.000328076
0.00032497
0.000321916
0.000318911
0.000315955
0.000313047
0.000310186
0.000307371
0.000304599
0.000301872
0.000299187
0.000296543
0.00029394
0.000291377
0.000288852
0.000286366
0.000283916
0.000281503
0.000279125
0.000276782
0.000274473
0.000272198
0.000269955
0.000267744
0.000265565
0.000263416
0.000261297
0.000259208
0.000257148
0.000255116
0.000253111
0.000251135
0.000249185
0.000247261
0.000245363
0.00024349
0.000241642
0.000239819
0.000238019
0.000236244
0.000234491
0.000232761
0.000231053
0.000229368
0.000227704
0.000226061
0.000224439
0.000222837
0.000221256
0.000219695
0.000218153
0.000216631
0.000215128
0.000213643
0.000212177
0.000210728
0.000209298
0.000207885
0.00020649
0.000205112
0.00020375
0.000202406
0.000201077
0.000199765
0.000198469
0.000197189
0.000195924
0.000194674
0.00019344
0.000192221
0.000191017
0.000189827
0.000188652
0.000187491
0.000186345
0.000185213
0.000184094
0.00018299
0.000181899
0.000180822
0.000179759
0.000178709
0.000177672
0.000176649
0.000175638
0.000174641
0.000173657
0.000172686
0.000171728
0.000170782
0.00016985
0.00016893
0.000168023
0.000167128
0.000166246
0.000165377
0.00016452
0.000163675
0.000162843
0.000162024
0.000161217
0.000160422
0.000159639
0.000158869
0.000158111
0.000157366
0.000156633
0.000155912
0.000155204
0.00015451
0.000153828
0.000153159
0.000152504
0.000151857
0.000151195
0.00015053
0.000149966
0.000149451
0.000149004
0.000148655
0.00014845
)
;

boundaryField
{
    boundary
    {
        type            empty;
    }
    inlet
    {
        type            fixedValue;
        value           uniform 0;
    }
    outlet
    {
        type            zeroGradient;
    }
}


// ************************************************************************* //
