/*--------------------------------*- C++ -*----------------------------------*\
  =========                 |
  \\      /  F ield         | OpenFOAM: The Open Source CFD Toolbox
   \\    /   O peration     | Website:  https://openfoam.org
    \\  /    A nd           | Version:  7
     \\/     M anipulation  |
\*---------------------------------------------------------------------------*/
FoamFile
{
    version     2.0;
    format      ascii;
    class       volScalarField;
    location    "0.00079";
    object      H2;
}
// * * * * * * * * * * * * * * * * * * * * * * * * * * * * * * * * * * * * * //

dimensions      [0 0 0 0 0 0 0];

internalField   nonuniform List<scalar> 
500
(
0.0285116
0.0285116
0.0285116
0.0285116
0.0285116
0.0285116
0.0285116
0.0285116
0.0285116
0.0285116
0.0285116
0.0285116
0.0285116
0.0285116
0.0285116
0.0285116
0.0285116
0.0285116
0.0285116
0.0285116
0.0285116
0.0285116
0.0285116
0.0285116
0.0285116
0.0285116
0.0285116
0.0285116
0.0285116
0.0285116
0.0285116
0.0285116
0.0285116
0.0285116
0.0285116
0.0285116
0.0285116
0.0285116
0.0285116
0.0285116
0.0285116
0.0285116
0.0285116
0.0285116
0.0285116
0.0285116
0.0285116
0.0285116
0.0285116
0.0285116
0.0285116
0.0285116
0.0285116
0.0285116
0.0285116
0.0285116
0.0285116
0.0285116
0.0285116
0.0285116
0.0285116
0.0285116
0.0285116
0.0285116
0.0285116
0.0285116
0.0285116
0.0285116
0.0285116
0.0285116
0.0285116
0.0285116
0.0285116
0.0285116
0.0285116
0.0285116
0.0285116
0.0285116
0.0285116
0.0285116
0.0285116
0.0285116
0.0285116
0.0285116
0.0285116
0.0285116
0.0285116
0.0285116
0.0285116
0.0285116
0.0285116
0.0285116
0.0285116
0.0285116
0.0285116
0.0285116
0.0285116
0.0285116
0.0285116
0.0285116
0.0285116
0.0285116
0.0285116
0.0285116
0.0285116
0.0285116
0.0285116
0.0285116
0.0285116
0.0285116
0.0285116
0.0285116
0.0285116
0.0285116
0.0285116
0.0285116
0.0285116
0.0285116
0.0285116
0.0285116
0.0285116
0.0285116
0.0285116
0.0285116
0.0285116
0.0285116
0.0285116
0.0285116
0.0285116
0.0285116
0.0285116
0.0285116
0.0285116
0.0285116
0.0285116
0.0285116
0.0285116
0.0285116
0.0285116
0.0285116
0.0285116
0.0285116
0.0285116
0.0285116
0.0285116
0.0285116
0.0285116
0.0285116
0.0285116
0.0285116
0.0285116
0.0285116
0.0285116
0.0285116
0.0285116
0.0285116
0.0285116
0.0285116
0.0285116
0.0285116
0.0285116
0.0285116
0.0285116
0.0285116
0.0285116
0.0285116
0.0285116
0.0285116
0.0285116
0.0285116
0.0285116
0.0285116
0.0285116
0.0285116
0.0285116
0.0285116
0.0285116
0.0285116
0.0285116
0.0285116
0.0285116
0.0285116
0.0285116
0.0285116
0.0285116
0.0285116
0.0285116
0.0285116
0.0285116
0.0285116
0.0285116
0.0285116
0.0285116
0.0285116
0.0285116
0.0285116
0.0285116
0.0285116
0.0285116
0.0285116
0.0285116
0.0285116
0.0285116
0.0285116
0.0285116
0.0285116
0.0285116
0.0285116
0.0285116
0.0285116
0.0285116
0.0285116
0.0285116
0.0285116
0.0285116
0.0285116
0.0285116
0.0285116
0.0285116
0.0285116
0.0285116
0.0285116
0.0285116
0.0285116
0.0285116
0.0285116
0.0285116
0.0285116
0.0285116
0.0285116
0.0285116
0.0285116
0.0285116
0.0285116
0.0285116
0.0285116
0.0285116
0.0285116
0.0285116
0.0285116
0.0285116
0.0285116
0.0285116
0.0285116
0.0285116
0.0285116
0.0285116
0.0285116
0.0285116
0.0285116
0.0285116
0.0285116
0.0285116
0.0285116
0.0285116
0.0285116
0.0285116
0.0285116
0.0285116
0.0285116
0.0285116
0.0285115
0.0285115
0.0285114
0.0285112
0.0285108
0.02851
0.0285084
0.0285049
0.0284977
0.0284827
0.0284514
0.0283863
0.0282521
0.0279788
0.0274437
0.026475
0.0249201
0.022779
0.0202226
0.017356
0.014297
0.0113423
0.00885725
0.007025
0.00569606
0.00491034
0.00442286
0.00412285
0.00393672
0.00381836
0.00373976
0.00368426
0.00364207
0.0036075
0.00357727
0.00354951
0.00352319
0.00349772
0.00347281
0.0034483
0.00342412
0.00340026
0.0033767
0.00335346
0.00333055
0.00330799
0.00328576
0.0032639
0.00324239
0.00322123
0.00320044
0.00318063
0.0031616
0.00314283
0.00312431
0.00310605
0.00308802
0.00307023
0.00305268
0.00303536
0.00301827
0.0030014
0.00298475
0.00296831
0.00295209
0.00293608
0.00292027
0.00290466
0.00288926
0.00287404
0.00285902
0.00284419
0.00282954
0.00281507
0.00280079
0.00278668
0.00277274
0.00275898
0.00274539
0.00273196
0.00271869
0.00270559
0.00269265
0.00267986
0.00266723
0.00265475
0.00264242
0.00263024
0.0026182
0.00260631
0.00259455
0.00258294
0.00257146
0.00256011
0.0025489
0.00253781
0.00252685
0.00251602
0.0025053
0.00249471
0.00248423
0.00247387
0.00246362
0.00245349
0.00244346
0.00243354
0.00242372
0.00241401
0.0024044
0.0023949
0.00238549
0.00237619
0.00236698
0.00235787
0.00234887
0.00233993
0.00233101
0.00232219
0.00231345
0.00230478
0.0022962
0.00228769
0.00227926
0.00227091
0.00226263
0.00225443
0.00224629
0.00223823
0.00223024
0.00222232
0.00221446
0.00220668
0.00219896
0.00219131
0.00218372
0.00217619
0.00216873
0.00216133
0.002154
0.00214672
0.0021395
0.00213235
0.00212525
0.00211821
0.00211123
0.0021043
0.00209743
0.00209061
0.00208385
0.00207714
0.00207049
0.00206389
0.00205734
0.00205084
0.00204439
0.00203799
0.00203164
0.00202533
0.00201908
0.00201287
0.00200671
0.0020006
0.00199454
0.00198852
0.00198254
0.00197661
0.00197073
0.00196489
0.00195909
0.00195334
0.00194763
0.00194197
0.00193635
0.00193077
0.00192524
0.00191975
0.0019143
0.0019089
0.00190354
0.00189822
0.00189295
0.00188772
0.00188254
0.0018774
0.0018723
0.00186726
0.00186225
0.0018573
0.00185238
0.00184752
0.00184271
0.00183794
0.00183322
0.00182855
0.00182393
0.00181936
0.00181485
0.00181038
0.00180598
0.00180162
0.00179732
0.00179308
0.0017889
0.00178477
0.00178071
0.00177671
0.00177277
0.0017689
0.0017651
0.00176136
0.0017577
0.00175411
0.00175059
0.00174715
0.00174379
0.00174051
0.00173732
0.00173421
0.0017312
0.00172828
0.00172545
0.00172272
0.0017201
0.00171759
0.00171519
0.0017129
0.00171074
0.00170871
0.00170682
0.00170508
0.00170351
0.00170212
0.00170097
0.00169987
0.0016991
0.00169851
0.00169814
0.00169795
0.0016979
)
;

boundaryField
{
    boundary
    {
        type            empty;
    }
    inlet
    {
        type            fixedValue;
        value           uniform 0.0285116;
    }
    outlet
    {
        type            zeroGradient;
    }
}


// ************************************************************************* //
