/*--------------------------------*- C++ -*----------------------------------*\
  =========                 |
  \\      /  F ield         | OpenFOAM: The Open Source CFD Toolbox
   \\    /   O peration     | Website:  https://openfoam.org
    \\  /    A nd           | Version:  7
     \\/     M anipulation  |
\*---------------------------------------------------------------------------*/
FoamFile
{
    version     2.0;
    format      ascii;
    class       volScalarField;
    location    "0.00079";
    object      H2O;
}
// * * * * * * * * * * * * * * * * * * * * * * * * * * * * * * * * * * * * * //

dimensions      [0 0 0 0 0 0 0];

internalField   nonuniform List<scalar> 
500
(
7.87968e-48
2.27641e-47
4.09391e-47
6.13216e-47
8.31753e-47
1.06002e-46
1.29463e-46
1.53334e-46
1.77463e-46
2.01755e-46
2.26151e-46
2.50621e-46
2.75156e-46
2.99758e-46
3.24442e-46
3.49225e-46
3.74127e-46
3.9917e-46
4.24372e-46
4.49751e-46
4.75319e-46
5.0109e-46
5.27076e-46
5.53288e-46
5.79743e-46
6.06457e-46
6.33457e-46
6.60772e-46
6.88445e-46
7.16524e-46
7.45071e-46
7.74158e-46
8.03868e-46
8.34296e-46
8.65545e-46
8.97728e-46
9.30963e-46
9.65371e-46
1.00107e-45
1.03819e-45
1.07682e-45
1.11706e-45
1.15898e-45
1.20264e-45
1.24804e-45
1.29519e-45
1.34401e-45
1.39441e-45
1.44626e-45
1.49937e-45
1.55352e-45
1.60844e-45
1.66384e-45
1.7194e-45
1.77476e-45
1.82957e-45
1.88347e-45
1.9361e-45
1.98713e-45
2.03625e-45
2.08317e-45
2.12766e-45
2.16952e-45
2.2086e-45
2.24479e-45
2.27806e-45
2.3084e-45
2.33584e-45
2.36047e-45
2.3824e-45
2.40177e-45
2.41875e-45
2.43352e-45
2.44626e-45
2.45717e-45
2.46644e-45
2.47425e-45
2.48079e-45
2.48622e-45
2.49069e-45
2.49435e-45
2.49733e-45
2.49973e-45
2.50165e-45
2.50318e-45
2.50438e-45
2.50533e-45
2.50607e-45
2.50664e-45
2.50709e-45
2.50743e-45
2.50769e-45
2.50789e-45
2.50804e-45
2.50816e-45
2.50825e-45
2.50833e-45
2.50839e-45
2.50844e-45
2.50848e-45
2.50851e-45
2.50855e-45
2.50858e-45
2.50861e-45
2.50864e-45
2.50867e-45
2.50871e-45
2.50874e-45
2.50878e-45
2.50881e-45
2.50885e-45
2.50889e-45
2.50893e-45
2.50898e-45
2.50903e-45
2.50907e-45
2.50912e-45
2.50918e-45
2.50923e-45
2.50929e-45
2.50934e-45
2.50936e-45
2.50929e-45
2.50885e-45
2.50704e-45
2.50369e-45
2.50377e-45
2.50386e-45
2.50395e-45
2.50405e-45
2.50415e-45
2.50425e-45
2.50436e-45
2.50447e-45
2.50458e-45
2.5047e-45
2.50481e-45
2.50493e-45
2.50505e-45
2.50519e-45
2.50533e-45
2.50548e-45
2.50566e-45
2.50585e-45
2.50608e-45
2.50633e-45
2.50662e-45
2.50694e-45
2.5073e-45
2.50769e-45
2.50812e-45
2.50857e-45
2.50905e-45
2.50954e-45
2.51005e-45
2.51055e-45
2.51105e-45
2.51154e-45
2.512e-45
2.51244e-45
2.51285e-45
2.51322e-45
2.51356e-45
2.51386e-45
2.51413e-45
2.51436e-45
2.51457e-45
2.51475e-45
2.51491e-45
2.51506e-45
2.5152e-45
2.51534e-45
2.51548e-45
2.51563e-45
2.51578e-45
2.51595e-45
2.51614e-45
2.51634e-45
2.51655e-45
2.51678e-45
2.51703e-45
2.51729e-45
2.51757e-45
2.51785e-45
2.51813e-45
2.51843e-45
2.51872e-45
2.51901e-45
2.5193e-45
2.51958e-45
2.51985e-45
2.52011e-45
2.52036e-45
2.5206e-45
2.52083e-45
2.52108e-45
2.52145e-45
2.52227e-45
2.5248e-45
2.5335e-45
2.56439e-45
2.67453e-45
3.06604e-45
4.45141e-45
9.33037e-45
2.64349e-44
8.61481e-44
2.93832e-43
1.01388e-42
3.50425e-42
1.2104e-41
4.17861e-41
1.44311e-40
4.9923e-40
1.73261e-39
6.04276e-39
2.12167e-38
7.51256e-38
2.68689e-37
9.71882e-37
3.55827e-36
1.31902e-35
4.9493e-35
1.87839e-34
7.20258e-34
2.78642e-33
1.08597e-32
4.25765e-32
1.67692e-31
6.62719e-31
2.62534e-30
1.04167e-29
4.13697e-29
1.64375e-28
6.53184e-28
2.59523e-27
1.03082e-26
4.09282e-26
1.62431e-25
6.44341e-25
2.55486e-24
1.01258e-23
4.01159e-23
1.58866e-22
6.289e-22
2.48866e-21
9.84413e-21
3.89229e-20
1.53827e-19
6.07628e-19
2.39879e-18
9.51934e-18
3.76294e-17
1.48309e-16
5.83732e-16
2.29517e-15
9.01584e-15
3.53841e-14
1.38755e-13
5.43716e-13
2.12929e-12
8.33509e-12
3.26199e-11
1.27655e-10
4.9964e-10
1.95623e-09
7.66269e-09
3.00315e-08
1.17765e-07
4.62014e-07
1.81302e-06
7.11229e-06
2.78498e-05
0.000108397
0.000414502
0.00151004
0.00489751
0.0128485
0.0260589
0.0430347
0.0635825
0.0879218
0.113923
0.137514
0.155697
0.171436
0.180663
0.186859
0.191072
0.194024
0.196182
0.19784
0.199178
0.200306
0.201291
0.202176
0.202987
0.20374
0.204447
0.205115
0.20575
0.206355
0.206934
0.207489
0.208021
0.208533
0.209025
0.2095
0.209958
0.210399
0.210826
0.211238
0.211624
0.211992
0.21235
0.2127
0.213041
0.213374
0.213698
0.214016
0.214326
0.214629
0.214925
0.215215
0.215499
0.215777
0.216049
0.216315
0.216577
0.216833
0.217084
0.21733
0.217572
0.217809
0.218041
0.21827
0.218495
0.218716
0.218933
0.219146
0.219356
0.219562
0.219766
0.219966
0.220163
0.220357
0.220548
0.220736
0.220922
0.221105
0.221285
0.221463
0.221639
0.221812
0.221983
0.222152
0.222318
0.222483
0.222645
0.222806
0.222964
0.223121
0.223275
0.223428
0.223579
0.223728
0.223875
0.224021
0.224164
0.224307
0.224447
0.224586
0.224723
0.224859
0.224993
0.225126
0.225257
0.225387
0.225515
0.225642
0.225768
0.225892
0.226015
0.226136
0.226257
0.226376
0.226493
0.22661
0.226725
0.226839
0.226952
0.227064
0.227174
0.227284
0.227392
0.2275
0.227606
0.227712
0.227816
0.227919
0.228021
0.228123
0.228223
0.228323
0.228421
0.228519
0.228616
0.228712
0.228807
0.228901
0.228994
0.229087
0.229178
0.229269
0.229359
0.229448
0.229537
0.229624
0.229711
0.229797
0.229883
0.229967
0.230051
0.230134
0.230217
0.230299
0.23038
0.23046
0.23054
0.230619
0.230697
0.230775
0.230852
0.230928
0.231004
0.231079
0.231154
0.231228
0.231301
0.231374
0.231446
0.231518
0.231589
0.23166
0.23173
0.2318
0.231869
0.231938
0.232006
0.232074
0.232141
0.232208
0.232275
0.232341
0.232407
0.232473
0.232538
0.232603
0.232667
0.232732
0.232796
0.23286
0.232923
0.232987
0.23305
0.233113
0.233176
0.233239
0.233302
0.233365
0.233427
0.23349
0.233553
0.233616
0.233679
0.233742
0.233806
0.233869
0.233933
0.233997
0.234062
0.234127
0.234193
0.234259
0.234326
0.234393
0.234461
0.23453
0.2346
0.23467
0.234742
0.234813
0.234886
0.234973
0.235066
0.235139
0.235212
0.235281
0.23534
0.235381
)
;

boundaryField
{
    boundary
    {
        type            empty;
    }
    inlet
    {
        type            fixedValue;
        value           uniform 0;
    }
    outlet
    {
        type            zeroGradient;
    }
}


// ************************************************************************* //
