/*--------------------------------*- C++ -*----------------------------------*\
  =========                 |
  \\      /  F ield         | OpenFOAM: The Open Source CFD Toolbox
   \\    /   O peration     | Website:  https://openfoam.org
    \\  /    A nd           | Version:  7
     \\/     M anipulation  |
\*---------------------------------------------------------------------------*/
FoamFile
{
    version     2.0;
    format      ascii;
    class       volScalarField;
    location    "0.00079";
    object      H2O2;
}
// * * * * * * * * * * * * * * * * * * * * * * * * * * * * * * * * * * * * * //

dimensions      [0 0 0 0 0 0 0];

internalField   nonuniform List<scalar> 
500
(
1.9909e-52
6.39413e-52
1.27052e-51
2.0919e-51
3.1028e-51
4.30236e-51
5.68968e-51
7.26394e-51
9.02451e-51
1.09711e-50
1.3104e-50
1.54237e-50
1.79316e-50
2.06295e-50
2.35195e-50
2.66043e-50
2.98868e-50
3.33698e-50
3.70563e-50
4.09494e-50
4.5052e-50
4.93672e-50
5.38983e-50
5.86489e-50
6.36233e-50
6.88265e-50
7.42649e-50
7.99461e-50
8.58796e-50
9.20766e-50
9.85506e-50
1.05318e-49
1.12396e-49
1.19805e-49
1.27569e-49
1.35711e-49
1.44258e-49
1.53236e-49
1.62671e-49
1.72588e-49
1.83009e-49
1.93954e-49
2.05436e-49
2.17462e-49
2.3003e-49
2.4313e-49
2.56741e-49
2.70828e-49
2.85349e-49
3.00245e-49
3.15449e-49
3.3088e-49
3.4645e-49
3.62061e-49
3.77612e-49
3.92997e-49
4.0811e-49
4.22848e-49
4.37113e-49
4.50814e-49
4.63873e-49
4.76221e-49
4.87804e-49
4.98581e-49
5.08527e-49
5.17632e-49
5.25899e-49
5.33344e-49
5.39993e-49
5.45882e-49
5.51057e-49
5.55567e-49
5.59466e-49
5.6281e-49
5.65654e-49
5.68055e-49
5.70065e-49
5.71735e-49
5.73112e-49
5.74239e-49
5.75154e-49
5.75892e-49
5.76483e-49
5.76952e-49
5.77322e-49
5.77612e-49
5.77839e-49
5.78014e-49
5.78148e-49
5.78252e-49
5.7833e-49
5.78391e-49
5.78436e-49
5.78471e-49
5.78498e-49
5.78519e-49
5.78536e-49
5.78549e-49
5.7856e-49
5.7857e-49
5.78578e-49
5.78587e-49
5.78594e-49
5.78602e-49
5.7861e-49
5.78617e-49
5.78626e-49
5.78634e-49
5.78643e-49
5.78652e-49
5.78662e-49
5.78672e-49
5.78682e-49
5.78693e-49
5.78705e-49
5.78717e-49
5.7873e-49
5.78743e-49
5.78757e-49
5.78771e-49
5.78783e-49
5.78786e-49
5.78754e-49
5.78578e-49
5.77836e-49
5.76365e-49
5.76386e-49
5.76408e-49
5.76431e-49
5.76456e-49
5.76481e-49
5.76507e-49
5.76534e-49
5.76562e-49
5.7659e-49
5.76618e-49
5.76647e-49
5.76676e-49
5.76707e-49
5.76739e-49
5.76774e-49
5.76813e-49
5.76856e-49
5.76906e-49
5.76963e-49
5.77028e-49
5.77103e-49
5.77188e-49
5.77285e-49
5.77391e-49
5.77509e-49
5.77636e-49
5.7777e-49
5.77911e-49
5.78056e-49
5.78202e-49
5.78346e-49
5.78486e-49
5.78619e-49
5.78742e-49
5.78854e-49
5.78954e-49
5.79041e-49
5.79115e-49
5.79177e-49
5.79228e-49
5.79271e-49
5.79308e-49
5.79341e-49
5.79372e-49
5.79405e-49
5.79442e-49
5.79484e-49
5.79534e-49
5.79592e-49
5.7966e-49
5.79737e-49
5.79823e-49
5.79917e-49
5.8002e-49
5.80128e-49
5.80242e-49
5.8036e-49
5.80479e-49
5.806e-49
5.80719e-49
5.80836e-49
5.80951e-49
5.81061e-49
5.81166e-49
5.81265e-49
5.81359e-49
5.81446e-49
5.81527e-49
5.81601e-49
5.81669e-49
5.81731e-49
5.81786e-49
5.81836e-49
5.81886e-49
5.81956e-49
5.82157e-49
5.83038e-49
5.87345e-49
6.08719e-49
7.14447e-49
1.23415e-48
3.77172e-48
1.60795e-47
7.5381e-47
3.59245e-46
1.70931e-45
8.08958e-45
3.80546e-44
1.77927e-43
8.2693e-43
3.82073e-42
1.75525e-41
8.01897e-41
3.64384e-40
1.64718e-39
7.40885e-39
3.3165e-38
1.47782e-37
6.55661e-37
2.89704e-36
1.27512e-35
5.59219e-35
2.4443e-34
1.06508e-33
4.62775e-33
2.00554e-32
8.67108e-32
3.74109e-31
1.61104e-30
6.92611e-30
2.9733e-29
1.27478e-28
5.45954e-28
2.33596e-27
9.98668e-27
4.26651e-26
1.82163e-25
7.77333e-25
3.31539e-24
1.41334e-23
6.02204e-23
2.56456e-22
1.09153e-21
4.64284e-21
1.97347e-20
8.4333e-20
3.58803e-19
1.52191e-18
6.44602e-18
2.72717e-17
1.15264e-16
4.86706e-16
2.05341e-15
8.65732e-15
3.64813e-14
1.53684e-13
6.47375e-13
2.72744e-12
1.14951e-11
4.84734e-11
2.0454e-10
8.63696e-10
3.64962e-09
1.54308e-08
6.52558e-08
2.7566e-07
1.1579e-06
4.75912e-06
1.8147e-05
5.52655e-05
0.000103489
0.000124975
9.81105e-05
5.07748e-05
2.0888e-05
8.72434e-06
5.01882e-06
4.42761e-06
4.83386e-06
5.55282e-06
6.0966e-06
6.4754e-06
6.69001e-06
6.77097e-06
6.75319e-06
6.66674e-06
6.53473e-06
6.37398e-06
6.19635e-06
6.01011e-06
5.82084e-06
5.63237e-06
5.44721e-06
5.267e-06
5.09276e-06
4.92507e-06
4.76424e-06
4.61035e-06
4.46336e-06
4.32312e-06
4.18943e-06
4.06204e-06
3.9407e-06
3.82515e-06
3.71516e-06
3.61053e-06
3.51408e-06
3.42335e-06
3.33626e-06
3.25263e-06
3.1723e-06
3.09509e-06
3.02086e-06
2.94947e-06
2.88078e-06
2.81465e-06
2.75097e-06
2.68962e-06
2.63049e-06
2.57348e-06
2.51848e-06
2.4654e-06
2.41416e-06
2.36467e-06
2.31685e-06
2.27062e-06
2.22591e-06
2.18266e-06
2.1408e-06
2.10028e-06
2.06102e-06
2.02298e-06
1.9861e-06
1.95035e-06
1.91566e-06
1.88199e-06
1.84931e-06
1.81757e-06
1.78674e-06
1.75678e-06
1.72765e-06
1.69932e-06
1.67176e-06
1.64494e-06
1.61884e-06
1.59342e-06
1.56867e-06
1.54455e-06
1.52105e-06
1.49813e-06
1.47579e-06
1.454e-06
1.43275e-06
1.412e-06
1.39176e-06
1.37199e-06
1.35269e-06
1.33384e-06
1.31543e-06
1.29743e-06
1.27985e-06
1.26266e-06
1.24586e-06
1.22943e-06
1.21336e-06
1.19764e-06
1.18227e-06
1.16724e-06
1.15254e-06
1.13818e-06
1.1241e-06
1.11026e-06
1.09671e-06
1.08342e-06
1.07041e-06
1.05765e-06
1.04515e-06
1.0329e-06
1.02088e-06
1.0091e-06
9.97542e-07
9.86208e-07
9.75088e-07
9.64177e-07
9.5347e-07
9.42962e-07
9.32646e-07
9.22519e-07
9.12575e-07
9.02809e-07
8.93218e-07
8.83797e-07
8.74541e-07
8.65447e-07
8.56511e-07
8.47728e-07
8.39096e-07
8.30611e-07
8.22269e-07
8.14067e-07
8.06001e-07
7.9807e-07
7.90269e-07
7.82595e-07
7.75047e-07
7.67621e-07
7.60315e-07
7.53125e-07
7.4605e-07
7.39087e-07
7.32234e-07
7.25488e-07
7.18847e-07
7.12309e-07
7.05873e-07
6.99534e-07
6.93293e-07
6.87146e-07
6.81093e-07
6.7513e-07
6.69257e-07
6.63471e-07
6.57771e-07
6.52154e-07
6.4662e-07
6.41167e-07
6.35793e-07
6.30497e-07
6.25277e-07
6.20131e-07
6.15058e-07
6.10057e-07
6.05126e-07
6.00265e-07
5.9547e-07
5.90742e-07
5.86079e-07
5.81479e-07
5.76942e-07
5.72466e-07
5.6805e-07
5.63693e-07
5.59393e-07
5.55149e-07
5.50962e-07
5.46828e-07
5.42748e-07
5.3872e-07
5.34742e-07
5.30816e-07
5.26938e-07
5.23108e-07
5.19326e-07
5.1559e-07
5.11899e-07
5.08253e-07
5.0465e-07
5.01089e-07
4.97571e-07
4.94093e-07
4.90655e-07
4.87256e-07
4.83895e-07
4.80571e-07
4.77284e-07
4.74032e-07
4.70815e-07
4.67631e-07
4.6448e-07
4.61361e-07
4.58273e-07
4.55215e-07
4.52185e-07
4.49184e-07
4.46209e-07
4.43259e-07
4.40335e-07
4.37434e-07
4.34556e-07
4.31698e-07
4.2886e-07
4.2604e-07
4.23238e-07
4.20452e-07
4.17684e-07
4.14943e-07
4.12207e-07
4.09176e-07
4.05797e-07
4.03253e-07
4.00766e-07
3.98462e-07
3.96507e-07
3.95216e-07
)
;

boundaryField
{
    boundary
    {
        type            empty;
    }
    inlet
    {
        type            fixedValue;
        value           uniform 0;
    }
    outlet
    {
        type            zeroGradient;
    }
}


// ************************************************************************* //
