/*--------------------------------*- C++ -*----------------------------------*\
  =========                 |
  \\      /  F ield         | OpenFOAM: The Open Source CFD Toolbox
   \\    /   O peration     | Website:  https://openfoam.org
    \\  /    A nd           | Version:  7
     \\/     M anipulation  |
\*---------------------------------------------------------------------------*/
FoamFile
{
    version     2.0;
    format      ascii;
    class       volScalarField;
    location    "0.00079";
    object      HO2;
}
// * * * * * * * * * * * * * * * * * * * * * * * * * * * * * * * * * * * * * //

dimensions      [0 0 0 0 0 0 0];

internalField   nonuniform List<scalar> 
500
(
5.59182e-38
1.27245e-37
1.98796e-37
2.70335e-37
3.41787e-37
4.13113e-37
4.84287e-37
5.55293e-37
6.26125e-37
6.96791e-37
7.67313e-37
8.37729e-37
9.08087e-37
9.78448e-37
1.04888e-36
1.11944e-36
1.1902e-36
1.26122e-36
1.33254e-36
1.40421e-36
1.47626e-36
1.54872e-36
1.62161e-36
1.69495e-36
1.76877e-36
1.8431e-36
1.918e-36
1.99351e-36
2.06973e-36
2.14675e-36
2.2247e-36
2.30373e-36
2.384e-36
2.46571e-36
2.54908e-36
2.63432e-36
2.72168e-36
2.8114e-36
2.90371e-36
2.99884e-36
3.09699e-36
3.19831e-36
3.30292e-36
3.41088e-36
3.52216e-36
3.63669e-36
3.75428e-36
3.87465e-36
3.99745e-36
4.12223e-36
4.24844e-36
4.37547e-36
4.50265e-36
4.62923e-36
4.75447e-36
4.87758e-36
4.9978e-36
5.1144e-36
5.22669e-36
5.33406e-36
5.43596e-36
5.53194e-36
5.62168e-36
5.70493e-36
5.78157e-36
5.85157e-36
5.91502e-36
5.97207e-36
6.02297e-36
6.06802e-36
6.1076e-36
6.14208e-36
6.17191e-36
6.19749e-36
6.21928e-36
6.23769e-36
6.25313e-36
6.26598e-36
6.27659e-36
6.28529e-36
6.29238e-36
6.29811e-36
6.3027e-36
6.30636e-36
6.30926e-36
6.31154e-36
6.31333e-36
6.31471e-36
6.31578e-36
6.31661e-36
6.31724e-36
6.31772e-36
6.31809e-36
6.31837e-36
6.31859e-36
6.31876e-36
6.3189e-36
6.31901e-36
6.3191e-36
6.31918e-36
6.31925e-36
6.31931e-36
6.31937e-36
6.31944e-36
6.3195e-36
6.31956e-36
6.31962e-36
6.31969e-36
6.31976e-36
6.31983e-36
6.31991e-36
6.31999e-36
6.32007e-36
6.32016e-36
6.32025e-36
6.32034e-36
6.32044e-36
6.32055e-36
6.32065e-36
6.32076e-36
6.32087e-36
6.32092e-36
6.32078e-36
6.31984e-36
6.31581e-36
6.30781e-36
6.30798e-36
6.30816e-36
6.30834e-36
6.30854e-36
6.30874e-36
6.30895e-36
6.30917e-36
6.30939e-36
6.30961e-36
6.30983e-36
6.31005e-36
6.31027e-36
6.31049e-36
6.31072e-36
6.31097e-36
6.31124e-36
6.31153e-36
6.31186e-36
6.31224e-36
6.31266e-36
6.31315e-36
6.31369e-36
6.3143e-36
6.31498e-36
6.31571e-36
6.3165e-36
6.31733e-36
6.31819e-36
6.31907e-36
6.31996e-36
6.32082e-36
6.32166e-36
6.32245e-36
6.32319e-36
6.32386e-36
6.32445e-36
6.32498e-36
6.32543e-36
6.32582e-36
6.32615e-36
6.32644e-36
6.32671e-36
6.32696e-36
6.32722e-36
6.32749e-36
6.3278e-36
6.32815e-36
6.32854e-36
6.329e-36
6.32951e-36
6.33008e-36
6.33071e-36
6.33139e-36
6.33211e-36
6.33287e-36
6.33365e-36
6.33446e-36
6.33528e-36
6.33609e-36
6.3369e-36
6.33769e-36
6.33846e-36
6.3392e-36
6.3399e-36
6.34057e-36
6.3412e-36
6.34179e-36
6.34234e-36
6.34285e-36
6.34331e-36
6.34373e-36
6.34411e-36
6.34445e-36
6.34475e-36
6.34502e-36
6.34524e-36
6.34543e-36
6.34557e-36
6.34568e-36
6.34576e-36
6.34579e-36
6.34579e-36
6.34575e-36
6.34567e-36
6.34557e-36
6.34549e-36
6.34557e-36
6.34629e-36
6.34924e-36
6.35963e-36
6.39458e-36
6.50991e-36
6.88698e-36
8.1125e-36
1.20775e-35
2.48555e-35
6.58922e-35
1.97276e-34
6.16804e-34
1.95354e-33
6.20632e-33
1.97262e-32
6.27166e-32
1.99613e-31
6.3683e-31
2.04e-30
6.57552e-30
2.13813e-29
7.03431e-29
2.349e-28
7.98782e-28
2.77412e-27
9.86118e-27
3.59194e-26
1.34049e-25
5.11845e-25
1.99499e-24
7.91426e-24
3.18568e-23
1.29726e-22
5.33008e-22
2.20465e-21
9.16313e-21
3.82129e-20
1.59713e-19
6.72382e-19
2.82308e-18
1.18303e-17
4.95434e-17
2.07376e-16
8.67556e-16
3.62742e-15
1.51592e-14
6.33253e-14
2.64455e-13
1.10424e-12
4.61076e-12
1.92542e-11
8.04186e-11
3.35945e-10
1.40358e-09
5.86415e-09
2.44942e-08
1.02187e-07
4.25027e-07
1.75224e-06
7.09076e-06
2.75199e-05
9.70598e-05
0.00027482
0.00048672
0.000510029
0.000421168
0.000309241
0.000218211
0.000152917
0.000106927
7.50296e-05
5.38783e-05
3.76248e-05
2.86852e-05
2.29314e-05
1.91334e-05
1.65367e-05
1.46856e-05
1.33081e-05
1.22406e-05
1.13836e-05
1.0675e-05
1.00749e-05
9.55696e-06
9.10324e-06
8.701e-06
8.34097e-06
8.01618e-06
7.72127e-06
7.45201e-06
7.20499e-06
6.97744e-06
6.76707e-06
6.57194e-06
6.39043e-06
6.22116e-06
6.06296e-06
5.91485e-06
5.77605e-06
5.6498e-06
5.53228e-06
5.4206e-06
5.31432e-06
5.21308e-06
5.11651e-06
5.02431e-06
4.93618e-06
4.85188e-06
4.77116e-06
4.6938e-06
4.61961e-06
4.5484e-06
4.47999e-06
4.41424e-06
4.351e-06
4.29012e-06
4.23149e-06
4.17498e-06
4.12049e-06
4.06791e-06
4.01714e-06
3.96811e-06
3.92071e-06
3.87488e-06
3.83054e-06
3.78762e-06
3.74605e-06
3.70577e-06
3.66673e-06
3.62886e-06
3.59211e-06
3.55644e-06
3.5218e-06
3.48814e-06
3.45543e-06
3.42362e-06
3.39268e-06
3.36257e-06
3.33327e-06
3.30473e-06
3.27693e-06
3.24984e-06
3.22344e-06
3.19769e-06
3.17259e-06
3.1481e-06
3.1242e-06
3.10088e-06
3.07811e-06
3.05588e-06
3.03417e-06
3.01296e-06
2.99224e-06
2.97199e-06
2.9522e-06
2.93286e-06
2.91395e-06
2.89546e-06
2.87738e-06
2.8597e-06
2.84241e-06
2.8255e-06
2.80897e-06
2.79278e-06
2.7769e-06
2.76136e-06
2.74614e-06
2.73124e-06
2.71664e-06
2.70235e-06
2.68834e-06
2.67461e-06
2.66116e-06
2.64798e-06
2.63505e-06
2.62238e-06
2.60995e-06
2.59776e-06
2.5858e-06
2.57407e-06
2.56256e-06
2.55126e-06
2.54017e-06
2.52928e-06
2.51859e-06
2.50809e-06
2.49778e-06
2.48765e-06
2.47771e-06
2.46793e-06
2.45833e-06
2.44889e-06
2.43962e-06
2.4305e-06
2.42154e-06
2.41273e-06
2.40407e-06
2.39556e-06
2.38719e-06
2.37895e-06
2.37086e-06
2.36289e-06
2.35506e-06
2.34736e-06
2.33978e-06
2.33233e-06
2.32499e-06
2.31778e-06
2.31068e-06
2.3037e-06
2.29683e-06
2.29006e-06
2.28341e-06
2.27686e-06
2.27042e-06
2.26407e-06
2.25783e-06
2.25168e-06
2.24563e-06
2.23967e-06
2.2338e-06
2.22802e-06
2.22232e-06
2.21671e-06
2.21118e-06
2.20573e-06
2.20036e-06
2.19507e-06
2.18985e-06
2.18469e-06
2.17961e-06
2.17459e-06
2.16964e-06
2.16475e-06
2.15992e-06
2.15515e-06
2.15043e-06
2.14576e-06
2.14115e-06
2.13658e-06
2.13206e-06
2.12758e-06
2.12314e-06
2.11874e-06
2.11437e-06
2.11004e-06
2.10574e-06
2.10147e-06
2.09723e-06
2.093e-06
2.0888e-06
2.08461e-06
2.08044e-06
2.07627e-06
2.07212e-06
2.06796e-06
2.06381e-06
2.05965e-06
2.05548e-06
2.0513e-06
2.0471e-06
2.04287e-06
2.03862e-06
2.03433e-06
2.03e-06
2.02562e-06
2.02119e-06
2.01669e-06
2.01212e-06
2.00747e-06
2.00274e-06
1.99791e-06
1.99297e-06
1.98792e-06
1.98274e-06
1.97743e-06
1.97198e-06
1.96639e-06
1.9607e-06
1.95498e-06
1.94736e-06
1.93932e-06
1.93305e-06
1.92668e-06
1.92048e-06
1.9149e-06
1.91092e-06
)
;

boundaryField
{
    boundary
    {
        type            empty;
    }
    inlet
    {
        type            fixedValue;
        value           uniform 0;
    }
    outlet
    {
        type            zeroGradient;
    }
}


// ************************************************************************* //
