/*--------------------------------*- C++ -*----------------------------------*\
  =========                 |
  \\      /  F ield         | OpenFOAM: The Open Source CFD Toolbox
   \\    /   O peration     | Website:  https://openfoam.org
    \\  /    A nd           | Version:  7
     \\/     M anipulation  |
\*---------------------------------------------------------------------------*/
FoamFile
{
    version     2.0;
    format      ascii;
    class       volScalarField;
    location    "0.00079";
    object      N2;
}
// * * * * * * * * * * * * * * * * * * * * * * * * * * * * * * * * * * * * * //

dimensions      [0 0 0 0 0 0 0];

internalField   nonuniform List<scalar> 
500
(
0.745219
0.745219
0.745219
0.745219
0.745219
0.745219
0.745219
0.745219
0.745219
0.745219
0.745219
0.745219
0.745219
0.745219
0.745219
0.745219
0.745219
0.745219
0.745219
0.745219
0.745219
0.745219
0.745219
0.745219
0.745219
0.745219
0.745219
0.745219
0.745219
0.745219
0.745219
0.745219
0.745219
0.745219
0.745219
0.745219
0.745219
0.745219
0.745219
0.745219
0.745219
0.745219
0.745219
0.745219
0.745219
0.745219
0.745219
0.745219
0.745219
0.745219
0.745219
0.745219
0.745219
0.745219
0.74522
0.74522
0.74522
0.74522
0.74522
0.74522
0.74522
0.74522
0.74522
0.74522
0.74522
0.74522
0.74522
0.74522
0.74522
0.74522
0.74522
0.74522
0.74522
0.74522
0.74522
0.74522
0.74522
0.74522
0.74522
0.74522
0.74522
0.74522
0.74522
0.74522
0.74522
0.74522
0.74522
0.74522
0.74522
0.74522
0.74522
0.74522
0.74522
0.74522
0.74522
0.74522
0.74522
0.74522
0.74522
0.74522
0.74522
0.74522
0.74522
0.74522
0.74522
0.74522
0.74522
0.74522
0.74522
0.74522
0.74522
0.74522
0.74522
0.74522
0.74522
0.74522
0.74522
0.74522
0.74522
0.74522
0.74522
0.74522
0.74522
0.74522
0.74522
0.74522
0.74522
0.74522
0.74522
0.74522
0.74522
0.74522
0.74522
0.74522
0.74522
0.74522
0.74522
0.74522
0.74522
0.74522
0.74522
0.74522
0.74522
0.74522
0.74522
0.74522
0.74522
0.74522
0.74522
0.74522
0.74522
0.74522
0.74522
0.74522
0.74522
0.74522
0.74522
0.74522
0.74522
0.74522
0.74522
0.74522
0.74522
0.74522
0.74522
0.74522
0.74522
0.74522
0.74522
0.74522
0.74522
0.74522
0.74522
0.74522
0.74522
0.74522
0.74522
0.74522
0.74522
0.74522
0.74522
0.74522
0.74522
0.74522
0.74522
0.74522
0.74522
0.74522
0.74522
0.74522
0.74522
0.74522
0.74522
0.74522
0.74522
0.74522
0.74522
0.74522
0.74522
0.74522
0.74522
0.74522
0.74522
0.74522
0.74522
0.74522
0.74522
0.74522
0.74522
0.74522
0.74522
0.74522
0.74522
0.74522
0.74522
0.74522
0.74522
0.74522
0.74522
0.74522
0.74522
0.74522
0.74522
0.74522
0.74522
0.74522
0.74522
0.74522
0.74522
0.74522
0.74522
0.74522
0.74522
0.74522
0.74522
0.74522
0.74522
0.74522
0.74522
0.74522
0.74522
0.74522
0.74522
0.74522
0.74522
0.74522
0.74522
0.74522
0.74522
0.74522
0.74522
0.74522
0.74522
0.74522
0.74522
0.74522
0.74522
0.74522
0.74522
0.74522
0.74522
0.74522
0.74522
0.74522
0.74522
0.74522
0.745221
0.745222
0.745224
0.74523
0.74524
0.745262
0.745303
0.745379
0.745495
0.745611
0.745585
0.74533
0.744924
0.744386
0.743859
0.743612
0.743739
0.744049
0.744226
0.744797
0.744997
0.745136
0.745224
0.745278
0.74531
0.745328
0.745338
0.745342
0.745343
0.745342
0.745341
0.745338
0.745335
0.745332
0.74533
0.745327
0.745324
0.745322
0.745319
0.745317
0.745315
0.745313
0.745311
0.745309
0.745307
0.745306
0.745304
0.745302
0.745301
0.7453
0.745298
0.745297
0.745296
0.745294
0.745293
0.745292
0.74529
0.745289
0.745287
0.745286
0.745285
0.745283
0.745282
0.74528
0.745279
0.745277
0.745276
0.745274
0.745273
0.745271
0.745269
0.745268
0.745266
0.745265
0.745264
0.745262
0.745261
0.74526
0.745258
0.745257
0.745256
0.745255
0.745254
0.745253
0.745252
0.745251
0.74525
0.74525
0.745249
0.745249
0.745248
0.745248
0.745247
0.745247
0.745246
0.745246
0.745246
0.745246
0.745245
0.745245
0.745245
0.745245
0.745245
0.745244
0.745244
0.745244
0.745244
0.745244
0.745243
0.745243
0.745243
0.745243
0.745242
0.745242
0.745242
0.745242
0.745241
0.745241
0.745241
0.745241
0.74524
0.74524
0.74524
0.74524
0.745239
0.745239
0.745239
0.745239
0.745238
0.745238
0.745238
0.745238
0.745238
0.745237
0.745237
0.745237
0.745237
0.745237
0.745237
0.745237
0.745237
0.745236
0.745236
0.745236
0.745236
0.745236
0.745236
0.745236
0.745236
0.745236
0.745236
0.745235
0.745235
0.745235
0.745235
0.745235
0.745235
0.745235
0.745234
0.745234
0.745234
0.745234
0.745234
0.745233
0.745233
0.745233
0.745233
0.745232
0.745232
0.745232
0.745231
0.745231
0.74523
0.74523
0.74523
0.745229
0.745229
0.745228
0.745228
0.745227
0.745227
0.745226
0.745226
0.745225
0.745225
0.745224
0.745224
0.745223
0.745222
0.745222
0.745221
0.745221
0.74522
0.745219
0.745218
0.745218
0.745217
0.745216
0.745215
0.745214
0.745213
0.745212
0.745211
0.74521
0.745209
0.745208
0.745207
0.745205
0.745204
0.745202
0.745201
0.745199
0.745198
0.745196
0.745194
0.745192
0.74519
0.745188
0.745186
0.745184
0.745182
0.74518
0.745178
0.745176
0.745174
0.745172
0.74517
0.745168
0.745166
0.745165
0.745163
0.745162
0.745162
0.745162
)
;

boundaryField
{
    boundary
    {
        type            empty;
    }
    inlet
    {
        type            fixedValue;
        value           uniform 0.74522;
    }
    outlet
    {
        type            zeroGradient;
    }
}


// ************************************************************************* //
