/*--------------------------------*- C++ -*----------------------------------*\
  =========                 |
  \\      /  F ield         | OpenFOAM: The Open Source CFD Toolbox
   \\    /   O peration     | Website:  https://openfoam.org
    \\  /    A nd           | Version:  7
     \\/     M anipulation  |
\*---------------------------------------------------------------------------*/
FoamFile
{
    version     2.0;
    format      ascii;
    class       surfaceScalarField;
    location    "0.00079";
    object      phi;
}
// * * * * * * * * * * * * * * * * * * * * * * * * * * * * * * * * * * * * * //

dimensions      [1 0 -1 0 0 0 0];

internalField   nonuniform List<scalar> 
499
(
6.93007e-06
6.92999e-06
6.92991e-06
6.92983e-06
6.92978e-06
6.92974e-06
6.92971e-06
6.9297e-06
6.92971e-06
6.92973e-06
6.92976e-06
6.92981e-06
6.92985e-06
6.9299e-06
6.92995e-06
6.92999e-06
6.93002e-06
6.93004e-06
6.93005e-06
6.93003e-06
6.93e-06
6.92994e-06
6.92987e-06
6.92978e-06
6.92967e-06
6.92954e-06
6.92939e-06
6.92922e-06
6.92904e-06
6.92883e-06
6.9286e-06
6.92835e-06
6.92807e-06
6.92777e-06
6.92743e-06
6.92705e-06
6.92663e-06
6.92617e-06
6.92566e-06
6.9251e-06
6.92449e-06
6.92381e-06
6.92307e-06
6.92228e-06
6.92142e-06
6.92049e-06
6.91951e-06
6.91847e-06
6.91737e-06
6.91622e-06
6.91503e-06
6.91381e-06
6.91255e-06
6.91128e-06
6.91e-06
6.90871e-06
6.90743e-06
6.90617e-06
6.90494e-06
6.90374e-06
6.90258e-06
6.90146e-06
6.90041e-06
6.8994e-06
6.89846e-06
6.89759e-06
6.89678e-06
6.89603e-06
6.89534e-06
6.89472e-06
6.89415e-06
6.89365e-06
6.89319e-06
6.89279e-06
6.89242e-06
6.8921e-06
6.89182e-06
6.89157e-06
6.89135e-06
6.89116e-06
6.89098e-06
6.89083e-06
6.89069e-06
6.89057e-06
6.89046e-06
6.89035e-06
6.89026e-06
6.89017e-06
6.89009e-06
6.89001e-06
6.88994e-06
6.88987e-06
6.8898e-06
6.88973e-06
6.88966e-06
6.8896e-06
6.88953e-06
6.88947e-06
6.88941e-06
6.88934e-06
6.88928e-06
6.88922e-06
6.88915e-06
6.88909e-06
6.88903e-06
6.88896e-06
6.8889e-06
6.88884e-06
6.88877e-06
6.88871e-06
6.88865e-06
6.88858e-06
6.88852e-06
6.88846e-06
6.88839e-06
6.88833e-06
6.88827e-06
6.8882e-06
6.88814e-06
6.88807e-06
6.88801e-06
6.88794e-06
6.88788e-06
6.88781e-06
6.88775e-06
6.88769e-06
6.88762e-06
6.88755e-06
6.88749e-06
6.88742e-06
6.88735e-06
6.88728e-06
6.88722e-06
6.88715e-06
6.88708e-06
6.88701e-06
6.88695e-06
6.88688e-06
6.88681e-06
6.88675e-06
6.88668e-06
6.88662e-06
6.88655e-06
6.88649e-06
6.88642e-06
6.88636e-06
6.88629e-06
6.88622e-06
6.88616e-06
6.88609e-06
6.88602e-06
6.88596e-06
6.88589e-06
6.88582e-06
6.88575e-06
6.88568e-06
6.88562e-06
6.88555e-06
6.88548e-06
6.88541e-06
6.88534e-06
6.88527e-06
6.8852e-06
6.88513e-06
6.88506e-06
6.88499e-06
6.88493e-06
6.88486e-06
6.88479e-06
6.88472e-06
6.88465e-06
6.88458e-06
6.88451e-06
6.88444e-06
6.88437e-06
6.8843e-06
6.88423e-06
6.88416e-06
6.88409e-06
6.88402e-06
6.88394e-06
6.88387e-06
6.8838e-06
6.88373e-06
6.88366e-06
6.88359e-06
6.88352e-06
6.88345e-06
6.88338e-06
6.88331e-06
6.88324e-06
6.88317e-06
6.8831e-06
6.88303e-06
6.88296e-06
6.88289e-06
6.88282e-06
6.88275e-06
6.88268e-06
6.88261e-06
6.88254e-06
6.88248e-06
6.88241e-06
6.88234e-06
6.88227e-06
6.8822e-06
6.88214e-06
6.88207e-06
6.88201e-06
6.88194e-06
6.88187e-06
6.88181e-06
6.88175e-06
6.88168e-06
6.88162e-06
6.88156e-06
6.88149e-06
6.88143e-06
6.88137e-06
6.88131e-06
6.88125e-06
6.88119e-06
6.88113e-06
6.88108e-06
6.88102e-06
6.88096e-06
6.88091e-06
6.88085e-06
6.8808e-06
6.88075e-06
6.88069e-06
6.88064e-06
6.88059e-06
6.88054e-06
6.8805e-06
6.88045e-06
6.8804e-06
6.88036e-06
6.88031e-06
6.88027e-06
6.88023e-06
6.88019e-06
6.88015e-06
6.88011e-06
6.88007e-06
6.88004e-06
6.88e-06
6.87997e-06
6.87993e-06
6.8799e-06
6.87987e-06
6.87984e-06
6.87981e-06
6.87979e-06
6.87976e-06
6.87973e-06
6.87971e-06
6.87968e-06
6.87966e-06
6.87964e-06
6.87962e-06
6.8796e-06
6.87959e-06
6.87957e-06
6.87956e-06
6.87955e-06
6.87954e-06
6.87953e-06
6.87954e-06
6.87961e-06
6.87985e-06
6.88059e-06
6.88285e-06
6.88943e-06
6.90739e-06
6.9482e-06
7.01147e-06
7.07228e-06
7.11477e-06
7.14226e-06
7.16093e-06
7.17423e-06
7.18375e-06
7.19056e-06
7.19541e-06
7.19896e-06
7.20165e-06
7.20376e-06
7.20547e-06
7.20689e-06
7.20808e-06
7.20911e-06
7.21001e-06
7.2108e-06
7.21151e-06
7.21214e-06
7.21272e-06
7.21324e-06
7.21372e-06
7.21417e-06
7.21458e-06
7.21496e-06
7.21532e-06
7.21565e-06
7.21597e-06
7.21626e-06
7.21654e-06
7.21681e-06
7.21706e-06
7.2173e-06
7.21754e-06
7.21776e-06
7.21795e-06
7.21814e-06
7.21833e-06
7.2185e-06
7.21868e-06
7.21884e-06
7.219e-06
7.21915e-06
7.2193e-06
7.21944e-06
7.21957e-06
7.2197e-06
7.21983e-06
7.21995e-06
7.22007e-06
7.22018e-06
7.22029e-06
7.22039e-06
7.22049e-06
7.22059e-06
7.22068e-06
7.22077e-06
7.22086e-06
7.22095e-06
7.22103e-06
7.22111e-06
7.22118e-06
7.22126e-06
7.22134e-06
7.22141e-06
7.22148e-06
7.22155e-06
7.22162e-06
7.22169e-06
7.22176e-06
7.22183e-06
7.2219e-06
7.22196e-06
7.22203e-06
7.2221e-06
7.22217e-06
7.22223e-06
7.2223e-06
7.22237e-06
7.22243e-06
7.2225e-06
7.22256e-06
7.22263e-06
7.22269e-06
7.22276e-06
7.22282e-06
7.22288e-06
7.22295e-06
7.22301e-06
7.22307e-06
7.22312e-06
7.22318e-06
7.22324e-06
7.22329e-06
7.22334e-06
7.22339e-06
7.22344e-06
7.22349e-06
7.22354e-06
7.22358e-06
7.22363e-06
7.22367e-06
7.22371e-06
7.22375e-06
7.22378e-06
7.22382e-06
7.22385e-06
7.22389e-06
7.22392e-06
7.22395e-06
7.22398e-06
7.22401e-06
7.22404e-06
7.22407e-06
7.22409e-06
7.22412e-06
7.22414e-06
7.22416e-06
7.22419e-06
7.22421e-06
7.22423e-06
7.22425e-06
7.22427e-06
7.22429e-06
7.22431e-06
7.22432e-06
7.22434e-06
7.22435e-06
7.22437e-06
7.22438e-06
7.2244e-06
7.22441e-06
7.22442e-06
7.22443e-06
7.22444e-06
7.22445e-06
7.22446e-06
7.22447e-06
7.22447e-06
7.22448e-06
7.22448e-06
7.22449e-06
7.22449e-06
7.22449e-06
7.22449e-06
7.22449e-06
7.22449e-06
7.22448e-06
7.22448e-06
7.22447e-06
7.22447e-06
7.22446e-06
7.22445e-06
7.22443e-06
7.22442e-06
7.2244e-06
7.22439e-06
7.22437e-06
7.22435e-06
7.22433e-06
7.2243e-06
7.22428e-06
7.22425e-06
7.22423e-06
7.2242e-06
7.22417e-06
7.22413e-06
7.2241e-06
7.22407e-06
7.22403e-06
7.22399e-06
7.22395e-06
7.22391e-06
7.22387e-06
7.22382e-06
7.22378e-06
7.22373e-06
7.22368e-06
7.22363e-06
7.22357e-06
7.22352e-06
7.22346e-06
7.2234e-06
7.22334e-06
7.22328e-06
7.22321e-06
7.22314e-06
7.22307e-06
7.223e-06
7.22293e-06
7.22285e-06
7.22277e-06
7.22269e-06
7.2226e-06
7.22251e-06
7.22242e-06
7.22233e-06
7.22224e-06
7.22215e-06
7.22205e-06
7.22196e-06
7.22186e-06
7.22176e-06
7.22167e-06
7.22158e-06
7.22148e-06
7.22139e-06
7.22131e-06
7.22123e-06
7.22115e-06
7.22108e-06
7.22102e-06
7.22096e-06
7.22092e-06
7.22081e-06
7.22107e-06
7.21995e-06
7.22008e-06
7.2201e-06
7.2201e-06
7.22011e-06
7.22012e-06
)
;

boundaryField
{
    boundary
    {
        type            empty;
        value           nonuniform 0();
    }
    inlet
    {
        type            calculated;
        value           uniform -6.93016e-06;
    }
    outlet
    {
        type            calculated;
        value           uniform 7.22015e-06;
    }
}


// ************************************************************************* //
