/*--------------------------------*- C++ -*----------------------------------*\
  =========                 |
  \\      /  F ield         | OpenFOAM: The Open Source CFD Toolbox
   \\    /   O peration     | Website:  https://openfoam.org
    \\  /    A nd           | Version:  7
     \\/     M anipulation  |
\*---------------------------------------------------------------------------*/
FoamFile
{
    version     2.0;
    format      ascii;
    class       surfaceScalarField;
    location    "0.00064";
    object      phi;
}
// * * * * * * * * * * * * * * * * * * * * * * * * * * * * * * * * * * * * * //

dimensions      [1 0 -1 0 0 0 0];

internalField   nonuniform List<scalar> 
123
(
7.25834e-06
7.25842e-06
7.2585e-06
7.25858e-06
7.25866e-06
7.25874e-06
7.25881e-06
7.25889e-06
7.25896e-06
7.25903e-06
7.25911e-06
7.25918e-06
7.25925e-06
7.25932e-06
7.25939e-06
7.25946e-06
7.25953e-06
7.2596e-06
7.25967e-06
7.25974e-06
7.25981e-06
7.25988e-06
7.25994e-06
7.26001e-06
7.26008e-06
7.26015e-06
7.26022e-06
7.26029e-06
7.26036e-06
7.26043e-06
7.2605e-06
7.26057e-06
7.26063e-06
7.2607e-06
7.26077e-06
7.26084e-06
7.2609e-06
7.26097e-06
7.26103e-06
7.26109e-06
7.26115e-06
7.26121e-06
7.26127e-06
7.26132e-06
7.26137e-06
7.26142e-06
7.26147e-06
7.26152e-06
7.26156e-06
7.2616e-06
7.26164e-06
7.26168e-06
7.26171e-06
7.26174e-06
7.26177e-06
7.2618e-06
7.26182e-06
7.26184e-06
7.26186e-06
7.26188e-06
7.2619e-06
7.26192e-06
7.26194e-06
7.26196e-06
7.26199e-06
7.26201e-06
7.26204e-06
7.26207e-06
7.26211e-06
7.26215e-06
7.26221e-06
7.26227e-06
7.26234e-06
7.26243e-06
7.26234e-06
7.26239e-06
7.26212e-06
7.26206e-06
7.26211e-06
7.2622e-06
7.26232e-06
7.26245e-06
7.26261e-06
7.26278e-06
7.26297e-06
7.26318e-06
7.26341e-06
7.26366e-06
7.26392e-06
7.2642e-06
7.2645e-06
7.26481e-06
7.26513e-06
7.26546e-06
7.2658e-06
7.26614e-06
7.26648e-06
7.26682e-06
7.26715e-06
7.26746e-06
7.26774e-06
7.268e-06
7.26822e-06
7.26839e-06
7.26851e-06
7.26856e-06
7.26854e-06
7.26843e-06
7.26823e-06
7.26792e-06
7.26749e-06
7.26692e-06
7.26622e-06
7.26536e-06
7.26433e-06
7.26313e-06
7.26173e-06
7.26014e-06
7.25835e-06
7.25634e-06
7.25412e-06
7.25168e-06
7.24906e-06
)
;

boundaryField
{
    boundary
    {
        type            empty;
        value           nonuniform 0();
    }
    inlet
    {
        type            calculated;
        value           nonuniform 0();
    }
    outlet
    {
        type            calculated;
        value           uniform 7.2463e-06;
    }
    procBoundary0to1
    {
        type            processor;
        value           uniform -7.25826e-06;
    }
}


// ************************************************************************* //
