/*--------------------------------*- C++ -*----------------------------------*\
  =========                 |
  \\      /  F ield         | OpenFOAM: The Open Source CFD Toolbox
   \\    /   O peration     | Website:  https://openfoam.org
    \\  /    A nd           | Version:  7
     \\/     M anipulation  |
\*---------------------------------------------------------------------------*/
FoamFile
{
    version     2.0;
    format      ascii;
    class       volScalarField;
    location    "0.00078";
    object      HO2;
}
// * * * * * * * * * * * * * * * * * * * * * * * * * * * * * * * * * * * * * //

dimensions      [0 0 0 0 0 0 0];

internalField   nonuniform List<scalar> 
124
(
2.79308e-06
2.7772e-06
2.76165e-06
2.74643e-06
2.73153e-06
2.71693e-06
2.70263e-06
2.68862e-06
2.67489e-06
2.66144e-06
2.64825e-06
2.63532e-06
2.62264e-06
2.6102e-06
2.59801e-06
2.58604e-06
2.5743e-06
2.56278e-06
2.55147e-06
2.54037e-06
2.52947e-06
2.51877e-06
2.50826e-06
2.49794e-06
2.4878e-06
2.47785e-06
2.46806e-06
2.45845e-06
2.44901e-06
2.43972e-06
2.4306e-06
2.42164e-06
2.41282e-06
2.40416e-06
2.39564e-06
2.38727e-06
2.37903e-06
2.37094e-06
2.36298e-06
2.35515e-06
2.34745e-06
2.33988e-06
2.33243e-06
2.3251e-06
2.3179e-06
2.31081e-06
2.30383e-06
2.29697e-06
2.29022e-06
2.28358e-06
2.27704e-06
2.2706e-06
2.26427e-06
2.25804e-06
2.2519e-06
2.24585e-06
2.2399e-06
2.23404e-06
2.22826e-06
2.22257e-06
2.21696e-06
2.21144e-06
2.20599e-06
2.20061e-06
2.19531e-06
2.19008e-06
2.18492e-06
2.17982e-06
2.17479e-06
2.16982e-06
2.1649e-06
2.16005e-06
2.15525e-06
2.1505e-06
2.1458e-06
2.14114e-06
2.13653e-06
2.13197e-06
2.12744e-06
2.12295e-06
2.11849e-06
2.11407e-06
2.10967e-06
2.1053e-06
2.10096e-06
2.09664e-06
2.09233e-06
2.08804e-06
2.08376e-06
2.07948e-06
2.07522e-06
2.07095e-06
2.06667e-06
2.06239e-06
2.05809e-06
2.05378e-06
2.04944e-06
2.04507e-06
2.04067e-06
2.03623e-06
2.03173e-06
2.02718e-06
2.02257e-06
2.01788e-06
2.01311e-06
2.00826e-06
2.0033e-06
1.99824e-06
1.99306e-06
1.98776e-06
1.98232e-06
1.97676e-06
1.97106e-06
1.96527e-06
1.95869e-06
1.94972e-06
1.94323e-06
1.93652e-06
1.92961e-06
1.92256e-06
1.9155e-06
1.90866e-06
1.90251e-06
1.89813e-06
)
;

boundaryField
{
    boundary
    {
        type            empty;
    }
    inlet
    {
        type            fixedValue;
        value           nonuniform 0();
    }
    outlet
    {
        type            zeroGradient;
    }
    procBoundary0to1
    {
        type            processor;
        value           uniform 2.80927e-06;
    }
}


// ************************************************************************* //
