/*--------------------------------*- C++ -*----------------------------------*\
  =========                 |
  \\      /  F ield         | OpenFOAM: The Open Source CFD Toolbox
   \\    /   O peration     | Website:  https://openfoam.org
    \\  /    A nd           | Version:  7
     \\/     M anipulation  |
\*---------------------------------------------------------------------------*/
FoamFile
{
    version     2.0;
    format      ascii;
    class       volScalarField;
    location    "0.00097";
    object      Qdot;
}
// * * * * * * * * * * * * * * * * * * * * * * * * * * * * * * * * * * * * * //

dimensions      [1 -1 -3 0 0 0 0];

internalField   nonuniform List<scalar> 
125
(
-2.45193e-27
-1.86213e-27
-1.73507e-27
-1.7079e-27
-1.70234e-27
-1.70149e-27
-1.70166e-27
-1.70205e-27
-1.70246e-27
-1.70282e-27
-1.70312e-27
-1.70335e-27
-1.70348e-27
-1.70349e-27
-1.70338e-27
-1.70312e-27
-1.70269e-27
-1.7021e-27
-1.70133e-27
-1.70039e-27
-1.69929e-27
-1.69804e-27
-1.69668e-27
-1.69523e-27
-1.69374e-27
-1.69224e-27
-1.69078e-27
-1.6894e-27
-1.68816e-27
-1.68709e-27
-1.68624e-27
-1.68565e-27
-1.68534e-27
-1.68536e-27
-1.68573e-27
-1.68647e-27
-1.68761e-27
-1.68918e-27
-1.69121e-27
-1.69371e-27
-1.69672e-27
-1.70029e-27
-1.70444e-27
-1.70922e-27
-1.71469e-27
-1.7209e-27
-1.72792e-27
-1.73581e-27
-1.74463e-27
-1.75447e-27
-1.76538e-27
-1.77743e-27
-1.79069e-27
-1.80522e-27
-1.82106e-27
-1.83826e-27
-1.85685e-27
-1.87682e-27
-1.8982e-27
-1.92094e-27
-1.94502e-27
-1.97037e-27
-1.99691e-27
-2.02456e-27
-2.05317e-27
-2.08262e-27
-2.11276e-27
-2.1434e-27
-2.17437e-27
-2.20548e-27
-2.23652e-27
-2.2673e-27
-2.29763e-27
-2.32732e-27
-2.35618e-27
-2.38406e-27
-2.4108e-27
-2.43629e-27
-2.46042e-27
-2.48311e-27
-2.5043e-27
-2.52396e-27
-2.54208e-27
-2.55867e-27
-2.57376e-27
-2.58739e-27
-2.59963e-27
-2.61055e-27
-2.62023e-27
-2.62876e-27
-2.63622e-27
-2.64271e-27
-2.64833e-27
-2.65316e-27
-2.65729e-27
-2.66079e-27
-2.66376e-27
-2.66625e-27
-2.66832e-27
-2.67005e-27
-2.67148e-27
-2.67266e-27
-2.67362e-27
-2.67441e-27
-2.67504e-27
-2.67556e-27
-2.67597e-27
-2.67631e-27
-2.67658e-27
-2.6768e-27
-2.67697e-27
-2.67711e-27
-2.67723e-27
-2.67733e-27
-2.67741e-27
-2.67748e-27
-2.67754e-27
-2.6776e-27
-2.67765e-27
-2.67769e-27
-2.67774e-27
-2.67778e-27
-2.67783e-27
-2.67787e-27
-2.67791e-27
)
;

boundaryField
{
    boundary
    {
        type            empty;
    }
    inlet
    {
        type            calculated;
        value           uniform 0;
    }
    outlet
    {
        type            calculated;
        value           nonuniform 0();
    }
    procBoundary2to3
    {
        type            processor;
        value           uniform 0;
    }
}


// ************************************************************************* //
