/*--------------------------------*- C++ -*----------------------------------*\
  =========                 |
  \\      /  F ield         | OpenFOAM: The Open Source CFD Toolbox
   \\    /   O peration     | Website:  https://openfoam.org
    \\  /    A nd           | Version:  7
     \\/     M anipulation  |
\*---------------------------------------------------------------------------*/
FoamFile
{
    version     2.0;
    format      ascii;
    class       volScalarField;
    location    "0.00097";
    object      T;
}
// * * * * * * * * * * * * * * * * * * * * * * * * * * * * * * * * * * * * * //

dimensions      [0 0 0 1 0 0 0];

internalField   nonuniform List<scalar> 
125
(
300
300
300
300.001
300.001
300.002
300.003
300.004
300.005
300.005
300.006
300.006
300.007
300.007
300.006
300.006
300.005
300.004
300.003
300.001
299.999
299.996
299.994
299.991
299.988
299.985
299.982
299.979
299.977
299.975
299.973
299.972
299.971
299.971
299.972
299.973
299.976
299.979
299.983
299.987
299.993
300
300.008
300.018
300.028
300.04
300.054
300.069
300.086
300.104
300.125
300.147
300.172
300.199
300.228
300.259
300.292
300.328
300.366
300.405
300.447
300.49
300.534
300.58
300.627
300.674
300.722
300.771
300.819
300.866
300.913
300.959
301.003
301.046
301.088
301.127
301.165
301.2
301.233
301.264
301.293
301.32
301.344
301.366
301.386
301.404
301.42
301.434
301.446
301.458
301.467
301.476
301.483
301.489
301.494
301.499
301.503
301.506
301.509
301.511
301.513
301.514
301.515
301.516
301.517
301.518
301.518
301.519
301.519
301.52
301.52
301.52
301.52
301.52
301.52
301.52
301.52
301.521
301.521
301.521
301.521
301.521
301.521
301.521
301.521
)
;

boundaryField
{
    boundary
    {
        type            empty;
    }
    inlet
    {
        type            fixedValue;
        value           uniform 300;
    }
    outlet
    {
        type            zeroGradient;
    }
    procBoundary2to3
    {
        type            processor;
        value           uniform 301.521;
    }
}


// ************************************************************************* //
