/*--------------------------------*- C++ -*----------------------------------*\
  =========                 |
  \\      /  F ield         | OpenFOAM: The Open Source CFD Toolbox
   \\    /   O peration     | Website:  https://openfoam.org
    \\  /    A nd           | Version:  7
     \\/     M anipulation  |
\*---------------------------------------------------------------------------*/
FoamFile
{
    version     2.0;
    format      ascii;
    class       volScalarField;
    location    "0.00071";
    object      H2O2;
}
// * * * * * * * * * * * * * * * * * * * * * * * * * * * * * * * * * * * * * //

dimensions      [0 0 0 0 0 0 0];

internalField   nonuniform List<scalar> 
125
(
5.09366e-20
2.17737e-19
9.28429e-19
3.9552e-18
1.68389e-17
7.16426e-17
3.0458e-16
1.29375e-15
5.48991e-15
2.32699e-14
9.85146e-14
4.16539e-13
1.75897e-12
7.41875e-12
3.12557e-11
1.31565e-10
5.53462e-10
2.32762e-09
9.78939e-09
4.11804e-08
1.73184e-07
7.2614e-07
3.0038e-06
1.18242e-05
3.9723e-05
8.96691e-05
0.000121649
0.000112166
6.56416e-05
2.85134e-05
1.14735e-05
5.74526e-06
4.445e-06
4.63947e-06
5.3265e-06
5.91767e-06
6.3575e-06
6.62691e-06
6.75067e-06
6.76404e-06
6.69917e-06
6.58158e-06
6.43008e-06
6.25807e-06
6.07491e-06
5.88701e-06
5.6987e-06
5.51291e-06
5.33154e-06
5.15579e-06
4.98639e-06
4.82371e-06
4.66792e-06
4.51901e-06
4.37685e-06
4.24128e-06
4.11204e-06
3.98891e-06
3.87161e-06
3.75992e-06
3.65365e-06
3.55567e-06
3.46347e-06
3.37495e-06
3.28994e-06
3.20825e-06
3.12972e-06
3.0542e-06
2.98156e-06
2.91165e-06
2.84434e-06
2.77951e-06
2.71705e-06
2.65684e-06
2.59879e-06
2.54278e-06
2.48873e-06
2.43655e-06
2.38616e-06
2.33747e-06
2.29041e-06
2.2449e-06
2.20088e-06
2.15829e-06
2.11706e-06
2.07713e-06
2.03844e-06
2.00095e-06
1.9646e-06
1.92935e-06
1.89515e-06
1.86196e-06
1.82973e-06
1.79843e-06
1.76802e-06
1.73846e-06
1.70973e-06
1.68178e-06
1.6546e-06
1.62814e-06
1.60239e-06
1.57732e-06
1.5529e-06
1.52911e-06
1.50592e-06
1.48332e-06
1.46128e-06
1.43978e-06
1.41881e-06
1.39835e-06
1.37838e-06
1.35888e-06
1.33985e-06
1.32125e-06
1.30309e-06
1.28534e-06
1.26799e-06
1.25103e-06
1.23445e-06
1.21824e-06
1.20239e-06
1.18689e-06
1.17172e-06
1.1569e-06
1.1424e-06
)
;

boundaryField
{
    boundary
    {
        type            empty;
    }
    inlet
    {
        type            fixedValue;
        value           nonuniform 0();
    }
    outlet
    {
        type            zeroGradient;
    }
    procBoundary1to0
    {
        type            processor;
        value           uniform 1.1282e-06;
    }
    procBoundary1to3
    {
        type            processor;
        value           uniform 1.18692e-20;
    }
}


// ************************************************************************* //
