/*--------------------------------*- C++ -*----------------------------------*\
  =========                 |
  \\      /  F ield         | OpenFOAM: The Open Source CFD Toolbox
   \\    /   O peration     | Website:  https://openfoam.org
    \\  /    A nd           | Version:  7
     \\/     M anipulation  |
\*---------------------------------------------------------------------------*/
FoamFile
{
    version     2.0;
    format      ascii;
    class       surfaceScalarField;
    location    "0.00071";
    object      phi;
}
// * * * * * * * * * * * * * * * * * * * * * * * * * * * * * * * * * * * * * //

dimensions      [1 0 -1 0 0 0 0];

internalField   nonuniform List<scalar> 
124
(
6.90645e-06
6.90653e-06
6.90661e-06
6.90669e-06
6.90678e-06
6.90687e-06
6.90695e-06
6.90705e-06
6.90714e-06
6.90723e-06
6.90733e-06
6.90742e-06
6.90752e-06
6.90762e-06
6.90772e-06
6.90782e-06
6.90792e-06
6.90804e-06
6.90818e-06
6.90843e-06
6.909e-06
6.91054e-06
6.91491e-06
6.92703e-06
6.95673e-06
7.0101e-06
7.06981e-06
7.11493e-06
7.14418e-06
7.16353e-06
7.177e-06
7.18639e-06
7.19236e-06
7.19664e-06
7.20039e-06
7.20358e-06
7.20605e-06
7.20806e-06
7.20972e-06
7.21114e-06
7.21236e-06
7.21344e-06
7.21439e-06
7.21525e-06
7.21602e-06
7.21673e-06
7.21737e-06
7.21796e-06
7.21851e-06
7.21902e-06
7.21949e-06
7.21993e-06
7.22034e-06
7.22073e-06
7.2211e-06
7.22144e-06
7.22177e-06
7.22208e-06
7.22238e-06
7.22266e-06
7.22293e-06
7.22317e-06
7.22341e-06
7.22363e-06
7.22385e-06
7.22406e-06
7.22426e-06
7.22445e-06
7.22463e-06
7.22481e-06
7.22498e-06
7.22515e-06
7.22531e-06
7.22546e-06
7.22561e-06
7.22575e-06
7.22589e-06
7.22602e-06
7.22615e-06
7.22627e-06
7.22639e-06
7.22651e-06
7.22663e-06
7.22674e-06
7.22685e-06
7.22695e-06
7.22706e-06
7.22716e-06
7.22726e-06
7.22736e-06
7.22745e-06
7.22755e-06
7.22764e-06
7.22773e-06
7.22782e-06
7.2279e-06
7.22799e-06
7.22807e-06
7.22815e-06
7.22823e-06
7.22831e-06
7.22839e-06
7.22846e-06
7.22853e-06
7.2286e-06
7.22867e-06
7.22874e-06
7.22881e-06
7.22887e-06
7.22893e-06
7.229e-06
7.22906e-06
7.22912e-06
7.22917e-06
7.22923e-06
7.22929e-06
7.22934e-06
7.2294e-06
7.22945e-06
7.2295e-06
7.22955e-06
7.2296e-06
7.22965e-06
7.2297e-06
)
;

boundaryField
{
    boundary
    {
        type            empty;
        value           nonuniform 0();
    }
    inlet
    {
        type            calculated;
        value           nonuniform 0();
    }
    outlet
    {
        type            calculated;
        value           nonuniform 0();
    }
    procBoundary1to0
    {
        type            processor;
        value           uniform 7.22975e-06;
    }
    procBoundary1to3
    {
        type            processor;
        value           uniform -6.90637e-06;
    }
}


// ************************************************************************* //
