/*--------------------------------*- C++ -*----------------------------------*\
  =========                 |
  \\      /  F ield         | OpenFOAM: The Open Source CFD Toolbox
   \\    /   O peration     | Website:  https://openfoam.org
    \\  /    A nd           | Version:  7
     \\/     M anipulation  |
\*---------------------------------------------------------------------------*/
FoamFile
{
    version     2.0;
    format      ascii;
    class       volScalarField;
    location    "0.00071";
    object      T;
}
// * * * * * * * * * * * * * * * * * * * * * * * * * * * * * * * * * * * * * //

dimensions      [0 0 0 1 0 0 0];

internalField   nonuniform List<scalar> 
125
(
301.477
301.475
301.473
301.47
301.468
301.466
301.464
301.461
301.458
301.456
301.453
301.451
301.448
301.445
301.443
301.442
301.444
301.455
301.49
301.596
301.901
302.769
305.239
312.232
331.524
379.646
475.204
614.358
769.376
920.696
1063.03
1192.73
1303.22
1397.53
1477.34
1540.55
1590.85
1633.45
1670.03
1701.94
1730.16
1755.4
1778.17
1798.89
1817.86
1835.32
1851.48
1866.5
1880.52
1893.63
1905.94
1917.53
1928.47
1938.82
1948.63
1957.95
1966.81
1975.25
1983.3
1990.99
1998.33
2005.15
2011.58
2017.79
2023.81
2029.62
2035.26
2040.72
2046.02
2051.16
2056.15
2061
2065.72
2070.31
2074.77
2079.12
2083.36
2087.5
2091.53
2095.46
2099.3
2103.05
2106.72
2110.3
2113.8
2117.22
2120.58
2123.86
2127.07
2130.21
2133.3
2136.32
2139.28
2142.18
2145.03
2147.82
2150.57
2153.26
2155.9
2158.5
2161.05
2163.55
2166.02
2168.44
2170.82
2173.16
2175.46
2177.72
2179.95
2182.15
2184.3
2186.43
2188.52
2190.58
2192.61
2194.61
2196.58
2198.52
2200.43
2202.31
2204.17
2206
2207.8
2209.57
2211.32
)
;

boundaryField
{
    boundary
    {
        type            empty;
    }
    inlet
    {
        type            fixedValue;
        value           nonuniform 0();
    }
    outlet
    {
        type            zeroGradient;
    }
    procBoundary1to0
    {
        type            processor;
        value           uniform 2213.04;
    }
    procBoundary1to3
    {
        type            processor;
        value           uniform 301.479;
    }
}


// ************************************************************************* //
