/*--------------------------------*- C++ -*----------------------------------*\
  =========                 |
  \\      /  F ield         | OpenFOAM: The Open Source CFD Toolbox
   \\    /   O peration     | Website:  https://openfoam.org
    \\  /    A nd           | Version:  7
     \\/     M anipulation  |
\*---------------------------------------------------------------------------*/
FoamFile
{
    version     2.0;
    format      ascii;
    class       volScalarField;
    location    "0.00019";
    object      HO2;
}
// * * * * * * * * * * * * * * * * * * * * * * * * * * * * * * * * * * * * * //

dimensions      [0 0 0 0 0 0 0];

internalField   nonuniform List<scalar> 
126
(
1.37781e-36
1.37795e-36
1.37814e-36
1.37839e-36
1.37874e-36
1.37921e-36
1.37983e-36
1.38061e-36
1.38157e-36
1.38268e-36
1.3839e-36
1.38519e-36
1.38648e-36
1.38771e-36
1.38883e-36
1.38981e-36
1.39064e-36
1.39131e-36
1.39184e-36
1.39225e-36
1.39256e-36
1.39279e-36
1.39297e-36
1.39311e-36
1.39322e-36
1.39332e-36
1.39339e-36
1.39346e-36
1.39352e-36
1.39357e-36
1.39362e-36
1.39367e-36
1.39371e-36
1.39374e-36
1.39377e-36
1.39379e-36
1.39381e-36
1.39382e-36
1.39383e-36
1.39383e-36
1.39382e-36
1.3938e-36
1.39378e-36
1.39374e-36
1.3937e-36
1.39365e-36
1.39359e-36
1.39352e-36
1.39343e-36
1.39334e-36
1.39324e-36
1.39312e-36
1.39299e-36
1.39285e-36
1.39269e-36
1.39253e-36
1.39234e-36
1.39214e-36
1.39193e-36
1.3917e-36
1.39145e-36
1.39119e-36
1.39091e-36
1.39061e-36
1.3903e-36
1.38996e-36
1.38961e-36
1.38924e-36
1.38884e-36
1.38843e-36
1.38799e-36
1.38754e-36
1.38706e-36
1.38656e-36
1.38604e-36
1.3855e-36
1.38493e-36
1.38434e-36
1.38373e-36
1.38309e-36
1.38243e-36
1.38174e-36
1.38104e-36
1.3803e-36
1.37955e-36
1.37877e-36
1.37796e-36
1.37714e-36
1.37629e-36
1.37541e-36
1.37451e-36
1.37359e-36
1.37265e-36
1.37169e-36
1.3707e-36
1.36969e-36
1.36866e-36
1.36761e-36
1.36654e-36
1.36545e-36
1.36435e-36
1.36323e-36
1.36217e-36
1.3615e-36
1.36316e-36
1.37868e-36
1.47561e-36
2.05057e-36
5.43193e-36
2.52945e-35
1.41994e-34
8.27948e-34
4.86166e-33
2.8589e-32
1.68188e-31
9.89655e-31
5.8246e-30
3.42921e-29
2.02001e-28
1.19083e-27
7.0269e-27
4.15076e-26
2.45404e-25
1.45156e-24
8.5832e-24
5.0679e-23
)
;

boundaryField
{
    boundary
    {
        type            empty;
    }
    inlet
    {
        type            fixedValue;
        value           nonuniform 0();
    }
    outlet
    {
        type            zeroGradient;
    }
    procBoundary3to1
    {
        type            processor;
        value           uniform 3.12208e-22;
    }
    procBoundary3to2
    {
        type            processor;
        value           uniform 1.38576e-36;
    }
}


// ************************************************************************* //
