/*--------------------------------*- C++ -*----------------------------------*\
  =========                 |
  \\      /  F ield         | OpenFOAM: The Open Source CFD Toolbox
   \\    /   O peration     | Website:  https://openfoam.org
    \\  /    A nd           | Version:  7
     \\/     M anipulation  |
\*---------------------------------------------------------------------------*/
FoamFile
{
    version     2.0;
    format      ascii;
    class       volScalarField;
    location    "0.00019";
    object      T;
}
// * * * * * * * * * * * * * * * * * * * * * * * * * * * * * * * * * * * * * //

dimensions      [0 0 0 1 0 0 0];

internalField   nonuniform List<scalar> 
126
(
301.475
301.475
301.475
301.475
301.475
301.476
301.476
301.476
301.476
301.476
301.477
301.477
301.477
301.478
301.478
301.478
301.479
301.479
301.479
301.479
301.48
301.48
301.48
301.48
301.481
301.481
301.481
301.481
301.481
301.482
301.482
301.482
301.482
301.482
301.482
301.483
301.483
301.483
301.483
301.483
301.483
301.483
301.483
301.483
301.483
301.483
301.483
301.482
301.482
301.482
301.482
301.482
301.481
301.481
301.481
301.481
301.48
301.48
301.479
301.479
301.478
301.478
301.477
301.476
301.476
301.475
301.474
301.473
301.472
301.471
301.47
301.469
301.468
301.467
301.466
301.464
301.463
301.462
301.46
301.459
301.457
301.455
301.454
301.452
301.45
301.448
301.446
301.444
301.442
301.44
301.438
301.436
301.433
301.431
301.429
301.426
301.424
301.421
301.419
301.416
301.413
301.411
301.408
301.405
301.402
301.399
301.396
301.393
301.39
301.387
301.384
301.381
301.378
301.375
301.372
301.369
301.366
301.362
301.359
301.356
301.353
301.349
301.346
301.343
301.339
301.336
)
;

boundaryField
{
    boundary
    {
        type            empty;
    }
    inlet
    {
        type            fixedValue;
        value           nonuniform 0();
    }
    outlet
    {
        type            zeroGradient;
    }
    procBoundary3to1
    {
        type            processor;
        value           uniform 301.333;
    }
    procBoundary3to2
    {
        type            processor;
        value           uniform 301.474;
    }
}


// ************************************************************************* //
