/*--------------------------------*- C++ -*----------------------------------*\
  =========                 |
  \\      /  F ield         | OpenFOAM: The Open Source CFD Toolbox
   \\    /   O peration     | Website:  https://openfoam.org
    \\  /    A nd           | Version:  7
     \\/     M anipulation  |
\*---------------------------------------------------------------------------*/
FoamFile
{
    version     2.0;
    format      ascii;
    class       volScalarField;
    location    "0.00017";
    object      H2O;
}
// * * * * * * * * * * * * * * * * * * * * * * * * * * * * * * * * * * * * * //

dimensions      [0 0 0 0 0 0 0];

internalField   nonuniform List<scalar> 
126
(
4.11322e-46
4.11116e-46
4.10556e-46
4.09857e-46
4.09229e-46
4.08804e-46
4.08631e-46
4.08698e-46
4.08955e-46
4.09343e-46
4.09801e-46
4.10277e-46
4.10735e-46
4.11147e-46
4.115e-46
4.11791e-46
4.12021e-46
4.12199e-46
4.12333e-46
4.12434e-46
4.12509e-46
4.12565e-46
4.12609e-46
4.12645e-46
4.12674e-46
4.12699e-46
4.12721e-46
4.12741e-46
4.12759e-46
4.12775e-46
4.12789e-46
4.12801e-46
4.12812e-46
4.1282e-46
4.12826e-46
4.1283e-46
4.12831e-46
4.1283e-46
4.12826e-46
4.1282e-46
4.1281e-46
4.12797e-46
4.12781e-46
4.12761e-46
4.12738e-46
4.12711e-46
4.1268e-46
4.12645e-46
4.12605e-46
4.12561e-46
4.12512e-46
4.12459e-46
4.124e-46
4.12336e-46
4.12267e-46
4.12192e-46
4.12111e-46
4.12024e-46
4.11931e-46
4.11832e-46
4.11726e-46
4.11614e-46
4.11494e-46
4.11368e-46
4.11234e-46
4.11093e-46
4.10944e-46
4.10787e-46
4.10622e-46
4.1045e-46
4.10269e-46
4.1008e-46
4.09882e-46
4.09675e-46
4.0946e-46
4.09236e-46
4.09004e-46
4.08762e-46
4.08511e-46
4.08251e-46
4.07982e-46
4.07704e-46
4.07416e-46
4.0712e-46
4.06814e-46
4.06499e-46
4.06175e-46
4.05842e-46
4.055e-46
4.05149e-46
4.04789e-46
4.04421e-46
4.04045e-46
4.03662e-46
4.03287e-46
4.03037e-46
4.03871e-46
4.13587e-46
4.94991e-46
1.14905e-45
6.3335e-45
4.70185e-44
3.63294e-43
2.79951e-42
2.14001e-41
1.62226e-40
1.22009e-39
9.11031e-39
6.75952e-38
4.98873e-37
3.66663e-36
2.68717e-35
1.96614e-34
1.43778e-33
1.05165e-32
7.69639e-32
5.63463e-31
4.12388e-30
3.01386e-29
2.1963e-28
1.59326e-27
1.14837e-26
8.20661e-26
5.8024e-25
4.05302e-24
2.79765e-23
)
;

boundaryField
{
    boundary
    {
        type            empty;
    }
    inlet
    {
        type            fixedValue;
        value           nonuniform 0();
    }
    outlet
    {
        type            zeroGradient;
    }
    procBoundary3to1
    {
        type            processor;
        value           uniform 1.93636e-22;
    }
    procBoundary3to2
    {
        type            processor;
        value           uniform 4.11684e-46;
    }
}


// ************************************************************************* //
