/*--------------------------------*- C++ -*----------------------------------*\
  =========                 |
  \\      /  F ield         | OpenFOAM: The Open Source CFD Toolbox
   \\    /   O peration     | Website:  https://openfoam.org
    \\  /    A nd           | Version:  7
     \\/     M anipulation  |
\*---------------------------------------------------------------------------*/
FoamFile
{
    version     2.0;
    format      ascii;
    class       volScalarField;
    location    "0.00017";
    object      OH;
}
// * * * * * * * * * * * * * * * * * * * * * * * * * * * * * * * * * * * * * //

dimensions      [0 0 0 0 0 0 0];

internalField   nonuniform List<scalar> 
126
(
6.3303e-47
6.33063e-47
6.33094e-47
6.33122e-47
6.3315e-47
6.33179e-47
6.33211e-47
6.33248e-47
6.33293e-47
6.33345e-47
6.33404e-47
6.33467e-47
6.33533e-47
6.33599e-47
6.33664e-47
6.33726e-47
6.33785e-47
6.33839e-47
6.3389e-47
6.33938e-47
6.33982e-47
6.34024e-47
6.34063e-47
6.341e-47
6.34135e-47
6.34168e-47
6.34199e-47
6.34227e-47
6.34254e-47
6.34277e-47
6.34298e-47
6.34316e-47
6.34332e-47
6.34344e-47
6.34352e-47
6.34357e-47
6.34359e-47
6.34356e-47
6.34349e-47
6.34338e-47
6.34322e-47
6.34301e-47
6.34275e-47
6.34244e-47
6.34207e-47
6.34164e-47
6.34115e-47
6.34059e-47
6.33998e-47
6.33929e-47
6.33853e-47
6.33769e-47
6.33678e-47
6.33579e-47
6.33471e-47
6.33355e-47
6.3323e-47
6.33096e-47
6.32952e-47
6.32799e-47
6.32636e-47
6.32463e-47
6.32279e-47
6.32085e-47
6.31879e-47
6.31663e-47
6.31434e-47
6.31195e-47
6.30943e-47
6.30679e-47
6.30402e-47
6.30113e-47
6.29812e-47
6.29497e-47
6.2917e-47
6.28829e-47
6.28475e-47
6.28107e-47
6.27726e-47
6.27331e-47
6.26923e-47
6.26501e-47
6.26066e-47
6.25617e-47
6.25154e-47
6.24678e-47
6.24189e-47
6.23686e-47
6.2317e-47
6.22641e-47
6.22099e-47
6.21545e-47
6.20981e-47
6.20424e-47
6.20009e-47
6.20817e-47
6.31416e-47
7.18995e-47
1.40468e-46
6.68549e-46
4.68741e-45
3.49249e-44
2.59839e-43
1.91359e-42
1.39323e-41
1.00255e-40
7.12915e-40
5.00907e-39
3.47695e-38
2.38394e-37
1.61426e-36
1.07934e-35
7.1247e-35
4.64217e-34
2.98496e-33
1.89382e-32
1.18534e-31
7.31772e-31
4.45518e-30
2.6745e-29
1.58289e-28
9.23492e-28
5.31063e-27
3.00992e-26
1.68127e-25
9.25519e-25
)
;

boundaryField
{
    boundary
    {
        type            empty;
    }
    inlet
    {
        type            fixedValue;
        value           nonuniform 0();
    }
    outlet
    {
        type            zeroGradient;
    }
    procBoundary3to1
    {
        type            processor;
        value           uniform 5.03078e-24;
    }
    procBoundary3to2
    {
        type            processor;
        value           uniform 6.33015e-47;
    }
}


// ************************************************************************* //
