/*--------------------------------*- C++ -*----------------------------------*\
  =========                 |
  \\      /  F ield         | OpenFOAM: The Open Source CFD Toolbox
   \\    /   O peration     | Website:  https://openfoam.org
    \\  /    A nd           | Version:  7
     \\/     M anipulation  |
\*---------------------------------------------------------------------------*/
FoamFile
{
    version     2.0;
    format      ascii;
    class       volScalarField;
    location    "0.00017";
    object      Qdot;
}
// * * * * * * * * * * * * * * * * * * * * * * * * * * * * * * * * * * * * * //

dimensions      [1 -1 -3 0 0 0 0];

internalField   nonuniform List<scalar> 
126
(
-2.63366e-27
-2.63379e-27
-2.63395e-27
-2.63411e-27
-2.63427e-27
-2.63443e-27
-2.6346e-27
-2.63479e-27
-2.63499e-27
-2.63521e-27
-2.63545e-27
-2.6357e-27
-2.63595e-27
-2.6362e-27
-2.63645e-27
-2.63669e-27
-2.63692e-27
-2.63714e-27
-2.63735e-27
-2.63755e-27
-2.63774e-27
-2.63793e-27
-2.6381e-27
-2.63827e-27
-2.63843e-27
-2.63859e-27
-2.63874e-27
-2.63888e-27
-2.63901e-27
-2.63913e-27
-2.63925e-27
-2.63935e-27
-2.63945e-27
-2.63953e-27
-2.6396e-27
-2.63966e-27
-2.63971e-27
-2.63974e-27
-2.63976e-27
-2.63977e-27
-2.63975e-27
-2.63972e-27
-2.63968e-27
-2.63961e-27
-2.63953e-27
-2.63942e-27
-2.6393e-27
-2.63915e-27
-2.63898e-27
-2.63879e-27
-2.63857e-27
-2.63833e-27
-2.63806e-27
-2.63776e-27
-2.63744e-27
-2.63709e-27
-2.6367e-27
-2.63629e-27
-2.63584e-27
-2.63536e-27
-2.63485e-27
-2.6343e-27
-2.63372e-27
-2.6331e-27
-2.63244e-27
-2.63174e-27
-2.63101e-27
-2.63024e-27
-2.62942e-27
-2.62857e-27
-2.62767e-27
-2.62673e-27
-2.62575e-27
-2.62472e-27
-2.62365e-27
-2.62253e-27
-2.62137e-27
-2.62016e-27
-2.61891e-27
-2.61761e-27
-2.61627e-27
-2.61488e-27
-2.61344e-27
-2.61196e-27
-2.61043e-27
-2.60885e-27
-2.60723e-27
-2.60556e-27
-2.60385e-27
-2.6021e-27
-2.6003e-27
-2.59846e-27
-2.59658e-27
-2.59465e-27
-2.59269e-27
-2.59068e-27
-2.58864e-27
-2.58656e-27
-2.58445e-27
-2.5823e-27
-2.58011e-27
-2.57787e-27
-2.57535e-27
-2.57119e-27
-2.55562e-27
-2.46145e-27
-1.82903e-27
2.45371e-27
3.12422e-26
2.22821e-25
1.4841e-24
9.69593e-24
6.25519e-23
3.9878e-22
2.51193e-21
1.56296e-20
9.60374e-20
5.82601e-19
3.4885e-18
2.06133e-17
1.20175e-16
6.91127e-16
3.9203e-15
2.19302e-14
1.20973e-13
6.58e-13
)
;

boundaryField
{
    boundary
    {
        type            empty;
    }
    inlet
    {
        type            calculated;
        value           nonuniform 0();
    }
    outlet
    {
        type            calculated;
        value           nonuniform 0();
    }
    procBoundary3to1
    {
        type            processor;
        value           uniform 0;
    }
    procBoundary3to2
    {
        type            processor;
        value           uniform 0;
    }
}


// ************************************************************************* //
