/*--------------------------------*- C++ -*----------------------------------*\
  =========                 |
  \\      /  F ield         | OpenFOAM: The Open Source CFD Toolbox
   \\    /   O peration     | Website:  https://openfoam.org
    \\  /    A nd           | Version:  7
     \\/     M anipulation  |
\*---------------------------------------------------------------------------*/
FoamFile
{
    version     2.0;
    format      ascii;
    class       volScalarField;
    location    "0.00029";
    object      H2O;
}
// * * * * * * * * * * * * * * * * * * * * * * * * * * * * * * * * * * * * * //

dimensions      [0 0 0 0 0 0 0];

internalField   nonuniform List<scalar> 
126
(
8.03623e-46
8.03603e-46
8.03555e-46
8.03469e-46
8.03336e-46
8.03153e-46
8.02925e-46
8.02659e-46
8.02367e-46
8.02065e-46
8.0177e-46
8.01499e-46
8.01272e-46
8.01107e-46
8.01015e-46
8.01006e-46
8.01081e-46
8.01234e-46
8.01452e-46
8.01722e-46
8.02024e-46
8.02342e-46
8.0266e-46
8.02965e-46
8.03249e-46
8.03505e-46
8.03732e-46
8.03929e-46
8.04097e-46
8.0424e-46
8.04361e-46
8.04463e-46
8.0455e-46
8.04625e-46
8.04689e-46
8.04745e-46
8.04794e-46
8.04837e-46
8.04876e-46
8.04909e-46
8.04938e-46
8.04962e-46
8.04982e-46
8.04997e-46
8.05007e-46
8.05012e-46
8.05012e-46
8.05006e-46
8.04994e-46
8.04976e-46
8.04951e-46
8.0492e-46
8.04881e-46
8.04835e-46
8.04781e-46
8.04719e-46
8.04649e-46
8.04569e-46
8.04481e-46
8.04383e-46
8.04275e-46
8.04157e-46
8.04028e-46
8.03888e-46
8.03737e-46
8.03574e-46
8.03399e-46
8.03212e-46
8.03012e-46
8.02798e-46
8.02572e-46
8.02331e-46
8.02076e-46
8.01807e-46
8.01523e-46
8.01223e-46
8.00908e-46
8.00578e-46
8.00231e-46
7.99868e-46
7.99489e-46
7.99093e-46
7.9868e-46
7.9825e-46
7.97803e-46
7.9734e-46
7.96875e-46
7.96479e-46
7.96601e-46
7.99931e-46
8.22562e-46
9.59931e-46
1.77378e-45
6.54786e-45
3.43602e-44
1.95481e-43
1.12476e-42
6.46825e-42
3.71507e-41
2.13406e-40
1.22836e-39
7.09876e-39
4.12654e-38
2.41654e-37
1.42699e-36
8.49917e-36
5.10296e-35
3.08464e-34
1.87375e-33
1.14121e-32
6.95207e-32
4.2258e-31
2.5572e-30
1.53744e-29
9.16722e-29
5.41286e-28
3.16096e-27
1.82375e-26
1.03871e-25
5.83593e-25
3.23265e-24
1.76456e-23
9.48782e-23
5.02342e-22
2.61823e-21
1.34303e-20
)
;

boundaryField
{
    boundary
    {
        type            empty;
    }
    inlet
    {
        type            fixedValue;
        value           nonuniform 0();
    }
    outlet
    {
        type            zeroGradient;
    }
    procBoundary3to1
    {
        type            processor;
        value           uniform 6.737e-20;
    }
    procBoundary3to2
    {
        type            processor;
        value           uniform 8.02939e-46;
    }
}


// ************************************************************************* //
