/*--------------------------------*- C++ -*----------------------------------*\
  =========                 |
  \\      /  F ield         | OpenFOAM: The Open Source CFD Toolbox
   \\    /   O peration     | Website:  https://openfoam.org
    \\  /    A nd           | Version:  7
     \\/     M anipulation  |
\*---------------------------------------------------------------------------*/
FoamFile
{
    version     2.0;
    format      ascii;
    class       volScalarField;
    location    "7e-05";
    object      H2O2;
}
// * * * * * * * * * * * * * * * * * * * * * * * * * * * * * * * * * * * * * //

dimensions      [0 0 0 0 0 0 0];

internalField   nonuniform List<scalar> 
125
(
1.47809e-31
2.05129e-30
2.77619e-29
3.69037e-28
4.81502e-27
6.16119e-26
7.7246e-25
9.4801e-24
1.1377e-22
1.33367e-21
1.52534e-20
1.69995e-19
1.84366e-18
1.94303e-17
1.98687e-16
1.96803e-15
1.8849e-14
1.74214e-13
1.55046e-12
1.32529e-11
1.08475e-10
8.47022e-10
6.27996e-09
4.3932e-08
2.87306e-07
1.727e-06
9.15874e-06
3.83172e-05
9.84708e-05
0.000136012
0.000125066
7.24611e-05
3.12288e-05
1.2484e-05
6.11435e-06
4.54342e-06
4.59854e-06
5.104e-06
5.61936e-06
5.99745e-06
6.21347e-06
6.28796e-06
6.25242e-06
6.13597e-06
5.96158e-06
5.74605e-06
5.50129e-06
5.23563e-06
4.95521e-06
4.66475e-06
4.36822e-06
4.06924e-06
3.77135e-06
3.47804e-06
3.19265e-06
2.91828e-06
2.65762e-06
2.41281e-06
2.18539e-06
1.97625e-06
1.78571e-06
1.61874e-06
1.47032e-06
1.33631e-06
1.2158e-06
1.10777e-06
1.01118e-06
9.24971e-07
8.48108e-07
7.79616e-07
7.18584e-07
6.64178e-07
6.15639e-07
5.7229e-07
5.33527e-07
4.98817e-07
4.6769e-07
4.39734e-07
4.14589e-07
3.9194e-07
3.71514e-07
3.5307e-07
3.364e-07
3.21322e-07
3.07678e-07
2.95327e-07
2.84146e-07
2.74028e-07
2.64875e-07
2.56602e-07
2.49131e-07
2.42393e-07
2.36324e-07
2.30867e-07
2.25969e-07
2.2158e-07
2.17657e-07
2.14156e-07
2.11041e-07
2.08274e-07
2.05823e-07
2.03657e-07
2.01748e-07
2.00069e-07
1.98596e-07
1.97308e-07
1.96183e-07
1.95205e-07
1.94355e-07
1.93619e-07
1.92983e-07
1.92435e-07
1.91963e-07
1.91559e-07
1.91213e-07
1.90917e-07
1.90665e-07
1.9045e-07
1.90267e-07
1.90111e-07
1.89978e-07
1.89863e-07
1.89764e-07
1.89675e-07
1.89589e-07
)
;

boundaryField
{
    boundary
    {
        type            empty;
    }
    inlet
    {
        type            fixedValue;
        value           nonuniform 0();
    }
    outlet
    {
        type            zeroGradient;
    }
    procBoundary1to0
    {
        type            processor;
        value           uniform 1.89522e-07;
    }
    procBoundary1to3
    {
        type            processor;
        value           uniform 7.76974e-33;
    }
}


// ************************************************************************* //
