/*--------------------------------*- C++ -*----------------------------------*\
  =========                 |
  \\      /  F ield         | OpenFOAM: The Open Source CFD Toolbox
   \\    /   O peration     | Website:  https://openfoam.org
    \\  /    A nd           | Version:  7
     \\/     M anipulation  |
\*---------------------------------------------------------------------------*/
FoamFile
{
    version     2.0;
    format      ascii;
    class       volScalarField;
    location    "7e-05";
    object      HO2;
}
// * * * * * * * * * * * * * * * * * * * * * * * * * * * * * * * * * * * * * //

dimensions      [0 0 0 0 0 0 0];

internalField   nonuniform List<scalar> 
125
(
9.82084e-25
5.52765e-24
3.08838e-23
1.72947e-22
9.72181e-22
5.49056e-21
3.11917e-20
1.78539e-19
1.03193e-18
6.03892e-18
3.58877e-17
2.17173e-16
1.34069e-15
8.44394e-15
5.41278e-14
3.51387e-13
2.29345e-12
1.49193e-11
9.58468e-11
6.02753e-10
3.68106e-09
2.16576e-08
1.21787e-07
6.47848e-07
3.22235e-06
1.4733e-05
5.95701e-05
0.000195611
0.000431059
0.000521275
0.000459098
0.000347907
0.000247291
0.000173221
0.000120879
8.39869e-05
5.87296e-05
4.19764e-05
3.10909e-05
2.40185e-05
1.93357e-05
1.61299e-05
1.38401e-05
1.21275e-05
1.0788e-05
9.6977e-06
8.7805e-06
7.98878e-06
7.29223e-06
6.67113e-06
6.11237e-06
5.60699e-06
5.14869e-06
4.7329e-06
4.35611e-06
4.01554e-06
3.70883e-06
3.43392e-06
3.18888e-06
2.97186e-06
2.78107e-06
2.61965e-06
2.48094e-06
2.36021e-06
2.25591e-06
2.16651e-06
2.09044e-06
2.02618e-06
1.97222e-06
1.92716e-06
1.88967e-06
1.85854e-06
1.8327e-06
1.8112e-06
1.79326e-06
1.77821e-06
1.76551e-06
1.75473e-06
1.74555e-06
1.73772e-06
1.73105e-06
1.7254e-06
1.72066e-06
1.71676e-06
1.71361e-06
1.71117e-06
1.70937e-06
1.70816e-06
1.70747e-06
1.70724e-06
1.70742e-06
1.70793e-06
1.70874e-06
1.70976e-06
1.71096e-06
1.71228e-06
1.71367e-06
1.71511e-06
1.71656e-06
1.71798e-06
1.71937e-06
1.72069e-06
1.72194e-06
1.72312e-06
1.72421e-06
1.72521e-06
1.72612e-06
1.72695e-06
1.7277e-06
1.72837e-06
1.72896e-06
1.72949e-06
1.72996e-06
1.73037e-06
1.73074e-06
1.73105e-06
1.73133e-06
1.73157e-06
1.73179e-06
1.73198e-06
1.73214e-06
1.73229e-06
1.73243e-06
1.73256e-06
1.7326e-06
)
;

boundaryField
{
    boundary
    {
        type            empty;
    }
    inlet
    {
        type            fixedValue;
        value           nonuniform 0();
    }
    outlet
    {
        type            zeroGradient;
    }
    procBoundary1to0
    {
        type            processor;
        value           uniform 1.73266e-06;
    }
    procBoundary1to3
    {
        type            processor;
        value           uniform 1.67297e-25;
    }
}


// ************************************************************************* //
