/*--------------------------------*- C++ -*----------------------------------*\
  =========                 |
  \\      /  F ield         | OpenFOAM: The Open Source CFD Toolbox
   \\    /   O peration     | Website:  https://openfoam.org
    \\  /    A nd           | Version:  7
     \\/     M anipulation  |
\*---------------------------------------------------------------------------*/
FoamFile
{
    version     2.0;
    format      ascii;
    class       volScalarField;
    location    "7e-05";
    object      p;
}
// * * * * * * * * * * * * * * * * * * * * * * * * * * * * * * * * * * * * * //

dimensions      [1 -1 -2 0 0 0 0];

internalField   nonuniform List<scalar> 
125
(
102796
102795
102794
102793
102792
102791
102790
102789
102788
102787
102786
102785
102784
102783
102782
102781
102780
102779
102778
102777
102776
102775
102774
102773
102772
102770
102769
102768
102767
102765
102763
102760
102758
102755
102752
102750
102748
102747
102745
102744
102743
102742
102742
102741
102740
102740
102739
102738
102738
102737
102737
102736
102736
102735
102735
102735
102734
102734
102733
102733
102732
102732
102732
102731
102731
102730
102730
102730
102729
102729
102729
102728
102728
102727
102727
102727
102726
102726
102725
102725
102725
102724
102724
102724
102723
102723
102722
102722
102722
102721
102721
102720
102720
102719
102719
102719
102718
102718
102717
102717
102717
102716
102716
102715
102715
102714
102714
102713
102713
102713
102712
102712
102711
102711
102710
102710
102709
102709
102708
102708
102708
102707
102707
102706
102706
)
;

boundaryField
{
    boundary
    {
        type            empty;
    }
    inlet
    {
        type            zeroGradient;
    }
    outlet
    {
        type            waveTransmissive;
        gamma           1.4;
        value           nonuniform 0();
    }
    procBoundary1to0
    {
        type            processor;
        value           uniform 102705;
    }
    procBoundary1to3
    {
        type            processor;
        value           uniform 102797;
    }
}


// ************************************************************************* //
