/*--------------------------------*- C++ -*----------------------------------*\
  =========                 |
  \\      /  F ield         | OpenFOAM: The Open Source CFD Toolbox
   \\    /   O peration     | Website:  https://openfoam.org
    \\  /    A nd           | Version:  7
     \\/     M anipulation  |
\*---------------------------------------------------------------------------*/
FoamFile
{
    version     2.0;
    format      ascii;
    class       surfaceScalarField;
    location    "7e-05";
    object      phi;
}
// * * * * * * * * * * * * * * * * * * * * * * * * * * * * * * * * * * * * * //

dimensions      [1 0 -1 0 0 0 0];

internalField   nonuniform List<scalar> 
124
(
6.10855e-06
6.10185e-06
6.09511e-06
6.08833e-06
6.08152e-06
6.07467e-06
6.06779e-06
6.06087e-06
6.05392e-06
6.04693e-06
6.03991e-06
6.03286e-06
6.02577e-06
6.01865e-06
6.0115e-06
6.00431e-06
5.9971e-06
5.98984e-06
5.98255e-06
5.97522e-06
5.96786e-06
5.96049e-06
5.9533e-06
5.9471e-06
5.94478e-06
5.95568e-06
6.00472e-06
6.13395e-06
6.34113e-06
6.53018e-06
6.64792e-06
6.71407e-06
6.75486e-06
6.78425e-06
6.80695e-06
6.81764e-06
6.82876e-06
6.8349e-06
6.83756e-06
6.83854e-06
6.83862e-06
6.83772e-06
6.83537e-06
6.83091e-06
6.82366e-06
6.81294e-06
6.79816e-06
6.7788e-06
6.75451e-06
6.72508e-06
6.69045e-06
6.65076e-06
6.60633e-06
6.55761e-06
6.50519e-06
6.44978e-06
6.39212e-06
6.33301e-06
6.27321e-06
6.21348e-06
6.15452e-06
6.10031e-06
6.04764e-06
5.99695e-06
5.94859e-06
5.90288e-06
5.86005e-06
5.82027e-06
5.78367e-06
5.75029e-06
5.72015e-06
5.69319e-06
5.66935e-06
5.64849e-06
5.63048e-06
5.61513e-06
5.60226e-06
5.59167e-06
5.58313e-06
5.57645e-06
5.5714e-06
5.56778e-06
5.56538e-06
5.56401e-06
5.5635e-06
5.56368e-06
5.56441e-06
5.56555e-06
5.56698e-06
5.5686e-06
5.57032e-06
5.57208e-06
5.5738e-06
5.57545e-06
5.57698e-06
5.57836e-06
5.57958e-06
5.58062e-06
5.58147e-06
5.58213e-06
5.58259e-06
5.58287e-06
5.58298e-06
5.5829e-06
5.58267e-06
5.58229e-06
5.58176e-06
5.5811e-06
5.58032e-06
5.57943e-06
5.57844e-06
5.57736e-06
5.5762e-06
5.57497e-06
5.57367e-06
5.57231e-06
5.57089e-06
5.56943e-06
5.56793e-06
5.56639e-06
5.56482e-06
5.56321e-06
5.56158e-06
5.55993e-06
)
;

boundaryField
{
    boundary
    {
        type            empty;
        value           nonuniform 0();
    }
    inlet
    {
        type            calculated;
        value           nonuniform 0();
    }
    outlet
    {
        type            calculated;
        value           nonuniform 0();
    }
    procBoundary1to0
    {
        type            processor;
        value           uniform 5.55825e-06;
    }
    procBoundary1to3
    {
        type            processor;
        value           uniform -6.11519e-06;
    }
}


// ************************************************************************* //
