/*--------------------------------*- C++ -*----------------------------------*\
  =========                 |
  \\      /  F ield         | OpenFOAM: The Open Source CFD Toolbox
   \\    /   O peration     | Website:  https://openfoam.org
    \\  /    A nd           | Version:  7
     \\/     M anipulation  |
\*---------------------------------------------------------------------------*/
FoamFile
{
    version     2.0;
    format      ascii;
    class       volScalarField;
    location    "7e-05";
    object      Qdot;
}
// * * * * * * * * * * * * * * * * * * * * * * * * * * * * * * * * * * * * * //

dimensions      [1 -1 -3 0 0 0 0];

internalField   nonuniform List<scalar> 
125
(
2.30046e-15
1.62105e-14
1.14307e-13
8.06104e-13
5.67715e-12
3.98608e-11
2.78495e-10
1.93232e-09
1.32879e-08
9.03837e-08
6.06985e-07
4.01784e-06
2.61762e-05
0.000167656
0.0010548
0.00651562
0.039516
0.23542
1.37943
7.96741
48.6373
321.347
2452.44
19323.2
157419
1.38634e+06
1.28565e+07
1.17326e+08
8.99352e+08
4.19248e+09
9.84973e+09
1.29841e+10
1.34621e+10
1.34321e+10
1.32492e+10
1.23482e+10
1.07226e+10
8.86864e+09
7.21597e+09
5.89563e+09
4.88102e+09
4.10343e+09
3.49886e+09
3.01867e+09
2.62846e+09
2.30445e+09
2.03029e+09
1.79455e+09
1.58934e+09
1.40897e+09
1.24937e+09
1.10749e+09
9.81027e+08
8.68185e+08
7.67492e+08
6.77718e+08
5.97788e+08
5.26749e+08
4.63741e+08
4.07986e+08
3.58832e+08
3.16645e+08
2.79819e+08
2.46988e+08
2.17821e+08
1.91909e+08
1.68899e+08
1.48474e+08
1.30351e+08
1.14276e+08
1.00028e+08
8.73967e+07
7.62196e+07
6.63331e+07
5.75977e+07
4.9889e+07
4.30961e+07
3.71198e+07
3.1871e+07
2.72703e+07
2.32461e+07
1.97341e+07
1.66763e+07
1.40226e+07
1.17214e+07
9.73872e+06
8.02917e+06
6.56317e+06
5.31326e+06
4.24391e+06
3.33908e+06
2.57525e+06
1.93257e+06
1.3944e+06
948767
576398
274327
25791.1
-175349
-336597
-464487
-564392
-640815
-698427
-741735
-770051
-789361
-800234
-804979
-805099
-801045
-794531
-786100
-776866
-766294
-755689
-745221
-735287
-725395
-717161
-710408
-707275
-710147
-727146
-769251
)
;

boundaryField
{
    boundary
    {
        type            empty;
    }
    inlet
    {
        type            calculated;
        value           nonuniform 0();
    }
    outlet
    {
        type            calculated;
        value           nonuniform 0();
    }
    procBoundary1to0
    {
        type            processor;
        value           uniform 0;
    }
    procBoundary1to3
    {
        type            processor;
        value           uniform 0;
    }
}


// ************************************************************************* //
