/*--------------------------------*- C++ -*----------------------------------*\
  =========                 |
  \\      /  F ield         | OpenFOAM: The Open Source CFD Toolbox
   \\    /   O peration     | Website:  https://openfoam.org
    \\  /    A nd           | Version:  7
     \\/     M anipulation  |
\*---------------------------------------------------------------------------*/
FoamFile
{
    version     2.0;
    format      ascii;
    class       volScalarField;
    location    "7e-05";
    object      T;
}
// * * * * * * * * * * * * * * * * * * * * * * * * * * * * * * * * * * * * * //

dimensions      [0 0 0 1 0 0 0];

internalField   nonuniform List<scalar> 
125
(
301.056
301.052
301.048
301.044
301.039
301.035
301.03
301.025
301.02
301.015
301.01
301.005
300.999
300.994
300.988
300.982
300.977
300.971
300.965
300.959
300.954
300.953
300.97
301.058
301.421
302.805
307.788
324.364
370.87
467.856
610.434
768.531
921.598
1064.51
1194.15
1305.82
1396.83
1470.13
1529.41
1578.09
1618.83
1653.68
1684.2
1711.54
1736.62
1760.16
1782.74
1804.81
1826.74
1848.79
1871.17
1893.99
1917.31
1941.13
1965.38
1989.97
2014.75
2039.58
2064.28
2088.64
2112.49
2134.99
2156.32
2176.93
2196.67
2215.46
2233.21
2249.87
2265.41
2279.8
2293.03
2305.12
2316.1
2326.01
2334.89
2342.8
2349.8
2355.96
2361.35
2366.04
2370.1
2373.59
2376.59
2379.14
2381.3
2383.13
2384.67
2385.97
2387.06
2387.97
2388.73
2389.37
2389.9
2390.35
2390.73
2391.05
2391.32
2391.55
2391.74
2391.91
2392.06
2392.18
2392.29
2392.39
2392.48
2392.55
2392.62
2392.68
2392.73
2392.78
2392.82
2392.86
2392.9
2392.93
2392.96
2392.98
2393.01
2393.03
2393.05
2393.07
2393.08
2393.1
2393.12
2393.14
2393.17
)
;

boundaryField
{
    boundary
    {
        type            empty;
    }
    inlet
    {
        type            fixedValue;
        value           nonuniform 0();
    }
    outlet
    {
        type            zeroGradient;
    }
    procBoundary1to0
    {
        type            processor;
        value           uniform 2393.19;
    }
    procBoundary1to3
    {
        type            processor;
        value           uniform 301.062;
    }
}


// ************************************************************************* //
