/*--------------------------------*- C++ -*----------------------------------*\
  =========                 |
  \\      /  F ield         | OpenFOAM: The Open Source CFD Toolbox
   \\    /   O peration     | Website:  https://openfoam.org
    \\  /    A nd           | Version:  7
     \\/     M anipulation  |
\*---------------------------------------------------------------------------*/
FoamFile
{
    version     2.0;
    format      ascii;
    class       volVectorField;
    location    "7e-05";
    object      U;
}
// * * * * * * * * * * * * * * * * * * * * * * * * * * * * * * * * * * * * * //

dimensions      [0 1 -1 0 0 0 0];

internalField   nonuniform List<vector> 
125
(
(2.08551 0 0)
(2.08331 0 0)
(2.08103 0 0)
(2.07867 0 0)
(2.07632 0 0)
(2.07399 0 0)
(2.07165 0 0)
(2.06926 0 0)
(2.06688 0 0)
(2.0645 0 0)
(2.0621 0 0)
(2.05968 0 0)
(2.05724 0 0)
(2.0548 0 0)
(2.05235 0 0)
(2.0499 0 0)
(2.04743 0 0)
(2.04493 0 0)
(2.04242 0 0)
(2.03991 0 0)
(2.03738 0 0)
(2.03486 0 0)
(2.03246 0 0)
(2.03025 0 0)
(2.03121 0 0)
(2.0413 0 0)
(2.08169 0 0)
(2.19672 0 0)
(2.47314 0 0)
(3.05879 0 0)
(4.04912 0 0)
(5.25084 0 0)
(6.44132 0 0)
(7.51374 0 0)
(8.44896 0 0)
(9.24121 0 0)
(9.89054 0 0)
(10.4105 0 0)
(10.8233 0 0)
(11.1552 0 0)
(11.4293 0 0)
(11.6619 0 0)
(11.863 0 0)
(12.0394 0 0)
(12.1961 0 0)
(12.3366 0 0)
(12.4634 0 0)
(12.5782 0 0)
(12.6822 0 0)
(12.7764 0 0)
(12.8614 0 0)
(12.9374 0 0)
(13.005 0 0)
(13.0642 0 0)
(13.1153 0 0)
(13.1586 0 0)
(13.1944 0 0)
(13.223 0 0)
(13.2448 0 0)
(13.2602 0 0)
(13.2697 0 0)
(13.2741 0 0)
(13.2749 0 0)
(13.2728 0 0)
(13.2675 0 0)
(13.2599 0 0)
(13.2502 0 0)
(13.239 0 0)
(13.2267 0 0)
(13.2138 0 0)
(13.2006 0 0)
(13.1875 0 0)
(13.1747 0 0)
(13.1625 0 0)
(13.151 0 0)
(13.1404 0 0)
(13.1308 0 0)
(13.1222 0 0)
(13.1146 0 0)
(13.1081 0 0)
(13.1025 0 0)
(13.0979 0 0)
(13.0941 0 0)
(13.0911 0 0)
(13.0887 0 0)
(13.0869 0 0)
(13.0855 0 0)
(13.0846 0 0)
(13.0839 0 0)
(13.0834 0 0)
(13.0831 0 0)
(13.0828 0 0)
(13.0826 0 0)
(13.0823 0 0)
(13.0819 0 0)
(13.0814 0 0)
(13.0808 0 0)
(13.08 0 0)
(13.0791 0 0)
(13.0779 0 0)
(13.0766 0 0)
(13.0751 0 0)
(13.0734 0 0)
(13.0715 0 0)
(13.0695 0 0)
(13.0672 0 0)
(13.0649 0 0)
(13.0623 0 0)
(13.0597 0 0)
(13.0569 0 0)
(13.0539 0 0)
(13.0509 0 0)
(13.0478 0 0)
(13.0445 0 0)
(13.0412 0 0)
(13.0378 0 0)
(13.0343 0 0)
(13.0308 0 0)
(13.0272 0 0)
(13.0235 0 0)
(13.0198 0 0)
(13.016 0 0)
(13.0123 0 0)
(13.0084 0 0)
(13.0047 0 0)
)
;

boundaryField
{
    boundary
    {
        type            empty;
    }
    inlet
    {
        type            fixedValue;
        value           nonuniform 0();
    }
    outlet
    {
        type            zeroGradient;
    }
    procBoundary1to0
    {
        type            processor;
        value           uniform (13.0005 0 0);
    }
    procBoundary1to3
    {
        type            processor;
        value           uniform (2.08779 0 0);
    }
}


// ************************************************************************* //
