/*--------------------------------*- C++ -*----------------------------------*\
  =========                 |
  \\      /  F ield         | OpenFOAM: The Open Source CFD Toolbox
   \\    /   O peration     | Website:  https://openfoam.org
    \\  /    A nd           | Version:  7
     \\/     M anipulation  |
\*---------------------------------------------------------------------------*/
FoamFile
{
    version     2.0;
    format      ascii;
    class       volScalarField;
    location    "0.0007";
    object      H2O2;
}
// * * * * * * * * * * * * * * * * * * * * * * * * * * * * * * * * * * * * * //

dimensions      [0 0 0 0 0 0 0];

internalField   nonuniform List<scalar> 
125
(
1.9855e-52
6.37173e-52
1.26519e-51
2.08202e-51
3.08727e-51
4.28096e-51
5.66359e-51
7.2361e-51
8.99988e-51
1.09566e-50
1.31082e-50
1.54566e-50
1.80038e-50
2.07516e-50
2.37018e-50
2.68562e-50
3.02167e-50
3.37854e-50
3.7565e-50
4.15587e-50
4.57709e-50
5.02069e-50
5.48736e-50
5.97797e-50
6.49358e-50
7.03544e-50
7.60506e-50
8.20415e-50
8.83466e-50
9.49873e-50
1.01987e-49
1.09369e-49
1.17158e-49
1.25377e-49
1.34049e-49
1.43191e-49
1.52817e-49
1.62935e-49
1.73542e-49
1.8463e-49
1.96177e-49
2.08151e-49
2.20508e-49
2.3319e-49
2.46131e-49
2.5925e-49
2.72461e-49
2.85667e-49
2.9877e-49
3.11668e-49
3.24262e-49
3.36456e-49
3.48163e-49
3.59303e-49
3.6981e-49
3.79632e-49
3.8873e-49
3.9708e-49
4.04674e-49
4.11516e-49
4.17625e-49
4.23029e-49
4.27765e-49
4.31878e-49
4.35417e-49
4.38436e-49
4.40987e-49
4.43124e-49
4.44898e-49
4.46358e-49
4.47549e-49
4.48513e-49
4.49286e-49
4.49901e-49
4.50386e-49
4.50765e-49
4.5106e-49
4.51288e-49
4.51462e-49
4.51594e-49
4.51694e-49
4.51769e-49
4.51825e-49
4.51866e-49
4.51897e-49
4.51921e-49
4.51938e-49
4.51952e-49
4.51962e-49
4.5197e-49
4.51977e-49
4.51983e-49
4.51989e-49
4.51994e-49
4.51999e-49
4.52004e-49
4.52009e-49
4.52014e-49
4.5202e-49
4.52026e-49
4.52032e-49
4.52038e-49
4.52045e-49
4.52052e-49
4.52059e-49
4.52067e-49
4.52075e-49
4.52084e-49
4.52093e-49
4.52103e-49
4.52113e-49
4.52123e-49
4.52134e-49
4.52145e-49
4.52157e-49
4.5217e-49
4.52183e-49
4.52196e-49
4.5221e-49
4.52224e-49
4.52236e-49
4.52241e-49
4.52214e-49
4.52062e-49
4.5141e-49
)
;

boundaryField
{
    boundary
    {
        type            empty;
    }
    inlet
    {
        type            fixedValue;
        value           uniform 0;
    }
    outlet
    {
        type            zeroGradient;
    }
    procBoundary2to3
    {
        type            processor;
        value           uniform 4.50113e-49;
    }
}


// ************************************************************************* //
