/*--------------------------------*- C++ -*----------------------------------*\
  =========                 |
  \\      /  F ield         | OpenFOAM: The Open Source CFD Toolbox
   \\    /   O peration     | Website:  https://openfoam.org
    \\  /    A nd           | Version:  7
     \\/     M anipulation  |
\*---------------------------------------------------------------------------*/
FoamFile
{
    version     2.0;
    format      ascii;
    class       volScalarField;
    location    "0.0007";
    object      HO2;
}
// * * * * * * * * * * * * * * * * * * * * * * * * * * * * * * * * * * * * * //

dimensions      [0 0 0 0 0 0 0];

internalField   nonuniform List<scalar> 
125
(
5.5836e-38
1.26951e-37
1.98174e-37
2.69287e-37
3.40254e-37
4.11097e-37
4.81862e-37
5.5261e-37
6.23409e-37
6.94325e-37
7.65419e-37
8.36739e-37
9.08325e-37
9.80201e-37
1.05238e-36
1.12488e-36
1.1977e-36
1.27084e-36
1.34432e-36
1.41815e-36
1.49238e-36
1.56704e-36
1.64221e-36
1.718e-36
1.7945e-36
1.87186e-36
1.95026e-36
2.02988e-36
2.11094e-36
2.19367e-36
2.27832e-36
2.36515e-36
2.4544e-36
2.54632e-36
2.64113e-36
2.73902e-36
2.84012e-36
2.94449e-36
3.05213e-36
3.16295e-36
3.27675e-36
3.39325e-36
3.51203e-36
3.63261e-36
3.75438e-36
3.87666e-36
3.99871e-36
4.11973e-36
4.2389e-36
4.35539e-36
4.4684e-36
4.57719e-36
4.68106e-36
4.77944e-36
4.87182e-36
4.95785e-36
5.03727e-36
5.10995e-36
5.17588e-36
5.23518e-36
5.28803e-36
5.33473e-36
5.37563e-36
5.41114e-36
5.44169e-36
5.46776e-36
5.48981e-36
5.50829e-36
5.52366e-36
5.53633e-36
5.54669e-36
5.55508e-36
5.56184e-36
5.56722e-36
5.57148e-36
5.57483e-36
5.57744e-36
5.57945e-36
5.581e-36
5.58218e-36
5.58308e-36
5.58375e-36
5.58426e-36
5.58464e-36
5.58493e-36
5.58514e-36
5.5853e-36
5.58542e-36
5.58552e-36
5.5856e-36
5.58566e-36
5.58572e-36
5.58577e-36
5.58582e-36
5.58586e-36
5.58591e-36
5.58595e-36
5.586e-36
5.58605e-36
5.5861e-36
5.58616e-36
5.58621e-36
5.58627e-36
5.58634e-36
5.5864e-36
5.58647e-36
5.58655e-36
5.58662e-36
5.5867e-36
5.58679e-36
5.58687e-36
5.58697e-36
5.58706e-36
5.58716e-36
5.58727e-36
5.58738e-36
5.58749e-36
5.58761e-36
5.58773e-36
5.58785e-36
5.58797e-36
5.58804e-36
5.58792e-36
5.58701e-36
5.58301e-36
)
;

boundaryField
{
    boundary
    {
        type            empty;
    }
    inlet
    {
        type            fixedValue;
        value           uniform 0;
    }
    outlet
    {
        type            zeroGradient;
    }
    procBoundary2to3
    {
        type            processor;
        value           uniform 5.57505e-36;
    }
}


// ************************************************************************* //
