/*--------------------------------*- C++ -*----------------------------------*\
  =========                 |
  \\      /  F ield         | OpenFOAM: The Open Source CFD Toolbox
   \\    /   O peration     | Website:  https://openfoam.org
    \\  /    A nd           | Version:  7
     \\/     M anipulation  |
\*---------------------------------------------------------------------------*/
FoamFile
{
    version     2.0;
    format      ascii;
    class       volVectorField;
    location    "0.0007";
    object      U;
}
// * * * * * * * * * * * * * * * * * * * * * * * * * * * * * * * * * * * * * //

dimensions      [0 1 -1 0 0 0 0];

internalField   nonuniform List<vector> 
125
(
(2.34893 0 0)
(2.34895 0 0)
(2.34896 0 0)
(2.34898 0 0)
(2.349 0 0)
(2.34902 0 0)
(2.34904 0 0)
(2.34906 0 0)
(2.34909 0 0)
(2.34912 0 0)
(2.34915 0 0)
(2.34918 0 0)
(2.34921 0 0)
(2.34924 0 0)
(2.34927 0 0)
(2.3493 0 0)
(2.34933 0 0)
(2.34936 0 0)
(2.34938 0 0)
(2.34941 0 0)
(2.34944 0 0)
(2.34947 0 0)
(2.3495 0 0)
(2.34952 0 0)
(2.34955 0 0)
(2.34959 0 0)
(2.34962 0 0)
(2.34965 0 0)
(2.34969 0 0)
(2.34972 0 0)
(2.34976 0 0)
(2.34981 0 0)
(2.34985 0 0)
(2.34989 0 0)
(2.34994 0 0)
(2.34999 0 0)
(2.35004 0 0)
(2.35008 0 0)
(2.35013 0 0)
(2.35018 0 0)
(2.35023 0 0)
(2.35027 0 0)
(2.35031 0 0)
(2.35035 0 0)
(2.35039 0 0)
(2.35042 0 0)
(2.35045 0 0)
(2.35048 0 0)
(2.3505 0 0)
(2.35052 0 0)
(2.35053 0 0)
(2.35054 0 0)
(2.35054 0 0)
(2.35055 0 0)
(2.35055 0 0)
(2.35055 0 0)
(2.35054 0 0)
(2.35054 0 0)
(2.35053 0 0)
(2.35053 0 0)
(2.35053 0 0)
(2.35052 0 0)
(2.35052 0 0)
(2.35052 0 0)
(2.35052 0 0)
(2.35052 0 0)
(2.35053 0 0)
(2.35054 0 0)
(2.35055 0 0)
(2.35056 0 0)
(2.35057 0 0)
(2.35058 0 0)
(2.3506 0 0)
(2.35061 0 0)
(2.35063 0 0)
(2.35065 0 0)
(2.35067 0 0)
(2.35069 0 0)
(2.35071 0 0)
(2.35073 0 0)
(2.35075 0 0)
(2.35077 0 0)
(2.35079 0 0)
(2.35082 0 0)
(2.35084 0 0)
(2.35086 0 0)
(2.35088 0 0)
(2.35091 0 0)
(2.35093 0 0)
(2.35095 0 0)
(2.35098 0 0)
(2.351 0 0)
(2.35102 0 0)
(2.35105 0 0)
(2.35107 0 0)
(2.35109 0 0)
(2.35112 0 0)
(2.35114 0 0)
(2.35116 0 0)
(2.35119 0 0)
(2.35121 0 0)
(2.35124 0 0)
(2.35126 0 0)
(2.35128 0 0)
(2.35131 0 0)
(2.35133 0 0)
(2.35135 0 0)
(2.35138 0 0)
(2.3514 0 0)
(2.35143 0 0)
(2.35145 0 0)
(2.35147 0 0)
(2.3515 0 0)
(2.35152 0 0)
(2.35155 0 0)
(2.35157 0 0)
(2.35159 0 0)
(2.35162 0 0)
(2.35164 0 0)
(2.35167 0 0)
(2.35169 0 0)
(2.35172 0 0)
(2.35174 0 0)
(2.35177 0 0)
(2.35179 0 0)
)
;

boundaryField
{
    boundary
    {
        type            empty;
    }
    inlet
    {
        type            fixedValue;
        value           uniform (2.34893 0 0);
    }
    outlet
    {
        type            zeroGradient;
    }
    procBoundary2to3
    {
        type            processor;
        value           uniform (2.35182 0 0);
    }
}


// ************************************************************************* //
