/*--------------------------------*- C++ -*----------------------------------*\
  =========                 |
  \\      /  F ield         | OpenFOAM: The Open Source CFD Toolbox
   \\    /   O peration     | Website:  https://openfoam.org
    \\  /    A nd           | Version:  7
     \\/     M anipulation  |
\*---------------------------------------------------------------------------*/
FoamFile
{
    version     2.0;
    format      ascii;
    class       surfaceScalarField;
    location    "0.00085";
    object      phi;
}
// * * * * * * * * * * * * * * * * * * * * * * * * * * * * * * * * * * * * * //

dimensions      [1 0 -1 0 0 0 0];

internalField   nonuniform List<scalar> 
125
(
6.88911e-06
6.88906e-06
6.88901e-06
6.88896e-06
6.8889e-06
6.88885e-06
6.8888e-06
6.88874e-06
6.88869e-06
6.88864e-06
6.88858e-06
6.88853e-06
6.88847e-06
6.88842e-06
6.88836e-06
6.88831e-06
6.88826e-06
6.8882e-06
6.88815e-06
6.8881e-06
6.88804e-06
6.88799e-06
6.88794e-06
6.88788e-06
6.88783e-06
6.88778e-06
6.88773e-06
6.88767e-06
6.88762e-06
6.88756e-06
6.88751e-06
6.88746e-06
6.8874e-06
6.88735e-06
6.88729e-06
6.88724e-06
6.88718e-06
6.88712e-06
6.88707e-06
6.88701e-06
6.88696e-06
6.8869e-06
6.88684e-06
6.88679e-06
6.88673e-06
6.88667e-06
6.88662e-06
6.88656e-06
6.8865e-06
6.88645e-06
6.88639e-06
6.88633e-06
6.88627e-06
6.88622e-06
6.88616e-06
6.8861e-06
6.88605e-06
6.88599e-06
6.88593e-06
6.88587e-06
6.88581e-06
6.88576e-06
6.8857e-06
6.88564e-06
6.88558e-06
6.88552e-06
6.88547e-06
6.88541e-06
6.88535e-06
6.88529e-06
6.88524e-06
6.88518e-06
6.88512e-06
6.88506e-06
6.88501e-06
6.88495e-06
6.88489e-06
6.88484e-06
6.88478e-06
6.88472e-06
6.88467e-06
6.88461e-06
6.88456e-06
6.8845e-06
6.88445e-06
6.8844e-06
6.88434e-06
6.88429e-06
6.88424e-06
6.88418e-06
6.88413e-06
6.88408e-06
6.88403e-06
6.88398e-06
6.88393e-06
6.88388e-06
6.88383e-06
6.88378e-06
6.88373e-06
6.88369e-06
6.88364e-06
6.8836e-06
6.88355e-06
6.88351e-06
6.88346e-06
6.88342e-06
6.88338e-06
6.88334e-06
6.8833e-06
6.88326e-06
6.88322e-06
6.88319e-06
6.88315e-06
6.88312e-06
6.88308e-06
6.88305e-06
6.88302e-06
6.88299e-06
6.88296e-06
6.88293e-06
6.8829e-06
6.88288e-06
6.88285e-06
6.88283e-06
6.8828e-06
)
;

boundaryField
{
    boundary
    {
        type            empty;
        value           nonuniform 0();
    }
    inlet
    {
        type            calculated;
        value           nonuniform 0();
    }
    outlet
    {
        type            calculated;
        value           nonuniform 0();
    }
    procBoundary3to1
    {
        type            processor;
        value           uniform 6.88278e-06;
    }
    procBoundary3to2
    {
        type            processor;
        value           uniform -6.88917e-06;
    }
}


// ************************************************************************* //
