/*--------------------------------*- C++ -*----------------------------------*\
  =========                 |
  \\      /  F ield         | OpenFOAM: The Open Source CFD Toolbox
   \\    /   O peration     | Website:  https://openfoam.org
    \\  /    A nd           | Version:  7
     \\/     M anipulation  |
\*---------------------------------------------------------------------------*/
FoamFile
{
    version     2.0;
    format      ascii;
    class       volScalarField;
    location    "0.00013";
    object      p;
}
// * * * * * * * * * * * * * * * * * * * * * * * * * * * * * * * * * * * * * //

dimensions      [1 -1 -2 0 0 0 0];

internalField   nonuniform List<scalar> 
126
(
102998
102998
102998
102998
102998
102998
102998
102997
102997
102997
102997
102997
102997
102997
102997
102997
102997
102997
102996
102996
102996
102996
102996
102996
102996
102996
102996
102996
102995
102995
102995
102995
102995
102995
102995
102995
102995
102994
102994
102994
102994
102994
102994
102994
102994
102994
102993
102993
102993
102993
102993
102993
102993
102993
102993
102992
102992
102992
102992
102992
102992
102992
102992
102991
102991
102991
102991
102991
102991
102991
102991
102991
102990
102990
102990
102990
102990
102990
102990
102990
102989
102989
102989
102989
102989
102989
102989
102989
102988
102988
102988
102988
102988
102988
102988
102988
102988
102987
102987
102987
102987
102987
102987
102987
102987
102987
102986
102986
102986
102986
102986
102986
102986
102986
102986
102985
102985
102985
102985
102985
102985
102985
102985
102985
102985
102984
)
;

boundaryField
{
    boundary
    {
        type            empty;
    }
    inlet
    {
        type            zeroGradient;
    }
    outlet
    {
        type            waveTransmissive;
        gamma           1.4;
        value           nonuniform 0();
    }
    procBoundary3to1
    {
        type            processor;
        value           uniform 102984;
    }
    procBoundary3to2
    {
        type            processor;
        value           uniform 102998;
    }
}


// ************************************************************************* //
