/*--------------------------------*- C++ -*----------------------------------*\
  =========                 |
  \\      /  F ield         | OpenFOAM: The Open Source CFD Toolbox
   \\    /   O peration     | Website:  https://openfoam.org
    \\  /    A nd           | Version:  7
     \\/     M anipulation  |
\*---------------------------------------------------------------------------*/
FoamFile
{
    version     2.0;
    format      ascii;
    class       volScalarField;
    location    "0.00094";
    object      H2;
}
// * * * * * * * * * * * * * * * * * * * * * * * * * * * * * * * * * * * * * //

dimensions      [0 0 0 0 0 0 0];

internalField   nonuniform List<scalar> 
500
(
0.0285116
0.0285116
0.0285116
0.0285116
0.0285116
0.0285116
0.0285116
0.0285116
0.0285116
0.0285116
0.0285116
0.0285116
0.0285116
0.0285116
0.0285116
0.0285116
0.0285116
0.0285116
0.0285116
0.0285116
0.0285116
0.0285116
0.0285116
0.0285116
0.0285116
0.0285116
0.0285116
0.0285116
0.0285116
0.0285116
0.0285116
0.0285116
0.0285116
0.0285116
0.0285116
0.0285116
0.0285116
0.0285116
0.0285116
0.0285116
0.0285116
0.0285116
0.0285116
0.0285116
0.0285116
0.0285116
0.0285116
0.0285116
0.0285116
0.0285116
0.0285116
0.0285116
0.0285116
0.0285116
0.0285116
0.0285116
0.0285116
0.0285116
0.0285116
0.0285116
0.0285116
0.0285116
0.0285116
0.0285116
0.0285116
0.0285116
0.0285116
0.0285116
0.0285116
0.0285116
0.0285116
0.0285116
0.0285116
0.0285116
0.0285116
0.0285116
0.0285116
0.0285116
0.0285116
0.0285116
0.0285116
0.0285116
0.0285116
0.0285116
0.0285116
0.0285116
0.0285116
0.0285116
0.0285116
0.0285116
0.0285116
0.0285116
0.0285116
0.0285116
0.0285116
0.0285116
0.0285116
0.0285116
0.0285116
0.0285116
0.0285116
0.0285116
0.0285116
0.0285116
0.0285116
0.0285116
0.0285116
0.0285116
0.0285116
0.0285116
0.0285116
0.0285116
0.0285116
0.0285116
0.0285116
0.0285116
0.0285116
0.0285116
0.0285116
0.0285116
0.0285116
0.0285116
0.0285116
0.0285116
0.0285116
0.0285116
0.0285116
0.0285116
0.0285116
0.0285116
0.0285116
0.0285116
0.0285116
0.0285116
0.0285116
0.0285116
0.0285116
0.0285116
0.0285116
0.0285116
0.0285116
0.0285116
0.0285116
0.0285116
0.0285116
0.0285116
0.0285116
0.0285116
0.0285116
0.0285116
0.0285116
0.0285116
0.0285116
0.0285116
0.0285116
0.0285116
0.0285116
0.0285116
0.0285116
0.0285116
0.0285116
0.0285116
0.0285116
0.0285116
0.0285116
0.0285116
0.0285116
0.0285116
0.0285116
0.0285116
0.0285116
0.0285116
0.0285116
0.0285116
0.0285116
0.0285116
0.0285116
0.0285116
0.0285116
0.0285116
0.0285116
0.0285116
0.0285116
0.0285116
0.0285116
0.0285116
0.0285116
0.0285116
0.0285116
0.0285116
0.0285116
0.0285116
0.0285116
0.0285116
0.0285116
0.0285116
0.0285116
0.0285116
0.0285116
0.0285116
0.0285116
0.0285116
0.0285116
0.0285116
0.0285116
0.0285116
0.0285116
0.0285116
0.0285116
0.0285116
0.0285116
0.0285116
0.0285116
0.0285116
0.0285116
0.0285116
0.0285116
0.0285116
0.0285116
0.0285116
0.0285116
0.0285116
0.0285116
0.0285116
0.0285116
0.0285116
0.0285116
0.0285116
0.0285116
0.0285116
0.0285116
0.0285116
0.0285116
0.0285116
0.0285116
0.0285116
0.0285116
0.0285116
0.0285116
0.0285116
0.0285116
0.0285116
0.0285116
0.0285116
0.0285116
0.0285116
0.0285116
0.0285116
0.0285116
0.0285116
0.0285116
0.0285116
0.0285116
0.0285116
0.0285116
0.0285116
0.0285116
0.0285116
0.0285116
0.0285116
0.0285116
0.0285115
0.0285115
0.0285113
0.028511
0.0285104
0.0285091
0.0285065
0.028501
0.0284895
0.0284655
0.0284155
0.028312
0.0280997
0.0276763
0.0268834
0.0255495
0.0236023
0.0211766
0.0184135
0.0154007
0.0123664
0.0096817
0.00761485
0.00608625
0.00515729
0.00457642
0.00421836
0.00399711
0.0038578
0.00376678
0.00370392
0.00365732
0.00362004
0.00358809
0.00355916
0.00353198
0.00350583
0.00348034
0.0034553
0.00343065
0.00340633
0.00338236
0.00335873
0.00333546
0.00331257
0.00329005
0.00326793
0.0032462
0.00322486
0.00320391
0.00318336
0.00316379
0.00314503
0.00312654
0.00310832
0.00309036
0.00307265
0.00305519
0.00303797
0.00302099
0.00300424
0.00298771
0.0029714
0.0029553
0.00293942
0.00292374
0.00290827
0.00289299
0.00287791
0.00286302
0.00284832
0.0028338
0.00281947
0.00280531
0.00279133
0.00277752
0.00276388
0.00275041
0.0027371
0.00272395
0.00271096
0.00269813
0.00268545
0.00267292
0.00266053
0.00264829
0.0026362
0.00262424
0.00261242
0.00260073
0.00258918
0.00257775
0.00256645
0.00255528
0.00254423
0.0025333
0.00252249
0.00251179
0.00250121
0.00249073
0.00248037
0.00247012
0.00245997
0.00244992
0.00243998
0.00243014
0.0024204
0.00241075
0.0024012
0.00239175
0.00238239
0.00237312
0.00236395
0.00235487
0.00234589
0.00233696
0.00232808
0.00231927
0.00231055
0.0023019
0.00229332
0.00228483
0.0022764
0.00226805
0.00225976
0.00225155
0.00224341
0.00223533
0.00222732
0.00221938
0.00221151
0.00220369
0.00219595
0.00218826
0.00218064
0.00217308
0.00216559
0.00215815
0.00215078
0.00214346
0.0021362
0.00212901
0.00212187
0.00211479
0.00210776
0.0021008
0.00209389
0.00208703
0.00208023
0.00207349
0.0020668
0.00206017
0.00205359
0.00204706
0.00204059
0.00203417
0.0020278
0.00202148
0.00201522
0.002009
0.00200284
0.00199672
0.00199065
0.00198463
0.00197866
0.00197274
0.00196686
0.00196103
0.00195524
0.0019495
0.0019438
0.00193815
0.00193254
0.00192697
0.00192145
0.00191596
0.00191052
0.00190512
0.00189976
0.00189443
0.00188915
0.00188391
0.0018787
0.00187353
0.0018684
0.00186331
0.00185825
0.00185323
0.00184825
0.0018433
0.00183838
0.0018335
0.00182866
0.00182385
0.00181907
0.00181433
0.00180962
0.00180495
0.0018003
0.0017957
0.00179112
0.00178657
0.00178206
0.00177758
0.00177313
0.00176872
0.00176434
0.00175998
0.00175567
0.00175138
0.00174712
0.0017429
0.00173871
0.00173455
0.00173043
0.00172634
0.00172228
0.00171826
0.00171427
0.00171032
0.00170641
0.00170253
0.0016987
0.00169491
0.00169116
0.00168747
0.00168383
0.00168025
0.00167675
0.00167333
0.00167001
0.00166682
0.00166378
0.00166094
0.00165834
0.00165605
0.00165416
0.00165276
0.00165197
)
;

boundaryField
{
    boundary
    {
        type            empty;
    }
    inlet
    {
        type            fixedValue;
        value           uniform 0.0285116;
    }
    outlet
    {
        type            zeroGradient;
    }
}


// ************************************************************************* //
