/*--------------------------------*- C++ -*----------------------------------*\
  =========                 |
  \\      /  F ield         | OpenFOAM: The Open Source CFD Toolbox
   \\    /   O peration     | Website:  https://openfoam.org
    \\  /    A nd           | Version:  7
     \\/     M anipulation  |
\*---------------------------------------------------------------------------*/
FoamFile
{
    version     2.0;
    format      ascii;
    class       volScalarField;
    location    "0.00094";
    object      H2O2;
}
// * * * * * * * * * * * * * * * * * * * * * * * * * * * * * * * * * * * * * //

dimensions      [0 0 0 0 0 0 0];

internalField   nonuniform List<scalar> 
500
(
1.99332e-52
6.40478e-52
1.27338e-51
2.09814e-51
3.11476e-51
4.32316e-51
5.72319e-51
7.31457e-51
9.09689e-51
1.10695e-50
1.32317e-50
1.55825e-50
1.81207e-50
2.08452e-50
2.37547e-50
2.68481e-50
3.01245e-50
3.35834e-50
3.72246e-50
4.10486e-50
4.50564e-50
4.92497e-50
5.3631e-50
5.82031e-50
6.29698e-50
6.79349e-50
7.31031e-50
7.84792e-50
8.40682e-50
8.98756e-50
9.59071e-50
1.02169e-49
1.08667e-49
1.15409e-49
1.22402e-49
1.29657e-49
1.37182e-49
1.44992e-49
1.53099e-49
1.61519e-49
1.70272e-49
1.79377e-49
1.88858e-49
1.9874e-49
2.09049e-49
2.19815e-49
2.31066e-49
2.42832e-49
2.55142e-49
2.68021e-49
2.81495e-49
2.95582e-49
3.10296e-49
3.25644e-49
3.41623e-49
3.58224e-49
3.75423e-49
3.93189e-49
4.11477e-49
4.30229e-49
4.49376e-49
4.68841e-49
4.88531e-49
5.08348e-49
5.28187e-49
5.47937e-49
5.67485e-49
5.86716e-49
6.05521e-49
6.23792e-49
6.41432e-49
6.58351e-49
6.74472e-49
6.89728e-49
7.04069e-49
7.17457e-49
7.29871e-49
7.41302e-49
7.51755e-49
7.61247e-49
7.69808e-49
7.77476e-49
7.84295e-49
7.90319e-49
7.95604e-49
8.00209e-49
8.04194e-49
8.0762e-49
8.10545e-49
8.13026e-49
8.15117e-49
8.16868e-49
8.18324e-49
8.19527e-49
8.20516e-49
8.21323e-49
8.21978e-49
8.22507e-49
8.22931e-49
8.23269e-49
8.23538e-49
8.2375e-49
8.23918e-49
8.24049e-49
8.24152e-49
8.24233e-49
8.24296e-49
8.24346e-49
8.24386e-49
8.24418e-49
8.24444e-49
8.24466e-49
8.24485e-49
8.24502e-49
8.24517e-49
8.24531e-49
8.24545e-49
8.24559e-49
8.24572e-49
8.24585e-49
8.24596e-49
8.24596e-49
8.24552e-49
8.24336e-49
8.23445e-49
8.2168e-49
8.21698e-49
8.21717e-49
8.21737e-49
8.21758e-49
8.2178e-49
8.21804e-49
8.21828e-49
8.21854e-49
8.21882e-49
8.21911e-49
8.21942e-49
8.21974e-49
8.22008e-49
8.22043e-49
8.2208e-49
8.22118e-49
8.22157e-49
8.22198e-49
8.22239e-49
8.22281e-49
8.22325e-49
8.22371e-49
8.22419e-49
8.22469e-49
8.22523e-49
8.22582e-49
8.22646e-49
8.22716e-49
8.22794e-49
8.22879e-49
8.22974e-49
8.23078e-49
8.23191e-49
8.23314e-49
8.23446e-49
8.23587e-49
8.23734e-49
8.23887e-49
8.24044e-49
8.24203e-49
8.24361e-49
8.24518e-49
8.2467e-49
8.24816e-49
8.24955e-49
8.25086e-49
8.25207e-49
8.25318e-49
8.25421e-49
8.25514e-49
8.256e-49
8.2568e-49
8.25756e-49
8.25829e-49
8.25901e-49
8.25974e-49
8.2605e-49
8.26131e-49
8.26217e-49
8.26309e-49
8.26409e-49
8.26516e-49
8.26631e-49
8.26753e-49
8.26881e-49
8.27014e-49
8.27152e-49
8.27293e-49
8.27436e-49
8.2758e-49
8.27724e-49
8.2787e-49
8.28032e-49
8.28274e-49
8.28906e-49
8.31362e-49
8.42252e-49
8.91866e-49
1.11834e-48
2.1487e-48
6.81621e-48
2.78669e-47
1.22398e-46
5.45138e-46
2.42808e-45
1.07829e-44
4.77195e-44
2.1045e-43
9.25042e-43
4.05336e-42
1.77089e-41
7.71574e-41
3.35318e-40
1.45383e-39
6.28976e-39
2.71579e-38
1.17052e-37
5.03684e-37
2.16423e-36
9.28711e-36
3.9806e-35
1.70436e-34
7.29059e-34
3.11598e-33
1.33072e-32
5.67892e-32
2.42184e-31
1.03214e-30
4.39588e-30
1.87098e-29
7.95795e-29
3.38247e-28
1.43667e-27
6.09769e-27
2.58611e-26
1.09598e-25
4.64123e-25
1.96403e-24
8.30552e-24
3.51005e-23
1.4826e-22
6.25954e-22
2.64191e-21
1.11483e-20
4.70403e-20
1.99599e-19
8.4442e-19
3.56656e-18
1.50632e-17
6.36411e-17
2.69007e-16
1.13767e-15
4.81391e-15
2.03802e-14
8.63253e-14
3.65823e-13
1.55092e-12
6.57772e-12
2.79068e-11
1.18434e-10
5.02762e-10
2.13477e-09
9.06589e-09
3.84986e-08
1.63344e-07
6.90432e-07
2.87738e-06
1.14131e-05
3.87244e-05
8.86526e-05
0.000121314
0.000112958
6.6616e-05
2.90405e-05
1.16702e-05
5.80212e-06
4.45348e-06
4.63427e-06
5.31435e-06
5.90855e-06
6.35221e-06
6.62498e-06
6.75133e-06
6.76654e-06
6.70287e-06
6.58605e-06
6.43502e-06
6.26324e-06
6.08017e-06
5.89224e-06
5.70382e-06
5.51787e-06
5.33629e-06
5.1603e-06
4.99062e-06
4.82765e-06
4.67154e-06
4.52228e-06
4.37977e-06
4.24381e-06
4.11418e-06
3.99064e-06
3.8729e-06
3.76073e-06
3.65389e-06
3.55219e-06
3.45839e-06
3.37009e-06
3.28529e-06
3.20381e-06
3.12549e-06
3.05018e-06
2.97773e-06
2.90802e-06
2.84092e-06
2.77629e-06
2.71403e-06
2.65402e-06
2.59617e-06
2.54036e-06
2.48651e-06
2.43452e-06
2.38432e-06
2.33581e-06
2.28892e-06
2.24359e-06
2.19973e-06
2.15729e-06
2.1162e-06
2.0764e-06
2.03784e-06
2.00046e-06
1.96422e-06
1.92907e-06
1.89496e-06
1.86185e-06
1.8297e-06
1.79847e-06
1.76812e-06
1.73863e-06
1.70995e-06
1.68206e-06
1.65492e-06
1.62851e-06
1.60279e-06
1.57776e-06
1.55337e-06
1.52961e-06
1.50645e-06
1.48388e-06
1.46187e-06
1.4404e-06
1.41946e-06
1.39902e-06
1.37908e-06
1.3596e-06
1.34059e-06
1.32201e-06
1.30387e-06
1.28614e-06
1.26882e-06
1.25188e-06
1.23533e-06
1.21914e-06
1.2033e-06
1.18782e-06
1.17268e-06
1.15786e-06
1.14338e-06
1.12923e-06
1.11536e-06
1.10173e-06
1.08836e-06
1.07527e-06
1.06244e-06
1.04986e-06
1.03754e-06
1.02546e-06
1.01362e-06
1.002e-06
9.90612e-07
9.79441e-07
9.68481e-07
9.57729e-07
9.47177e-07
9.36822e-07
9.26657e-07
9.16679e-07
9.06882e-07
8.97261e-07
8.87813e-07
8.78533e-07
8.69416e-07
8.60458e-07
8.51657e-07
8.43007e-07
8.34504e-07
8.26147e-07
8.1793e-07
8.09851e-07
8.01906e-07
7.94092e-07
7.86405e-07
7.78844e-07
7.71405e-07
7.64085e-07
7.56881e-07
7.49791e-07
7.42812e-07
7.35942e-07
7.29179e-07
7.22519e-07
7.15962e-07
7.09503e-07
7.03143e-07
6.96878e-07
6.90706e-07
6.84626e-07
6.78636e-07
6.72734e-07
6.66918e-07
6.61186e-07
6.55538e-07
6.4997e-07
6.44483e-07
6.39073e-07
6.33741e-07
6.28484e-07
6.233e-07
6.1819e-07
6.1315e-07
6.08181e-07
6.0328e-07
5.98447e-07
5.9368e-07
5.88978e-07
5.84341e-07
5.79766e-07
5.75252e-07
5.708e-07
5.66407e-07
5.62072e-07
5.57795e-07
5.53575e-07
5.4941e-07
5.453e-07
5.41244e-07
5.3724e-07
5.33289e-07
5.29388e-07
5.25538e-07
5.21737e-07
5.17985e-07
5.14281e-07
5.10624e-07
5.07013e-07
5.03447e-07
4.99927e-07
4.9645e-07
4.93017e-07
4.89627e-07
4.86278e-07
4.82972e-07
4.79706e-07
4.7648e-07
4.73293e-07
4.70146e-07
4.67037e-07
4.63965e-07
4.60931e-07
4.57934e-07
4.54972e-07
4.52046e-07
4.49155e-07
4.46299e-07
4.43477e-07
4.40688e-07
4.37934e-07
4.35212e-07
4.32523e-07
4.29867e-07
4.27245e-07
4.24656e-07
4.22103e-07
4.19588e-07
4.17112e-07
4.14682e-07
4.12305e-07
4.09994e-07
4.0777e-07
4.05671e-07
4.03762e-07
4.02162e-07
4.01111e-07
)
;

boundaryField
{
    boundary
    {
        type            empty;
    }
    inlet
    {
        type            fixedValue;
        value           uniform 0;
    }
    outlet
    {
        type            zeroGradient;
    }
}


// ************************************************************************* //
