/*--------------------------------*- C++ -*----------------------------------*\
  =========                 |
  \\      /  F ield         | OpenFOAM: The Open Source CFD Toolbox
   \\    /   O peration     | Website:  https://openfoam.org
    \\  /    A nd           | Version:  7
     \\/     M anipulation  |
\*---------------------------------------------------------------------------*/
FoamFile
{
    version     2.0;
    format      ascii;
    class       volScalarField;
    location    "0.00094";
    object      HO2;
}
// * * * * * * * * * * * * * * * * * * * * * * * * * * * * * * * * * * * * * //

dimensions      [0 0 0 0 0 0 0];

internalField   nonuniform List<scalar> 
500
(
5.59345e-38
1.27313e-37
1.98973e-37
2.70706e-37
3.42462e-37
4.14226e-37
4.85991e-37
5.57746e-37
6.2948e-37
7.01176e-37
7.72815e-37
8.44374e-37
9.15827e-37
9.87151e-37
1.05832e-36
1.12932e-36
1.20014e-36
1.27078e-36
1.34123e-36
1.41152e-36
1.48168e-36
1.55175e-36
1.62177e-36
1.6918e-36
1.76191e-36
1.83215e-36
1.90261e-36
1.97334e-36
2.0444e-36
2.11587e-36
2.1878e-36
2.26025e-36
2.33327e-36
2.40692e-36
2.48125e-36
2.55634e-36
2.63226e-36
2.70909e-36
2.78694e-36
2.86593e-36
2.94618e-36
3.02785e-36
3.11111e-36
3.19615e-36
3.28317e-36
3.37237e-36
3.46398e-36
3.55821e-36
3.65526e-36
3.75533e-36
3.85857e-36
3.96513e-36
4.07509e-36
4.18849e-36
4.30532e-36
4.42548e-36
4.54881e-36
4.67508e-36
4.80399e-36
4.93514e-36
5.06807e-36
5.20225e-36
5.3371e-36
5.47197e-36
5.60619e-36
5.73907e-36
5.8699e-36
5.99799e-36
6.12266e-36
6.24328e-36
6.35928e-36
6.47013e-36
6.5754e-36
6.67473e-36
6.76785e-36
6.85459e-36
6.93484e-36
7.00861e-36
7.07598e-36
7.13708e-36
7.19215e-36
7.24143e-36
7.28526e-36
7.32397e-36
7.35794e-36
7.38756e-36
7.4132e-36
7.43527e-36
7.45414e-36
7.47017e-36
7.4837e-36
7.49504e-36
7.5045e-36
7.51233e-36
7.51878e-36
7.52406e-36
7.52836e-36
7.53184e-36
7.53463e-36
7.53687e-36
7.53866e-36
7.54007e-36
7.54119e-36
7.54207e-36
7.54276e-36
7.54331e-36
7.54374e-36
7.54408e-36
7.54435e-36
7.54457e-36
7.54474e-36
7.54489e-36
7.54502e-36
7.54514e-36
7.54524e-36
7.54534e-36
7.54543e-36
7.54552e-36
7.54561e-36
7.5457e-36
7.54577e-36
7.5458e-36
7.54563e-36
7.54466e-36
7.54058e-36
7.53251e-36
7.53263e-36
7.53276e-36
7.53289e-36
7.53303e-36
7.53317e-36
7.53333e-36
7.53349e-36
7.53366e-36
7.53385e-36
7.53404e-36
7.53425e-36
7.53447e-36
7.53469e-36
7.53493e-36
7.53518e-36
7.53543e-36
7.53569e-36
7.53596e-36
7.53623e-36
7.5365e-36
7.53678e-36
7.53707e-36
7.53736e-36
7.53767e-36
7.53799e-36
7.53833e-36
7.53869e-36
7.53909e-36
7.53952e-36
7.53999e-36
7.5405e-36
7.54106e-36
7.54166e-36
7.54232e-36
7.54301e-36
7.54375e-36
7.54452e-36
7.54532e-36
7.54614e-36
7.54696e-36
7.54779e-36
7.5486e-36
7.54939e-36
7.55015e-36
7.55088e-36
7.55157e-36
7.55221e-36
7.55281e-36
7.55337e-36
7.55389e-36
7.55438e-36
7.55485e-36
7.5553e-36
7.55574e-36
7.55619e-36
7.55665e-36
7.55713e-36
7.55764e-36
7.55817e-36
7.55875e-36
7.55936e-36
7.56001e-36
7.5607e-36
7.56143e-36
7.56218e-36
7.56297e-36
7.56377e-36
7.56459e-36
7.56541e-36
7.56624e-36
7.56705e-36
7.56786e-36
7.56865e-36
7.56941e-36
7.57015e-36
7.57086e-36
7.57153e-36
7.57216e-36
7.57276e-36
7.57331e-36
7.57382e-36
7.57429e-36
7.57473e-36
7.57515e-36
7.5756e-36
7.57628e-36
7.57775e-36
7.58181e-36
7.59418e-36
7.63277e-36
7.75385e-36
8.13356e-36
9.32255e-36
1.30393e-35
2.46393e-35
6.07957e-35
1.73376e-34
5.23672e-34
1.61332e-33
5.00358e-33
1.55607e-32
4.84897e-32
1.51473e-31
4.74827e-31
1.49581e-30
4.74424e-30
1.51841e-29
4.91703e-29
1.61586e-28
5.40546e-28
1.84607e-27
6.45146e-27
2.3102e-26
8.47805e-26
3.18516e-25
1.22251e-24
4.78036e-24
1.89866e-23
7.63714e-23
3.10283e-22
1.27043e-21
5.23266e-21
2.16499e-20
8.98847e-20
3.74166e-19
1.56945e-18
6.57322e-18
2.75125e-17
1.15225e-16
4.82941e-16
2.02552e-15
8.50011e-15
3.56869e-14
1.4988e-13
6.29623e-13
2.64532e-12
1.11145e-11
4.66956e-11
1.96148e-10
8.23694e-10
3.45751e-09
1.45041e-08
6.0768e-08
2.53905e-07
1.05385e-06
4.30886e-06
1.70672e-05
6.29088e-05
0.000196852
0.000426475
0.000520999
0.000459428
0.000348005
0.000247594
0.000173706
0.000121595
8.51719e-05
6.05852e-05
4.19788e-05
3.14672e-05
2.4732e-05
2.03328e-05
1.73672e-05
1.52866e-05
1.37625e-05
1.25986e-05
1.16759e-05
1.09207e-05
1.02865e-05
9.7428e-06
9.26898e-06
8.85067e-06
8.4775e-06
8.14176e-06
7.83756e-06
7.56029e-06
7.30628e-06
7.07254e-06
6.85661e-06
6.65645e-06
6.47032e-06
6.29677e-06
6.13455e-06
5.98261e-06
5.84007e-06
5.70622e-06
5.58425e-06
5.47053e-06
5.36228e-06
5.25913e-06
5.16073e-06
5.06675e-06
4.97691e-06
4.89096e-06
4.80865e-06
4.72976e-06
4.6541e-06
4.58148e-06
4.51172e-06
4.44467e-06
4.38017e-06
4.31809e-06
4.2583e-06
4.20068e-06
4.14512e-06
4.0915e-06
4.03974e-06
3.98974e-06
3.94142e-06
3.89469e-06
3.84948e-06
3.80571e-06
3.76333e-06
3.72226e-06
3.68246e-06
3.64386e-06
3.60641e-06
3.57006e-06
3.53478e-06
3.5005e-06
3.46719e-06
3.43482e-06
3.40335e-06
3.37273e-06
3.34294e-06
3.31395e-06
3.28572e-06
3.25823e-06
3.23145e-06
3.20536e-06
3.17993e-06
3.15513e-06
3.13095e-06
3.10736e-06
3.08435e-06
3.06189e-06
3.03997e-06
3.01856e-06
2.99766e-06
2.97725e-06
2.95731e-06
2.93782e-06
2.91878e-06
2.90017e-06
2.88198e-06
2.86419e-06
2.8468e-06
2.82981e-06
2.81319e-06
2.79696e-06
2.78106e-06
2.76547e-06
2.7502e-06
2.73526e-06
2.72063e-06
2.7063e-06
2.69228e-06
2.67854e-06
2.66508e-06
2.6519e-06
2.63899e-06
2.62633e-06
2.61393e-06
2.60178e-06
2.58987e-06
2.57819e-06
2.56674e-06
2.55551e-06
2.5445e-06
2.53369e-06
2.52309e-06
2.51269e-06
2.50248e-06
2.49246e-06
2.48262e-06
2.47296e-06
2.46347e-06
2.45414e-06
2.44498e-06
2.43598e-06
2.42713e-06
2.41843e-06
2.40987e-06
2.40145e-06
2.39318e-06
2.38503e-06
2.37701e-06
2.36912e-06
2.36136e-06
2.35371e-06
2.34618e-06
2.33876e-06
2.33145e-06
2.32425e-06
2.31716e-06
2.31017e-06
2.30328e-06
2.29649e-06
2.2898e-06
2.28321e-06
2.2767e-06
2.27029e-06
2.26397e-06
2.25774e-06
2.25159e-06
2.24554e-06
2.23956e-06
2.23367e-06
2.22786e-06
2.22213e-06
2.21647e-06
2.2109e-06
2.2054e-06
2.19998e-06
2.19463e-06
2.18936e-06
2.18415e-06
2.17902e-06
2.17396e-06
2.16896e-06
2.16403e-06
2.15917e-06
2.15438e-06
2.14964e-06
2.14497e-06
2.14036e-06
2.13582e-06
2.13133e-06
2.1269e-06
2.12253e-06
2.11822e-06
2.11396e-06
2.10976e-06
2.10561e-06
2.10152e-06
2.09748e-06
2.09349e-06
2.08955e-06
2.08566e-06
2.08182e-06
2.07803e-06
2.07429e-06
2.0706e-06
2.06695e-06
2.06335e-06
2.05979e-06
2.05628e-06
2.0528e-06
2.04937e-06
2.04599e-06
2.04264e-06
2.03933e-06
2.03606e-06
2.03282e-06
2.02962e-06
2.02645e-06
2.02332e-06
2.02021e-06
2.01714e-06
2.0141e-06
2.01108e-06
2.00808e-06
2.00512e-06
2.00217e-06
1.99924e-06
1.99634e-06
1.99346e-06
1.99061e-06
1.98779e-06
1.98502e-06
1.98234e-06
1.97981e-06
1.9776e-06
1.97603e-06
)
;

boundaryField
{
    boundary
    {
        type            empty;
    }
    inlet
    {
        type            fixedValue;
        value           uniform 0;
    }
    outlet
    {
        type            zeroGradient;
    }
}


// ************************************************************************* //
