/*--------------------------------*- C++ -*----------------------------------*\
  =========                 |
  \\      /  F ield         | OpenFOAM: The Open Source CFD Toolbox
   \\    /   O peration     | Website:  https://openfoam.org
    \\  /    A nd           | Version:  7
     \\/     M anipulation  |
\*---------------------------------------------------------------------------*/
FoamFile
{
    version     2.0;
    format      ascii;
    class       volScalarField;
    location    "0.00094";
    object      O;
}
// * * * * * * * * * * * * * * * * * * * * * * * * * * * * * * * * * * * * * //

dimensions      [0 0 0 0 0 0 0];

internalField   nonuniform List<scalar> 
500
(
1.57771e-47
3.76479e-47
5.96473e-47
8.16606e-47
1.03661e-46
1.25641e-46
1.47596e-46
1.69523e-46
1.91415e-46
2.13267e-46
2.35071e-46
2.5682e-46
2.78503e-46
3.00114e-46
3.21645e-46
3.43091e-46
3.64448e-46
3.85718e-46
4.06903e-46
4.28011e-46
4.49054e-46
4.70048e-46
4.91009e-46
5.11961e-46
5.32926e-46
5.53929e-46
5.74996e-46
5.96152e-46
6.17424e-46
6.38837e-46
6.60416e-46
6.82187e-46
7.04174e-46
7.26405e-46
7.48907e-46
7.71711e-46
7.94851e-46
8.18367e-46
8.42303e-46
8.66707e-46
8.91636e-46
9.17152e-46
9.43321e-46
9.70218e-46
9.97919e-46
1.0265e-45
1.05605e-45
1.08665e-45
1.11838e-45
1.1513e-45
1.18548e-45
1.22098e-45
1.25783e-45
1.29605e-45
1.33566e-45
1.37663e-45
1.41891e-45
1.46245e-45
1.50714e-45
1.55287e-45
1.59949e-45
1.64683e-45
1.69471e-45
1.7429e-45
1.79118e-45
1.83932e-45
1.88707e-45
1.93418e-45
1.9804e-45
2.0255e-45
2.06926e-45
2.11146e-45
2.15192e-45
2.19049e-45
2.22701e-45
2.2614e-45
2.29358e-45
2.3235e-45
2.35114e-45
2.37652e-45
2.39968e-45
2.42067e-45
2.43959e-45
2.45653e-45
2.4716e-45
2.48492e-45
2.49662e-45
2.50684e-45
2.51571e-45
2.52336e-45
2.52991e-45
2.53549e-45
2.54022e-45
2.5442e-45
2.54753e-45
2.5503e-45
2.55259e-45
2.55448e-45
2.55602e-45
2.55727e-45
2.55829e-45
2.5591e-45
2.55976e-45
2.56028e-45
2.5607e-45
2.56103e-45
2.56129e-45
2.5615e-45
2.56167e-45
2.56181e-45
2.56191e-45
2.562e-45
2.56208e-45
2.56214e-45
2.5622e-45
2.56225e-45
2.5623e-45
2.56234e-45
2.56238e-45
2.56241e-45
2.56243e-45
2.5624e-45
2.56222e-45
2.56162e-45
2.5598e-45
2.55716e-45
2.55722e-45
2.55727e-45
2.55733e-45
2.55739e-45
2.55746e-45
2.55753e-45
2.5576e-45
2.55768e-45
2.55776e-45
2.55785e-45
2.55794e-45
2.55804e-45
2.55815e-45
2.55826e-45
2.55837e-45
2.55849e-45
2.55862e-45
2.55876e-45
2.5589e-45
2.55905e-45
2.5592e-45
2.55937e-45
2.55955e-45
2.55974e-45
2.55995e-45
2.56017e-45
2.56041e-45
2.56067e-45
2.56095e-45
2.56124e-45
2.56156e-45
2.56189e-45
2.56224e-45
2.56261e-45
2.56298e-45
2.56336e-45
2.56375e-45
2.56414e-45
2.56453e-45
2.56492e-45
2.5653e-45
2.56566e-45
2.56602e-45
2.56636e-45
2.56669e-45
2.567e-45
2.56729e-45
2.56757e-45
2.56784e-45
2.56809e-45
2.56834e-45
2.56857e-45
2.56879e-45
2.56901e-45
2.56922e-45
2.56943e-45
2.56964e-45
2.56985e-45
2.57006e-45
2.57028e-45
2.57049e-45
2.57072e-45
2.57097e-45
2.57129e-45
2.57183e-45
2.57314e-45
2.57705e-45
2.58979e-45
2.63234e-45
2.7751e-45
3.25332e-45
4.84934e-45
1.01539e-44
2.77095e-44
8.55666e-44
2.75456e-43
8.96169e-43
2.91718e-42
9.47237e-42
3.06554e-41
9.88624e-41
3.17722e-40
1.01765e-39
3.24889e-39
1.034e-38
3.28104e-38
1.03818e-37
3.27619e-37
1.03124e-36
3.23829e-36
1.0146e-35
3.17225e-35
9.89906e-35
3.08345e-34
9.58864e-34
2.97724e-33
9.23128e-33
2.85862e-32
8.84191e-32
2.73198e-31
8.43321e-31
2.60094e-30
8.01535e-30
2.46831e-29
7.59597e-29
2.33612e-28
7.18041e-28
2.20576e-27
6.77218e-27
2.0781e-26
6.37349e-26
1.95372e-25
5.98581e-25
1.83301e-24
5.61042e-24
1.71641e-23
5.24872e-23
1.60439e-22
4.90244e-22
1.49755e-21
4.57351e-21
1.39652e-20
4.26388e-20
1.30186e-19
3.97514e-19
1.21929e-18
3.73421e-18
1.14178e-17
3.49005e-17
1.06693e-16
3.26255e-16
9.97953e-16
3.0535e-15
9.34576e-15
2.86122e-14
8.76187e-14
2.68373e-13
8.22181e-13
2.51927e-12
7.72069e-12
2.36653e-11
7.25527e-11
2.22484e-10
6.82527e-10
2.09626e-09
6.46799e-09
2.03449e-08
6.88397e-08
2.87482e-07
1.69336e-06
1.17407e-05
6.35442e-05
0.000265956
0.000854563
0.0019448
0.00330417
0.00455996
0.00548879
0.00608055
0.00635203
0.00643757
0.00640698
0.00630798
0.00617146
0.00601653
0.00585468
0.00569258
0.00553398
0.00538088
0.00523424
0.00509439
0.00496132
0.00483482
0.00471459
0.00460027
0.00449151
0.00438794
0.00428922
0.00419503
0.00410506
0.00401904
0.00393672
0.00385786
0.00378227
0.00370977
0.00364022
0.00357552
0.0035143
0.00345507
0.00339771
0.00334214
0.00328826
0.00323601
0.00318531
0.0031361
0.00308831
0.00304188
0.00299677
0.0029529
0.00291024
0.00286874
0.00282834
0.002789
0.00275068
0.00271335
0.00267696
0.00264147
0.00260686
0.00257308
0.00254012
0.00250793
0.00247649
0.00244577
0.00241575
0.0023864
0.0023577
0.00232962
0.00230215
0.00227527
0.00224895
0.00222318
0.00219795
0.00217322
0.002149
0.00212525
0.00210198
0.00207916
0.00205678
0.00203482
0.00201329
0.00199215
0.00197141
0.00195105
0.00193106
0.00191144
0.00189216
0.00187323
0.00185464
0.00183636
0.00181841
0.00180076
0.00178342
0.00176638
0.00174962
0.00173315
0.00171695
0.00170103
0.00168537
0.00166998
0.00165485
0.00163996
0.00162526
0.00161079
0.00159654
0.00158252
0.00156872
0.00155514
0.00154176
0.00152859
0.00151562
0.00150284
0.00149025
0.00147786
0.00146564
0.00145361
0.00144175
0.00143006
0.00141855
0.00140719
0.001396
0.00138496
0.00137408
0.00136335
0.00135276
0.00134232
0.00133202
0.00132186
0.00131183
0.00130194
0.00129217
0.00128253
0.00127301
0.00126362
0.00125434
0.00124518
0.00123613
0.00122719
0.00121837
0.00120965
0.00120103
0.00119252
0.00118411
0.0011758
0.00116759
0.00115947
0.00115145
0.00114353
0.00113569
0.00112795
0.00112029
0.00111272
0.00110524
0.00109784
0.00109053
0.0010833
0.00107616
0.00106909
0.00106211
0.0010552
0.00104837
0.00104162
0.00103494
0.00102834
0.00102181
0.00101535
0.00100896
0.00100265
0.000996405
0.00099023
0.000984122
0.000978081
0.000972107
0.000966198
0.000960353
0.000954572
0.000948853
0.000943196
0.000937601
0.000932065
0.00092659
0.000921173
0.000915814
0.000910512
0.000905267
0.000900077
0.000894943
0.000889864
0.000884838
0.000879865
0.000874945
0.000870077
0.000865261
0.000860495
0.000855779
0.000851113
0.000846495
0.000841926
0.000837405
0.000832931
0.000828504
0.000824122
0.000819786
0.000815496
0.000811249
0.000807047
0.000802889
0.000798773
0.000794701
0.000790672
0.000786687
0.000782746
0.00077885
0.000775
0.000771201
0.000767456
0.000763771
0.000760158
0.000756632
0.000753218
0.000749953
0.0007469
0.000744162
0.000741915
0.000740481
)
;

boundaryField
{
    boundary
    {
        type            empty;
    }
    inlet
    {
        type            fixedValue;
        value           uniform 0;
    }
    outlet
    {
        type            zeroGradient;
    }
}


// ************************************************************************* //
