/*--------------------------------*- C++ -*----------------------------------*\
  =========                 |
  \\      /  F ield         | OpenFOAM: The Open Source CFD Toolbox
   \\    /   O peration     | Website:  https://openfoam.org
    \\  /    A nd           | Version:  7
     \\/     M anipulation  |
\*---------------------------------------------------------------------------*/
FoamFile
{
    version     2.0;
    format      ascii;
    class       volScalarField;
    location    "0.00094";
    object      O2;
}
// * * * * * * * * * * * * * * * * * * * * * * * * * * * * * * * * * * * * * //

dimensions      [0 0 0 0 0 0 0];

internalField   nonuniform List<scalar> 
500
(
0.226269
0.226269
0.226269
0.226269
0.226269
0.226269
0.226269
0.226269
0.226269
0.226269
0.226269
0.226269
0.226269
0.226269
0.226269
0.226269
0.226269
0.226269
0.226269
0.226269
0.226269
0.226269
0.226269
0.226269
0.226269
0.226269
0.226269
0.226269
0.226269
0.226269
0.226269
0.226269
0.226269
0.226269
0.226269
0.226269
0.226269
0.226269
0.226269
0.226269
0.226269
0.226269
0.226269
0.226269
0.226269
0.226269
0.226269
0.226269
0.226269
0.226269
0.226269
0.226269
0.226269
0.226269
0.226269
0.226269
0.226269
0.226269
0.226269
0.226269
0.226269
0.226269
0.226269
0.226269
0.226269
0.226269
0.226269
0.226269
0.226269
0.226269
0.226269
0.226269
0.226269
0.226269
0.226269
0.226269
0.226269
0.226269
0.226269
0.226269
0.226269
0.226269
0.226269
0.226269
0.226269
0.226269
0.226269
0.226269
0.226269
0.226269
0.226269
0.226269
0.226269
0.226269
0.226269
0.226269
0.226269
0.226269
0.226269
0.226269
0.226269
0.226269
0.226269
0.226269
0.226269
0.226269
0.226269
0.226269
0.226269
0.226269
0.226269
0.226269
0.226269
0.226269
0.226269
0.226269
0.226269
0.226269
0.226269
0.226269
0.226269
0.226269
0.226269
0.226269
0.226269
0.226269
0.226269
0.226269
0.226269
0.226269
0.226269
0.226269
0.226269
0.226269
0.226269
0.226269
0.226269
0.226269
0.226269
0.226269
0.226269
0.226269
0.226269
0.226269
0.226269
0.226269
0.226269
0.226269
0.226269
0.226269
0.226269
0.226269
0.226269
0.226269
0.226269
0.226269
0.226269
0.226269
0.226269
0.226269
0.226269
0.226269
0.226269
0.226269
0.226269
0.226269
0.226269
0.226269
0.226269
0.226269
0.226269
0.226269
0.226269
0.226269
0.226269
0.226269
0.226269
0.226269
0.226269
0.226269
0.226269
0.226269
0.226269
0.226269
0.226269
0.226269
0.226269
0.226269
0.226269
0.226269
0.226269
0.226269
0.226269
0.226269
0.226269
0.226269
0.226269
0.226269
0.226269
0.226269
0.226269
0.226269
0.226269
0.226269
0.226269
0.226269
0.226269
0.226269
0.226269
0.226269
0.226269
0.226269
0.226269
0.226269
0.226269
0.226269
0.226269
0.226269
0.226269
0.226269
0.226269
0.226269
0.226269
0.226269
0.226269
0.226269
0.226269
0.226269
0.226269
0.226269
0.226269
0.226269
0.226269
0.226269
0.226269
0.226269
0.226269
0.226269
0.226269
0.226269
0.226269
0.226269
0.226269
0.226269
0.226269
0.226269
0.226269
0.226269
0.226269
0.226269
0.226269
0.226269
0.226269
0.226269
0.226269
0.226269
0.226269
0.226269
0.226269
0.226269
0.226269
0.226269
0.226269
0.226269
0.226269
0.226269
0.226269
0.22627
0.226271
0.226274
0.226277
0.226277
0.226255
0.226119
0.225546
0.223652
0.218718
0.209128
0.195839
0.179071
0.157633
0.132346
0.107158
0.0863448
0.0676788
0.0563117
0.0486002
0.0433876
0.0398099
0.0372817
0.0354255
0.0340032
0.0328663
0.0319219
0.0311117
0.0303984
0.0297579
0.0291739
0.0286355
0.0281349
0.0276663
0.0272255
0.0268089
0.0264141
0.0260386
0.0256808
0.025339
0.0250119
0.0246984
0.0243977
0.024109
0.0238318
0.0235739
0.0233283
0.02309
0.0228586
0.0226338
0.0224153
0.0222028
0.0219961
0.0217949
0.0215989
0.0214081
0.0212221
0.0210408
0.0208639
0.0206914
0.020523
0.0203585
0.0201978
0.0200408
0.0198872
0.0197371
0.0195901
0.0194462
0.0193053
0.0191673
0.019032
0.0188994
0.0187693
0.0186417
0.0185164
0.0183934
0.0182727
0.018154
0.0180375
0.0179229
0.0178103
0.0176995
0.0175906
0.0174834
0.0173779
0.0172741
0.0171719
0.0170713
0.0169722
0.0168746
0.0167785
0.0166837
0.0165904
0.0164983
0.0164076
0.0163182
0.01623
0.0161431
0.0160573
0.0159728
0.0158893
0.015807
0.0157258
0.0156457
0.0155667
0.0154887
0.0154118
0.0153359
0.0152611
0.0151873
0.0151143
0.0150422
0.0149711
0.0149008
0.0148315
0.014763
0.0146954
0.0146286
0.0145627
0.0144975
0.0144332
0.0143697
0.0143069
0.0142448
0.0141836
0.014123
0.0140631
0.0140039
0.0139454
0.0138876
0.0138304
0.0137738
0.0137178
0.0136625
0.0136077
0.0135534
0.0134998
0.0134466
0.013394
0.0133419
0.0132902
0.0132391
0.0131884
0.0131382
0.0130884
0.0130391
0.0129902
0.0129417
0.0128936
0.0128459
0.0127987
0.0127518
0.0127052
0.0126591
0.0126133
0.0125679
0.0125229
0.0124782
0.0124338
0.0123898
0.0123462
0.0123029
0.0122599
0.0122173
0.012175
0.0121331
0.0120914
0.0120502
0.0120092
0.0119686
0.0119283
0.0118883
0.0118487
0.0118093
0.0117703
0.0117316
0.0116932
0.0116551
0.0116174
0.0115799
0.0115428
0.0115059
0.0114693
0.0114331
0.0113971
0.0113614
0.011326
0.0112909
0.0112561
0.0112216
0.0111873
0.0111533
0.0111196
0.0110862
0.011053
0.0110201
0.0109874
0.010955
0.0109229
0.010891
0.0108594
0.010828
0.0107969
0.010766
0.0107353
0.0107049
0.0106747
0.0106447
0.0106149
0.0105854
0.0105561
0.0105269
0.010498
0.0104692
0.0104407
0.0104123
0.0103841
0.010356
0.010328
0.0103002
0.0102725
0.010245
0.0102175
0.0101901
0.0101627
0.0101354
0.0101082
0.0100811
0.0100543
0.0100281
0.0100032
0.00998114
0.00996569
)
;

boundaryField
{
    boundary
    {
        type            empty;
    }
    inlet
    {
        type            fixedValue;
        value           uniform 0.226269;
    }
    outlet
    {
        type            zeroGradient;
    }
}


// ************************************************************************* //
