/*--------------------------------*- C++ -*----------------------------------*\
  =========                 |
  \\      /  F ield         | OpenFOAM: The Open Source CFD Toolbox
   \\    /   O peration     | Website:  https://openfoam.org
    \\  /    A nd           | Version:  7
     \\/     M anipulation  |
\*---------------------------------------------------------------------------*/
FoamFile
{
    version     2.0;
    format      ascii;
    class       volScalarField;
    location    "0.00094";
    object      OH;
}
// * * * * * * * * * * * * * * * * * * * * * * * * * * * * * * * * * * * * * //

dimensions      [0 0 0 0 0 0 0];

internalField   nonuniform List<scalar> 
500
(
9.38449e-48
1.82916e-47
2.43847e-47
2.85138e-47
3.13073e-47
3.32e-47
3.44867e-47
3.53657e-47
3.59702e-47
3.63895e-47
3.66833e-47
3.68914e-47
3.70404e-47
3.71478e-47
3.72255e-47
3.72813e-47
3.73205e-47
3.73469e-47
3.73632e-47
3.73718e-47
3.73744e-47
3.73728e-47
3.73686e-47
3.73636e-47
3.73591e-47
3.73569e-47
3.73583e-47
3.73648e-47
3.73774e-47
3.73975e-47
3.74259e-47
3.74636e-47
3.75112e-47
3.75696e-47
3.76393e-47
3.77211e-47
3.78155e-47
3.79235e-47
3.80459e-47
3.81837e-47
3.83381e-47
3.85107e-47
3.87029e-47
3.89165e-47
3.91534e-47
3.94158e-47
3.97059e-47
4.00258e-47
4.03779e-47
4.07644e-47
4.11875e-47
4.16492e-47
4.21512e-47
4.26951e-47
4.32818e-47
4.3912e-47
4.4586e-47
4.53033e-47
4.60629e-47
4.68632e-47
4.77019e-47
4.8576e-47
4.94818e-47
5.0415e-47
5.13707e-47
5.23436e-47
5.33278e-47
5.43171e-47
5.53052e-47
5.62854e-47
5.72516e-47
5.81974e-47
5.9117e-47
6.00049e-47
6.08565e-47
6.16674e-47
6.24344e-47
6.31546e-47
6.38264e-47
6.44485e-47
6.50208e-47
6.55435e-47
6.60177e-47
6.6445e-47
6.68275e-47
6.71676e-47
6.7468e-47
6.77316e-47
6.79614e-47
6.81605e-47
6.83319e-47
6.84785e-47
6.86033e-47
6.87087e-47
6.87972e-47
6.88712e-47
6.89327e-47
6.89834e-47
6.90251e-47
6.90591e-47
6.90868e-47
6.91093e-47
6.91273e-47
6.91418e-47
6.91534e-47
6.91627e-47
6.91701e-47
6.9176e-47
6.91807e-47
6.91845e-47
6.91876e-47
6.91902e-47
6.91923e-47
6.91941e-47
6.91957e-47
6.91972e-47
6.91985e-47
6.91998e-47
6.9201e-47
6.92021e-47
6.92033e-47
6.92043e-47
6.9205e-47
6.92047e-47
6.92016e-47
6.91967e-47
6.91979e-47
6.91993e-47
6.92009e-47
6.92028e-47
6.92048e-47
6.9207e-47
6.92093e-47
6.92118e-47
6.92145e-47
6.92173e-47
6.92205e-47
6.92238e-47
6.92273e-47
6.9231e-47
6.92348e-47
6.92387e-47
6.92426e-47
6.92464e-47
6.92503e-47
6.9254e-47
6.92576e-47
6.9261e-47
6.92643e-47
6.92674e-47
6.92704e-47
6.92733e-47
6.92761e-47
6.92789e-47
6.92818e-47
6.92847e-47
6.92877e-47
6.92908e-47
6.92941e-47
6.92976e-47
6.93013e-47
6.93051e-47
6.93092e-47
6.93134e-47
6.93179e-47
6.93225e-47
6.93272e-47
6.9332e-47
6.93369e-47
6.93419e-47
6.9347e-47
6.93522e-47
6.93574e-47
6.93626e-47
6.93678e-47
6.93731e-47
6.93784e-47
6.93838e-47
6.93891e-47
6.93946e-47
6.94e-47
6.94055e-47
6.9411e-47
6.94166e-47
6.94222e-47
6.94279e-47
6.94336e-47
6.94393e-47
6.94451e-47
6.9451e-47
6.94573e-47
6.9465e-47
6.94772e-47
6.95049e-47
6.9585e-47
6.98412e-47
7.06872e-47
7.3499e-47
8.28348e-47
1.13727e-46
2.15545e-46
5.49772e-46
1.6425e-45
5.20101e-45
1.67451e-44
5.40563e-44
1.74214e-43
5.5983e-43
1.79324e-42
5.7257e-42
1.82251e-41
5.78386e-41
1.83034e-40
5.77667e-40
1.81851e-39
5.71103e-39
1.78952e-38
5.59558e-38
1.74625e-37
5.43976e-37
1.69172e-36
5.25306e-36
1.62887e-35
5.04431e-35
1.56032e-34
4.82132e-34
1.48834e-33
4.59055e-33
1.41477e-32
4.35708e-32
1.34099e-31
4.12478e-31
1.26807e-30
3.89656e-30
1.19685e-29
3.67498e-29
1.12817e-28
3.46307e-28
1.06321e-27
3.2658e-27
1.00413e-26
3.09273e-26
9.55221e-26
2.9631e-25
9.25163e-25
2.91626e-24
9.31784e-24
3.0331e-23
1.01185e-22
3.48083e-22
1.24147e-21
4.63109e-21
1.79232e-20
7.18761e-20
2.97627e-19
1.26533e-18
5.49039e-18
2.41877e-17
1.07732e-16
4.83565e-16
2.18232e-15
9.88583e-15
4.48997e-14
2.04298e-13
9.30765e-13
4.24428e-12
1.93659e-11
8.84012e-11
4.07224e-10
1.89682e-09
8.89814e-09
4.20551e-08
2.03759e-07
1.06758e-06
6.55567e-06
4.48889e-05
0.000239408
0.000603733
0.00082209
0.000990958
0.00140755
0.00225137
0.00347248
0.00485197
0.00631779
0.00747197
0.0084033
0.00913608
0.00970715
0.0101529
0.0105032
0.0107811
0.0110036
0.0111831
0.0113288
0.0114474
0.0115441
0.0116228
0.0116864
0.0117374
0.0117776
0.0118087
0.0118318
0.011848
0.0118583
0.0118633
0.0118637
0.0118601
0.0118529
0.0118426
0.0118295
0.011814
0.0117969
0.0117785
0.0117585
0.0117372
0.0117147
0.0116909
0.0116662
0.0116405
0.0116141
0.0115868
0.011559
0.0115305
0.0115015
0.0114721
0.0114422
0.011412
0.0113815
0.0113507
0.0113196
0.0112884
0.011257
0.0112254
0.0111937
0.0111618
0.0111299
0.011098
0.011066
0.0110339
0.0110018
0.0109698
0.0109377
0.0109056
0.0108736
0.0108416
0.0108097
0.0107778
0.010746
0.0107142
0.0106826
0.010651
0.0106195
0.010588
0.0105567
0.0105255
0.0104944
0.0104634
0.0104326
0.0104018
0.0103712
0.0103407
0.0103103
0.01028
0.0102499
0.01022
0.0101901
0.0101604
0.0101309
0.0101015
0.0100723
0.0100432
0.0100143
0.00998549
0.00995688
0.00992843
0.00990012
0.00987192
0.00984388
0.009816
0.00978829
0.00976073
0.00973334
0.00970612
0.00967905
0.00965215
0.00962541
0.00959883
0.00957241
0.00954615
0.00952004
0.0094941
0.00946831
0.00944268
0.0094172
0.00939188
0.0093667
0.00934167
0.00931679
0.00929205
0.00926746
0.009243
0.00921868
0.0091945
0.00917045
0.00914653
0.00912275
0.00909908
0.00907555
0.00905214
0.00902885
0.00900568
0.00898263
0.0089597
0.00893688
0.00891418
0.00889159
0.00886912
0.00884676
0.00882451
0.00880238
0.00878035
0.00875844
0.00873664
0.00871495
0.00869337
0.00867191
0.00865055
0.00862931
0.00860818
0.00858716
0.00856625
0.00854546
0.00852478
0.00850421
0.00848375
0.00846341
0.00844318
0.00842306
0.00840306
0.00838317
0.00836339
0.00834373
0.00832417
0.00830473
0.0082854
0.00826619
0.00824709
0.00822809
0.00820921
0.00819044
0.00817178
0.00815322
0.00813478
0.00811645
0.00809822
0.0080801
0.0080621
0.0080442
0.00802641
0.00800872
0.00799115
0.00797368
0.00795632
0.00793906
0.00792191
0.00790487
0.00788793
0.0078711
0.00785438
0.00783776
0.00782125
0.00780484
0.00778853
0.00777234
0.00775624
0.00774025
0.00772436
0.00770857
0.00769289
0.00767731
0.00766183
0.00764646
0.00763119
0.00761603
0.00760098
0.00758605
0.00757123
0.00755655
0.00754202
0.00752766
0.0075135
0.00749961
0.00748604
0.00747292
0.00746042
0.00744881
0.00743849
0.00743015
0.00742488
)
;

boundaryField
{
    boundary
    {
        type            empty;
    }
    inlet
    {
        type            fixedValue;
        value           uniform 0;
    }
    outlet
    {
        type            zeroGradient;
    }
}


// ************************************************************************* //
