/*--------------------------------*- C++ -*----------------------------------*\
  =========                 |
  \\      /  F ield         | OpenFOAM: The Open Source CFD Toolbox
   \\    /   O peration     | Website:  https://openfoam.org
    \\  /    A nd           | Version:  7
     \\/     M anipulation  |
\*---------------------------------------------------------------------------*/
FoamFile
{
    version     2.0;
    format      ascii;
    class       volScalarField;
    location    "0.00094";
    object      T;
}
// * * * * * * * * * * * * * * * * * * * * * * * * * * * * * * * * * * * * * //

dimensions      [0 0 0 1 0 0 0];

internalField   nonuniform List<scalar> 
500
(
300
300.001
300.002
300.003
300.004
300.005
300.006
300.007
300.007
300.008
300.008
300.008
300.008
300.007
300.007
300.005
300.004
300.002
300
299.997
299.994
299.991
299.988
299.985
299.982
299.979
299.976
299.974
299.972
299.971
299.97
299.97
299.971
299.973
299.975
299.978
299.982
299.987
299.993
299.999
300.008
300.017
300.027
300.039
300.053
300.068
300.085
300.103
300.124
300.147
300.172
300.199
300.228
300.26
300.293
300.329
300.368
300.408
300.45
300.494
300.539
300.586
300.634
300.682
300.731
300.779
300.828
300.876
300.924
300.97
301.015
301.058
301.1
301.139
301.177
301.212
301.245
301.276
301.304
301.33
301.354
301.375
301.394
301.412
301.427
301.441
301.453
301.463
301.472
301.48
301.487
301.493
301.498
301.502
301.505
301.508
301.511
301.513
301.514
301.516
301.517
301.518
301.518
301.519
301.519
301.52
301.52
301.52
301.52
301.521
301.521
301.521
301.521
301.521
301.521
301.521
301.521
301.521
301.521
301.521
301.521
301.521
301.521
301.521
301.521
301.521
301.521
301.522
301.522
301.522
301.522
301.522
301.522
301.522
301.522
301.522
301.522
301.523
301.523
301.523
301.523
301.523
301.523
301.523
301.524
301.524
301.524
301.524
301.524
301.524
301.524
301.524
301.525
301.525
301.525
301.525
301.525
301.525
301.525
301.525
301.525
301.526
301.526
301.526
301.526
301.526
301.526
301.526
301.527
301.527
301.527
301.527
301.527
301.528
301.528
301.528
301.528
301.528
301.529
301.529
301.529
301.529
301.529
301.53
301.53
301.53
301.53
301.531
301.531
301.531
301.531
301.531
301.532
301.532
301.532
301.532
301.533
301.533
301.533
301.533
301.533
301.534
301.534
301.534
301.534
301.534
301.534
301.535
301.535
301.535
301.535
301.535
301.535
301.535
301.535
301.535
301.535
301.535
301.535
301.535
301.535
301.535
301.535
301.535
301.535
301.534
301.534
301.534
301.534
301.533
301.533
301.533
301.532
301.532
301.531
301.531
301.53
301.53
301.529
301.529
301.528
301.527
301.526
301.526
301.525
301.524
301.523
301.522
301.521
301.52
301.518
301.517
301.516
301.514
301.513
301.512
301.51
301.509
301.507
301.506
301.504
301.502
301.501
301.499
301.498
301.497
301.5
301.511
301.546
301.648
301.942
302.781
305.177
311.985
330.839
378.12
472.663
611.266
766.32
917.88
1060.5
1190.58
1301.64
1396.24
1476.14
1539.47
1589.98
1632.73
1669.43
1701.44
1729.74
1755.04
1777.87
1798.63
1817.65
1835.15
1851.35
1866.4
1880.45
1893.59
1905.92
1917.54
1928.5
1938.86
1948.69
1958.02
1966.89
1975.35
1983.42
1991.13
1998.5
2005.54
2012.1
2018.27
2024.26
2030.06
2035.67
2041.11
2046.39
2051.52
2056.5
2061.34
2066.04
2070.62
2075.08
2079.42
2083.65
2087.77
2091.8
2095.72
2099.56
2103.3
2106.96
2110.53
2114.03
2117.45
2120.8
2124.07
2127.28
2130.42
2133.5
2136.52
2139.47
2142.37
2145.22
2148.01
2150.74
2153.43
2156.07
2158.66
2161.21
2163.71
2166.17
2168.58
2170.96
2173.29
2175.59
2177.85
2180.07
2182.26
2184.41
2186.53
2188.61
2190.67
2192.69
2194.68
2196.64
2198.58
2200.48
2202.36
2204.21
2206.04
2207.83
2209.61
2211.35
2213.06
2214.76
2216.44
2218.1
2219.74
2221.36
2222.96
2224.54
2226.09
2227.63
2229.15
2230.65
2232.14
2233.6
2235.05
2236.48
2237.9
2239.3
2240.68
2242.05
2243.4
2244.73
2246.06
2247.36
2248.65
2249.93
2251.19
2252.44
2253.68
2254.9
2256.11
2257.3
2258.49
2259.65
2260.81
2261.96
2263.09
2264.21
2265.32
2266.42
2267.5
2268.58
2269.64
2270.69
2271.73
2272.76
2273.78
2274.8
2275.8
2276.79
2277.77
2278.74
2279.7
2280.65
2281.59
2282.53
2283.45
2284.37
2285.28
2286.18
2287.07
2287.95
2288.83
2289.7
2290.56
2291.41
2292.25
2293.09
2293.92
2294.74
2295.56
2296.37
2297.17
2297.96
2298.75
2299.53
2300.31
2301.07
2301.84
2302.59
2303.34
2304.08
2304.82
2305.55
2306.28
2307
2307.71
2308.42
2309.12
2309.82
2310.51
2311.2
2311.88
2312.56
2313.23
2313.89
2314.55
2315.21
2315.86
2316.51
2317.15
2317.79
2318.42
2319.05
2319.67
2320.29
2320.9
2321.51
2322.12
2322.72
2323.32
2323.91
2324.5
2325.08
2325.66
2326.24
2326.81
2327.37
2327.94
2328.49
2329.04
2329.57
2330.06
2330.5
2330.78
)
;

boundaryField
{
    boundary
    {
        type            empty;
    }
    inlet
    {
        type            fixedValue;
        value           uniform 300;
    }
    outlet
    {
        type            zeroGradient;
    }
}


// ************************************************************************* //
