/*--------------------------------*- C++ -*----------------------------------*\
  =========                 |
  \\      /  F ield         | OpenFOAM: The Open Source CFD Toolbox
   \\    /   O peration     | Website:  https://openfoam.org
    \\  /    A nd           | Version:  7
     \\/     M anipulation  |
\*---------------------------------------------------------------------------*/
FoamFile
{
    version     2.0;
    format      ascii;
    class       volScalarField;
    location    "0.00084";
    object      HO2;
}
// * * * * * * * * * * * * * * * * * * * * * * * * * * * * * * * * * * * * * //

dimensions      [0 0 0 0 0 0 0];

internalField   nonuniform List<scalar> 
124
(
2.79026e-06
2.7746e-06
2.75926e-06
2.74423e-06
2.72949e-06
2.71505e-06
2.70088e-06
2.687e-06
2.67338e-06
2.66002e-06
2.64692e-06
2.63407e-06
2.62146e-06
2.60908e-06
2.59694e-06
2.58502e-06
2.57333e-06
2.56184e-06
2.55057e-06
2.53951e-06
2.52864e-06
2.51798e-06
2.5075e-06
2.49721e-06
2.4871e-06
2.47718e-06
2.46742e-06
2.45784e-06
2.44843e-06
2.43917e-06
2.43008e-06
2.42114e-06
2.41236e-06
2.40372e-06
2.39522e-06
2.38687e-06
2.37866e-06
2.37058e-06
2.36263e-06
2.35481e-06
2.34712e-06
2.33955e-06
2.3321e-06
2.32477e-06
2.31755e-06
2.31045e-06
2.30345e-06
2.29657e-06
2.28979e-06
2.28312e-06
2.27654e-06
2.27007e-06
2.2637e-06
2.25742e-06
2.25123e-06
2.24514e-06
2.23914e-06
2.23323e-06
2.22741e-06
2.22167e-06
2.21602e-06
2.21045e-06
2.20497e-06
2.19956e-06
2.19424e-06
2.18899e-06
2.18382e-06
2.17872e-06
2.17369e-06
2.16874e-06
2.16386e-06
2.15904e-06
2.1543e-06
2.14962e-06
2.145e-06
2.14045e-06
2.13595e-06
2.13152e-06
2.12714e-06
2.12282e-06
2.11855e-06
2.11433e-06
2.11017e-06
2.10605e-06
2.10198e-06
2.09795e-06
2.09396e-06
2.09001e-06
2.0861e-06
2.08223e-06
2.07839e-06
2.07458e-06
2.0708e-06
2.06705e-06
2.06332e-06
2.05961e-06
2.05592e-06
2.05225e-06
2.04859e-06
2.04494e-06
2.04129e-06
2.03765e-06
2.03402e-06
2.03037e-06
2.02673e-06
2.02307e-06
2.01939e-06
2.0157e-06
2.01198e-06
2.00824e-06
2.00446e-06
2.00064e-06
1.99677e-06
1.99286e-06
1.98889e-06
1.98486e-06
1.98076e-06
1.97661e-06
1.97241e-06
1.96819e-06
1.964e-06
1.95997e-06
1.95638e-06
1.95382e-06
)
;

boundaryField
{
    boundary
    {
        type            empty;
    }
    inlet
    {
        type            fixedValue;
        value           nonuniform 0();
    }
    outlet
    {
        type            zeroGradient;
    }
    procBoundary0to1
    {
        type            processor;
        value           uniform 2.80613e-06;
    }
}


// ************************************************************************* //
