/*--------------------------------*- C++ -*----------------------------------*\
  =========                 |
  \\      /  F ield         | OpenFOAM: The Open Source CFD Toolbox
   \\    /   O peration     | Website:  https://openfoam.org
    \\  /    A nd           | Version:  7
     \\/     M anipulation  |
\*---------------------------------------------------------------------------*/
FoamFile
{
    version     2.0;
    format      ascii;
    class       volVectorField;
    location    "0.00084";
    object      U;
}
// * * * * * * * * * * * * * * * * * * * * * * * * * * * * * * * * * * * * * //

dimensions      [0 1 -1 0 0 0 0];

internalField   nonuniform List<vector> 
124
(
(15.7925 0 0)
(15.8027 0 0)
(15.8126 0 0)
(15.8225 0 0)
(15.8322 0 0)
(15.8418 0 0)
(15.8513 0 0)
(15.8607 0 0)
(15.8699 0 0)
(15.879 0 0)
(15.888 0 0)
(15.8969 0 0)
(15.9056 0 0)
(15.9143 0 0)
(15.9228 0 0)
(15.9313 0 0)
(15.9396 0 0)
(15.9479 0 0)
(15.956 0 0)
(15.9641 0 0)
(15.972 0 0)
(15.9799 0 0)
(15.9876 0 0)
(15.9953 0 0)
(16.0029 0 0)
(16.0104 0 0)
(16.0178 0 0)
(16.0251 0 0)
(16.0324 0 0)
(16.0395 0 0)
(16.0466 0 0)
(16.0536 0 0)
(16.0606 0 0)
(16.0674 0 0)
(16.0742 0 0)
(16.0809 0 0)
(16.0876 0 0)
(16.0941 0 0)
(16.1006 0 0)
(16.1071 0 0)
(16.1134 0 0)
(16.1197 0 0)
(16.126 0 0)
(16.1321 0 0)
(16.1382 0 0)
(16.1443 0 0)
(16.1503 0 0)
(16.1562 0 0)
(16.162 0 0)
(16.1678 0 0)
(16.1736 0 0)
(16.1793 0 0)
(16.1849 0 0)
(16.1905 0 0)
(16.196 0 0)
(16.2015 0 0)
(16.2069 0 0)
(16.2123 0 0)
(16.2176 0 0)
(16.2229 0 0)
(16.2281 0 0)
(16.2333 0 0)
(16.2384 0 0)
(16.2435 0 0)
(16.2485 0 0)
(16.2535 0 0)
(16.2584 0 0)
(16.2633 0 0)
(16.2681 0 0)
(16.2729 0 0)
(16.2777 0 0)
(16.2824 0 0)
(16.2871 0 0)
(16.2917 0 0)
(16.2963 0 0)
(16.3009 0 0)
(16.3054 0 0)
(16.3099 0 0)
(16.3143 0 0)
(16.3187 0 0)
(16.323 0 0)
(16.3274 0 0)
(16.3316 0 0)
(16.3359 0 0)
(16.3401 0 0)
(16.3443 0 0)
(16.3484 0 0)
(16.3525 0 0)
(16.3566 0 0)
(16.3606 0 0)
(16.3646 0 0)
(16.3686 0 0)
(16.3725 0 0)
(16.3764 0 0)
(16.3803 0 0)
(16.3841 0 0)
(16.388 0 0)
(16.3917 0 0)
(16.3955 0 0)
(16.3992 0 0)
(16.4029 0 0)
(16.4066 0 0)
(16.4102 0 0)
(16.4138 0 0)
(16.4174 0 0)
(16.4209 0 0)
(16.4244 0 0)
(16.4279 0 0)
(16.4314 0 0)
(16.4348 0 0)
(16.4383 0 0)
(16.4417 0 0)
(16.445 0 0)
(16.4484 0 0)
(16.4517 0 0)
(16.455 0 0)
(16.4583 0 0)
(16.4616 0 0)
(16.4649 0 0)
(16.4681 0 0)
(16.4713 0 0)
(16.4743 0 0)
(16.4769 0 0)
(16.4787 0 0)
)
;

boundaryField
{
    boundary
    {
        type            empty;
    }
    inlet
    {
        type            fixedValue;
        value           nonuniform 0();
    }
    outlet
    {
        type            zeroGradient;
    }
    procBoundary0to1
    {
        type            processor;
        value           uniform (15.7823 0 0);
    }
}


// ************************************************************************* //
