/*--------------------------------*- C++ -*----------------------------------*\
  =========                 |
  \\      /  F ield         | OpenFOAM: The Open Source CFD Toolbox
   \\    /   O peration     | Website:  https://openfoam.org
    \\  /    A nd           | Version:  7
     \\/     M anipulation  |
\*---------------------------------------------------------------------------*/
FoamFile
{
    version     2.0;
    format      ascii;
    class       volScalarField;
    location    "0.00011";
    object      H;
}
// * * * * * * * * * * * * * * * * * * * * * * * * * * * * * * * * * * * * * //

dimensions      [0 0 0 0 0 0 0];

internalField   nonuniform List<scalar> 
124
(
8.76472e-05
8.62286e-05
8.49472e-05
8.3792e-05
8.2753e-05
8.18208e-05
8.09865e-05
8.02416e-05
7.95783e-05
7.89893e-05
7.84675e-05
7.80064e-05
7.76002e-05
7.72431e-05
7.69301e-05
7.66565e-05
7.64179e-05
7.62104e-05
7.60305e-05
7.58748e-05
7.57406e-05
7.56251e-05
7.55261e-05
7.54414e-05
7.53691e-05
7.53077e-05
7.52557e-05
7.52117e-05
7.51746e-05
7.51434e-05
7.51174e-05
7.50956e-05
7.50774e-05
7.50624e-05
7.50499e-05
7.50397e-05
7.50313e-05
7.50244e-05
7.50187e-05
7.50141e-05
7.50104e-05
7.50074e-05
7.5005e-05
7.50031e-05
7.50015e-05
7.50003e-05
7.49994e-05
7.49986e-05
7.4998e-05
7.49976e-05
7.49972e-05
7.4997e-05
7.49968e-05
7.49967e-05
7.49966e-05
7.49965e-05
7.49965e-05
7.49964e-05
7.49964e-05
7.49964e-05
7.49964e-05
7.49965e-05
7.49965e-05
7.49965e-05
7.49965e-05
7.49965e-05
7.49965e-05
7.49966e-05
7.49966e-05
7.49966e-05
7.49966e-05
7.49966e-05
7.49966e-05
7.49966e-05
7.49966e-05
7.49966e-05
7.49966e-05
7.49966e-05
7.49966e-05
7.49966e-05
7.49966e-05
7.49966e-05
7.49965e-05
7.49965e-05
7.49965e-05
7.49965e-05
7.49964e-05
7.49964e-05
7.49964e-05
7.49963e-05
7.49963e-05
7.49962e-05
7.49962e-05
7.49961e-05
7.49961e-05
7.4996e-05
7.4996e-05
7.49959e-05
7.49958e-05
7.49958e-05
7.49957e-05
7.49956e-05
7.49955e-05
7.49954e-05
7.49954e-05
7.49953e-05
7.49952e-05
7.49951e-05
7.4995e-05
7.49949e-05
7.49948e-05
7.49947e-05
7.49946e-05
7.49944e-05
7.49943e-05
7.49942e-05
7.49941e-05
7.4994e-05
7.49939e-05
7.49938e-05
7.49937e-05
7.49936e-05
7.49935e-05
7.49935e-05
)
;

boundaryField
{
    boundary
    {
        type            empty;
    }
    inlet
    {
        type            fixedValue;
        value           nonuniform 0();
    }
    outlet
    {
        type            zeroGradient;
    }
    procBoundary0to1
    {
        type            processor;
        value           uniform 8.92154e-05;
    }
}


// ************************************************************************* //
