/*--------------------------------*- C++ -*----------------------------------*\
  =========                 |
  \\      /  F ield         | OpenFOAM: The Open Source CFD Toolbox
   \\    /   O peration     | Website:  https://openfoam.org
    \\  /    A nd           | Version:  7
     \\/     M anipulation  |
\*---------------------------------------------------------------------------*/
FoamFile
{
    version     2.0;
    format      ascii;
    class       volScalarField;
    location    "0.00011";
    object      p;
}
// * * * * * * * * * * * * * * * * * * * * * * * * * * * * * * * * * * * * * //

dimensions      [1 -1 -2 0 0 0 0];

internalField   nonuniform List<scalar> 
124
(
102919
102918
102918
102918
102918
102918
102918
102918
102918
102918
102918
102917
102917
102917
102917
102917
102917
102917
102917
102917
102917
102916
102916
102916
102916
102916
102916
102916
102916
102916
102916
102915
102915
102915
102915
102915
102915
102915
102915
102915
102914
102914
102914
102914
102914
102914
102914
102914
102914
102913
102913
102913
102913
102913
102913
102913
102913
102912
102912
102912
102912
102912
102912
102912
102912
102911
102911
102911
102911
102911
102911
102911
102911
102910
102910
102910
102910
102910
102910
102910
102909
102909
102909
102909
102909
102909
102909
102908
102908
102908
102908
102908
102908
102908
102907
102907
102907
102907
102907
102907
102907
102906
102906
102906
102906
102906
102906
102905
102905
102905
102905
102905
102905
102904
102904
102904
102904
102904
102904
102904
102903
102903
102903
102903
)
;

boundaryField
{
    boundary
    {
        type            empty;
    }
    inlet
    {
        type            zeroGradient;
    }
    outlet
    {
        type            waveTransmissive;
        gamma           1.4;
        value           uniform 102903;
    }
    procBoundary0to1
    {
        type            processor;
        value           uniform 102919;
    }
}


// ************************************************************************* //
