/*--------------------------------*- C++ -*----------------------------------*\
  =========                 |
  \\      /  F ield         | OpenFOAM: The Open Source CFD Toolbox
   \\    /   O peration     | Website:  https://openfoam.org
    \\  /    A nd           | Version:  7
     \\/     M anipulation  |
\*---------------------------------------------------------------------------*/
FoamFile
{
    version     2.0;
    format      ascii;
    class       volScalarField;
    location    "0.00014";
    object      H;
}
// * * * * * * * * * * * * * * * * * * * * * * * * * * * * * * * * * * * * * //

dimensions      [0 0 0 0 0 0 0];

internalField   nonuniform List<scalar> 
126
(
3.37133e-41
3.37158e-41
3.37177e-41
3.37194e-41
3.37211e-41
3.37231e-41
3.37254e-41
3.3728e-41
3.37309e-41
3.3734e-41
3.37372e-41
3.37403e-41
3.37432e-41
3.37461e-41
3.37487e-41
3.37511e-41
3.37535e-41
3.37556e-41
3.37577e-41
3.37597e-41
3.37615e-41
3.37633e-41
3.3765e-41
3.37666e-41
3.3768e-41
3.37694e-41
3.37707e-41
3.37718e-41
3.37728e-41
3.37737e-41
3.37744e-41
3.3775e-41
3.37754e-41
3.37757e-41
3.37757e-41
3.37756e-41
3.37753e-41
3.37748e-41
3.3774e-41
3.3773e-41
3.37718e-41
3.37704e-41
3.37686e-41
3.37666e-41
3.37643e-41
3.37618e-41
3.37589e-41
3.37556e-41
3.37521e-41
3.37482e-41
3.37439e-41
3.37393e-41
3.37343e-41
3.37289e-41
3.37231e-41
3.37169e-41
3.37103e-41
3.37032e-41
3.36956e-41
3.36876e-41
3.36791e-41
3.36701e-41
3.36606e-41
3.36506e-41
3.36401e-41
3.3629e-41
3.36174e-41
3.36052e-41
3.35925e-41
3.35792e-41
3.35653e-41
3.35508e-41
3.35357e-41
3.352e-41
3.35037e-41
3.34869e-41
3.34693e-41
3.34512e-41
3.34325e-41
3.34131e-41
3.33931e-41
3.33725e-41
3.33512e-41
3.33294e-41
3.33069e-41
3.32839e-41
3.32602e-41
3.32359e-41
3.32111e-41
3.31857e-41
3.31597e-41
3.31332e-41
3.31061e-41
3.30785e-41
3.30504e-41
3.30218e-41
3.29927e-41
3.29632e-41
3.29332e-41
3.29028e-41
3.2872e-41
3.28409e-41
3.28094e-41
3.27779e-41
3.27486e-41
3.27369e-41
3.2851e-41
3.38539e-41
4.10755e-41
9.14813e-41
4.39412e-40
2.82019e-39
1.89688e-38
1.27503e-37
8.4997e-37
5.61091e-36
3.66558e-35
2.36878e-34
1.5135e-33
9.55698e-33
5.96144e-32
3.67186e-31
2.23224e-30
1.33886e-29
7.91937e-29
4.61766e-28
)
;

boundaryField
{
    boundary
    {
        type            empty;
    }
    inlet
    {
        type            fixedValue;
        value           nonuniform 0();
    }
    outlet
    {
        type            zeroGradient;
    }
    procBoundary3to1
    {
        type            processor;
        value           uniform 2.69067e-27;
    }
    procBoundary3to2
    {
        type            processor;
        value           uniform 3.37126e-41;
    }
}


// ************************************************************************* //
