/*--------------------------------*- C++ -*----------------------------------*\
  =========                 |
  \\      /  F ield         | OpenFOAM: The Open Source CFD Toolbox
   \\    /   O peration     | Website:  https://openfoam.org
    \\  /    A nd           | Version:  7
     \\/     M anipulation  |
\*---------------------------------------------------------------------------*/
FoamFile
{
    version     2.0;
    format      ascii;
    class       volScalarField;
    location    "0.00014";
    object      O;
}
// * * * * * * * * * * * * * * * * * * * * * * * * * * * * * * * * * * * * * //

dimensions      [0 0 0 0 0 0 0];

internalField   nonuniform List<scalar> 
126
(
3.35736e-46
3.35512e-46
3.35241e-46
3.34962e-46
3.34727e-46
3.34586e-46
3.34568e-46
3.34679e-46
3.34895e-46
3.35179e-46
3.35489e-46
3.35789e-46
3.36055e-46
3.36277e-46
3.36452e-46
3.36585e-46
3.36683e-46
3.36755e-46
3.36809e-46
3.3685e-46
3.36881e-46
3.36907e-46
3.3693e-46
3.36949e-46
3.36967e-46
3.36983e-46
3.36997e-46
3.37011e-46
3.37022e-46
3.37033e-46
3.37041e-46
3.37048e-46
3.37054e-46
3.37057e-46
3.37059e-46
3.37058e-46
3.37055e-46
3.3705e-46
3.37043e-46
3.37033e-46
3.3702e-46
3.37005e-46
3.36986e-46
3.36965e-46
3.3694e-46
3.36912e-46
3.36881e-46
3.36846e-46
3.36807e-46
3.36764e-46
3.36717e-46
3.36666e-46
3.3661e-46
3.3655e-46
3.36485e-46
3.36416e-46
3.36341e-46
3.36261e-46
3.36176e-46
3.36086e-46
3.3599e-46
3.35888e-46
3.3578e-46
3.35666e-46
3.35547e-46
3.3542e-46
3.35288e-46
3.35149e-46
3.35003e-46
3.34851e-46
3.34691e-46
3.34525e-46
3.34352e-46
3.34171e-46
3.33983e-46
3.33788e-46
3.33586e-46
3.33376e-46
3.33159e-46
3.32935e-46
3.32703e-46
3.32464e-46
3.32217e-46
3.31963e-46
3.31701e-46
3.31432e-46
3.31156e-46
3.30873e-46
3.30583e-46
3.30286e-46
3.29982e-46
3.29671e-46
3.29354e-46
3.29031e-46
3.28706e-46
3.28422e-46
3.28536e-46
3.32188e-46
3.6653e-46
6.63778e-46
3.18675e-45
2.43247e-44
1.99205e-43
1.62745e-42
1.31377e-41
1.04638e-40
8.21886e-40
6.36418e-39
4.85698e-38
3.65242e-37
2.70582e-36
1.97443e-35
1.41885e-34
1.00394e-33
6.99316e-33
4.79433e-32
3.2341e-31
2.14586e-30
1.39992e-29
8.97557e-29
5.65283e-28
3.49532e-27
2.12072e-26
1.26185e-25
7.35876e-25
4.20355e-24
)
;

boundaryField
{
    boundary
    {
        type            empty;
    }
    inlet
    {
        type            fixedValue;
        value           nonuniform 0();
    }
    outlet
    {
        type            zeroGradient;
    }
    procBoundary3to1
    {
        type            processor;
        value           uniform 2.36013e-23;
    }
    procBoundary3to2
    {
        type            processor;
        value           uniform 3.36019e-46;
    }
}


// ************************************************************************* //
