/*--------------------------------*- C++ -*----------------------------------*\
  =========                 |
  \\      /  F ield         | OpenFOAM: The Open Source CFD Toolbox
   \\    /   O peration     | Website:  https://openfoam.org
    \\  /    A nd           | Version:  7
     \\/     M anipulation  |
\*---------------------------------------------------------------------------*/
FoamFile
{
    version     2.0;
    format      ascii;
    class       surfaceScalarField;
    location    "0.00014";
    object      phi;
}
// * * * * * * * * * * * * * * * * * * * * * * * * * * * * * * * * * * * * * //

dimensions      [1 0 -1 0 0 0 0];

internalField   nonuniform List<scalar> 
125
(
6.6553e-06
6.65381e-06
6.65231e-06
6.65082e-06
6.64934e-06
6.64786e-06
6.64638e-06
6.6449e-06
6.64343e-06
6.64196e-06
6.64049e-06
6.63903e-06
6.63756e-06
6.63611e-06
6.63465e-06
6.6332e-06
6.63175e-06
6.6303e-06
6.62886e-06
6.62741e-06
6.62597e-06
6.62454e-06
6.6231e-06
6.62167e-06
6.62024e-06
6.61881e-06
6.61738e-06
6.61595e-06
6.61452e-06
6.6131e-06
6.61168e-06
6.61025e-06
6.60883e-06
6.60741e-06
6.60599e-06
6.60458e-06
6.60316e-06
6.60174e-06
6.60032e-06
6.59891e-06
6.59749e-06
6.59608e-06
6.59466e-06
6.59324e-06
6.59183e-06
6.59041e-06
6.589e-06
6.58758e-06
6.58616e-06
6.58474e-06
6.58333e-06
6.58191e-06
6.58049e-06
6.57907e-06
6.57765e-06
6.57623e-06
6.57481e-06
6.57338e-06
6.57196e-06
6.57053e-06
6.56911e-06
6.56768e-06
6.56625e-06
6.56482e-06
6.56339e-06
6.56195e-06
6.56052e-06
6.55908e-06
6.55764e-06
6.5562e-06
6.55476e-06
6.55332e-06
6.55187e-06
6.55043e-06
6.54898e-06
6.54753e-06
6.54608e-06
6.54462e-06
6.54316e-06
6.5417e-06
6.54024e-06
6.53878e-06
6.53731e-06
6.53585e-06
6.53438e-06
6.5329e-06
6.53143e-06
6.52995e-06
6.52847e-06
6.52698e-06
6.5255e-06
6.52401e-06
6.52252e-06
6.52102e-06
6.51953e-06
6.51803e-06
6.51652e-06
6.51502e-06
6.51351e-06
6.512e-06
6.51048e-06
6.50896e-06
6.50744e-06
6.50591e-06
6.50438e-06
6.50285e-06
6.50132e-06
6.49978e-06
6.49823e-06
6.49669e-06
6.49514e-06
6.49358e-06
6.49203e-06
6.49047e-06
6.4889e-06
6.48733e-06
6.48576e-06
6.48418e-06
6.4826e-06
6.48102e-06
6.47943e-06
6.47784e-06
6.47625e-06
6.47465e-06
6.47305e-06
)
;

boundaryField
{
    boundary
    {
        type            empty;
        value           nonuniform 0();
    }
    inlet
    {
        type            calculated;
        value           nonuniform 0();
    }
    outlet
    {
        type            calculated;
        value           nonuniform 0();
    }
    procBoundary3to1
    {
        type            processor;
        value           uniform 6.47145e-06;
    }
    procBoundary3to2
    {
        type            processor;
        value           uniform -6.6568e-06;
    }
}


// ************************************************************************* //
