/*--------------------------------*- C++ -*----------------------------------*\
  =========                 |
  \\      /  F ield         | OpenFOAM: The Open Source CFD Toolbox
   \\    /   O peration     | Website:  https://openfoam.org
    \\  /    A nd           | Version:  7
     \\/     M anipulation  |
\*---------------------------------------------------------------------------*/
FoamFile
{
    version     2.0;
    format      ascii;
    class       volScalarField;
    location    "0.00014";
    object      T;
}
// * * * * * * * * * * * * * * * * * * * * * * * * * * * * * * * * * * * * * //

dimensions      [0 0 0 1 0 0 0];

internalField   nonuniform List<scalar> 
126
(
301.435
301.435
301.436
301.436
301.436
301.436
301.436
301.437
301.437
301.437
301.437
301.438
301.438
301.438
301.439
301.439
301.439
301.439
301.439
301.44
301.44
301.44
301.44
301.44
301.44
301.441
301.441
301.441
301.441
301.441
301.441
301.441
301.441
301.441
301.441
301.441
301.441
301.441
301.441
301.441
301.441
301.441
301.44
301.44
301.44
301.44
301.44
301.439
301.439
301.439
301.438
301.438
301.437
301.437
301.436
301.436
301.435
301.434
301.434
301.433
301.432
301.431
301.43
301.429
301.428
301.427
301.426
301.425
301.424
301.422
301.421
301.42
301.418
301.417
301.415
301.414
301.412
301.41
301.408
301.406
301.404
301.402
301.4
301.398
301.396
301.394
301.392
301.389
301.387
301.384
301.382
301.379
301.377
301.374
301.371
301.368
301.366
301.363
301.36
301.357
301.354
301.351
301.348
301.344
301.341
301.338
301.335
301.331
301.328
301.325
301.322
301.318
301.315
301.311
301.308
301.305
301.301
301.298
301.294
301.291
301.287
301.284
301.28
301.276
301.273
301.269
)
;

boundaryField
{
    boundary
    {
        type            empty;
    }
    inlet
    {
        type            fixedValue;
        value           nonuniform 0();
    }
    outlet
    {
        type            zeroGradient;
    }
    procBoundary3to1
    {
        type            processor;
        value           uniform 301.265;
    }
    procBoundary3to2
    {
        type            processor;
        value           uniform 301.435;
    }
}


// ************************************************************************* //
