/*--------------------------------*- C++ -*----------------------------------*\
  =========                 |
  \\      /  F ield         | OpenFOAM: The Open Source CFD Toolbox
   \\    /   O peration     | Website:  https://openfoam.org
    \\  /    A nd           | Version:  7
     \\/     M anipulation  |
\*---------------------------------------------------------------------------*/
FoamFile
{
    version     2.0;
    format      ascii;
    class       volVectorField;
    location    "0.0009";
    object      U;
}
// * * * * * * * * * * * * * * * * * * * * * * * * * * * * * * * * * * * * * //

dimensions      [0 1 -1 0 0 0 0];

internalField   nonuniform List<vector> 
126
(
(2.34523 0 0)
(2.3452 0 0)
(2.34517 0 0)
(2.34514 0 0)
(2.34511 0 0)
(2.34508 0 0)
(2.34505 0 0)
(2.34502 0 0)
(2.34499 0 0)
(2.34496 0 0)
(2.34493 0 0)
(2.3449 0 0)
(2.34487 0 0)
(2.34485 0 0)
(2.34482 0 0)
(2.34479 0 0)
(2.34477 0 0)
(2.34474 0 0)
(2.34471 0 0)
(2.34469 0 0)
(2.34466 0 0)
(2.34464 0 0)
(2.34461 0 0)
(2.34459 0 0)
(2.34456 0 0)
(2.34454 0 0)
(2.34451 0 0)
(2.34449 0 0)
(2.34446 0 0)
(2.34444 0 0)
(2.34442 0 0)
(2.34439 0 0)
(2.34437 0 0)
(2.34434 0 0)
(2.34432 0 0)
(2.3443 0 0)
(2.34427 0 0)
(2.34425 0 0)
(2.34423 0 0)
(2.3442 0 0)
(2.34418 0 0)
(2.34415 0 0)
(2.34413 0 0)
(2.3441 0 0)
(2.34408 0 0)
(2.34405 0 0)
(2.34403 0 0)
(2.344 0 0)
(2.34398 0 0)
(2.34395 0 0)
(2.34392 0 0)
(2.3439 0 0)
(2.34387 0 0)
(2.34384 0 0)
(2.34381 0 0)
(2.34379 0 0)
(2.34376 0 0)
(2.34373 0 0)
(2.3437 0 0)
(2.34367 0 0)
(2.34364 0 0)
(2.34361 0 0)
(2.34358 0 0)
(2.34355 0 0)
(2.34352 0 0)
(2.34349 0 0)
(2.34346 0 0)
(2.34343 0 0)
(2.3434 0 0)
(2.34336 0 0)
(2.34333 0 0)
(2.3433 0 0)
(2.34327 0 0)
(2.34324 0 0)
(2.3432 0 0)
(2.34317 0 0)
(2.34314 0 0)
(2.34311 0 0)
(2.34308 0 0)
(2.34304 0 0)
(2.34301 0 0)
(2.34298 0 0)
(2.34295 0 0)
(2.34292 0 0)
(2.34289 0 0)
(2.34285 0 0)
(2.34282 0 0)
(2.34279 0 0)
(2.34276 0 0)
(2.34273 0 0)
(2.3427 0 0)
(2.34267 0 0)
(2.34265 0 0)
(2.34262 0 0)
(2.34259 0 0)
(2.34256 0 0)
(2.34253 0 0)
(2.34251 0 0)
(2.34248 0 0)
(2.34245 0 0)
(2.34243 0 0)
(2.3424 0 0)
(2.34238 0 0)
(2.34235 0 0)
(2.34233 0 0)
(2.34231 0 0)
(2.34228 0 0)
(2.34226 0 0)
(2.34224 0 0)
(2.34222 0 0)
(2.34219 0 0)
(2.34217 0 0)
(2.34215 0 0)
(2.34213 0 0)
(2.34211 0 0)
(2.34209 0 0)
(2.34207 0 0)
(2.34205 0 0)
(2.34203 0 0)
(2.34201 0 0)
(2.34199 0 0)
(2.34198 0 0)
(2.34196 0 0)
(2.34194 0 0)
(2.34192 0 0)
(2.3419 0 0)
)
;

boundaryField
{
    boundary
    {
        type            empty;
    }
    inlet
    {
        type            fixedValue;
        value           nonuniform 0();
    }
    outlet
    {
        type            zeroGradient;
    }
    procBoundary3to1
    {
        type            processor;
        value           uniform (2.34188 0 0);
    }
    procBoundary3to2
    {
        type            processor;
        value           uniform (2.34526 0 0);
    }
}


// ************************************************************************* //
