/*--------------------------------*- C++ -*----------------------------------*\
  =========                 |
  \\      /  F ield         | OpenFOAM: The Open Source CFD Toolbox
   \\    /   O peration     | Website:  https://openfoam.org
    \\  /    A nd           | Version:  7
     \\/     M anipulation  |
\*---------------------------------------------------------------------------*/
FoamFile
{
    version     2.0;
    format      ascii;
    class       volScalarField;
    location    "0.00023";
    object      H2O;
}
// * * * * * * * * * * * * * * * * * * * * * * * * * * * * * * * * * * * * * //

dimensions      [0 0 0 0 0 0 0];

internalField   nonuniform List<scalar> 
126
(
6.06145e-46
6.05894e-46
6.0557e-46
6.05214e-46
6.04848e-46
6.04476e-46
6.04101e-46
6.03739e-46
6.03421e-46
6.03182e-46
6.03052e-46
6.03044e-46
6.03158e-46
6.03378e-46
6.03677e-46
6.04027e-46
6.04398e-46
6.04765e-46
6.05111e-46
6.05423e-46
6.05695e-46
6.05926e-46
6.06117e-46
6.06272e-46
6.06398e-46
6.065e-46
6.06582e-46
6.06649e-46
6.06705e-46
6.06753e-46
6.06794e-46
6.0683e-46
6.06862e-46
6.06891e-46
6.06916e-46
6.06938e-46
6.06957e-46
6.06972e-46
6.06985e-46
6.06994e-46
6.06999e-46
6.07001e-46
6.06999e-46
6.06992e-46
6.06981e-46
6.06965e-46
6.06945e-46
6.06919e-46
6.06888e-46
6.06851e-46
6.06808e-46
6.06759e-46
6.06704e-46
6.06642e-46
6.06573e-46
6.06497e-46
6.06413e-46
6.06322e-46
6.06223e-46
6.06115e-46
6.05999e-46
6.05874e-46
6.05739e-46
6.05596e-46
6.05442e-46
6.05279e-46
6.05106e-46
6.04922e-46
6.04727e-46
6.04522e-46
6.04305e-46
6.04076e-46
6.03836e-46
6.03584e-46
6.0332e-46
6.03044e-46
6.02755e-46
6.02454e-46
6.02139e-46
6.01812e-46
6.01472e-46
6.01118e-46
6.00751e-46
6.00371e-46
5.99977e-46
5.9957e-46
5.99149e-46
5.98715e-46
5.98267e-46
5.9781e-46
5.97363e-46
5.97069e-46
5.97914e-46
6.06704e-46
6.69942e-46
1.10312e-45
4.03134e-45
2.36735e-44
1.54598e-43
1.02247e-42
6.74894e-42
4.43975e-41
2.91305e-40
1.90855e-39
1.25013e-38
8.19625e-38
5.38435e-37
3.54682e-36
2.34374e-35
1.55361e-34
1.03262e-33
6.876e-33
4.58172e-32
3.05083e-31
2.02701e-30
1.34177e-29
8.83551e-29
5.77921e-28
3.7493e-27
2.40896e-26
1.53053e-25
9.60132e-25
5.93836e-24
3.61668e-23
2.16695e-22
1.27643e-21
)
;

boundaryField
{
    boundary
    {
        type            empty;
    }
    inlet
    {
        type            fixedValue;
        value           nonuniform 0();
    }
    outlet
    {
        type            zeroGradient;
    }
    procBoundary3to1
    {
        type            processor;
        value           uniform 7.31588e-21;
    }
    procBoundary3to2
    {
        type            processor;
        value           uniform 6.05628e-46;
    }
}


// ************************************************************************* //
