/*--------------------------------*- C++ -*----------------------------------*\
  =========                 |
  \\      /  F ield         | OpenFOAM: The Open Source CFD Toolbox
   \\    /   O peration     | Website:  https://openfoam.org
    \\  /    A nd           | Version:  7
     \\/     M anipulation  |
\*---------------------------------------------------------------------------*/
FoamFile
{
    version     2.0;
    format      ascii;
    class       volScalarField;
    location    "0.00023";
    object      HO2;
}
// * * * * * * * * * * * * * * * * * * * * * * * * * * * * * * * * * * * * * //

dimensions      [0 0 0 0 0 0 0];

internalField   nonuniform List<scalar> 
126
(
1.71239e-36
1.70954e-36
1.70682e-36
1.70478e-36
1.70357e-36
1.70305e-36
1.703e-36
1.70328e-36
1.70377e-36
1.70444e-36
1.70526e-36
1.70622e-36
1.7073e-36
1.70845e-36
1.70964e-36
1.71082e-36
1.71196e-36
1.71301e-36
1.71395e-36
1.71477e-36
1.71547e-36
1.71604e-36
1.71651e-36
1.71688e-36
1.71717e-36
1.71741e-36
1.7176e-36
1.71775e-36
1.71787e-36
1.71798e-36
1.71807e-36
1.71816e-36
1.71823e-36
1.71829e-36
1.71835e-36
1.7184e-36
1.71845e-36
1.71849e-36
1.71852e-36
1.71854e-36
1.71856e-36
1.71857e-36
1.71856e-36
1.71855e-36
1.71853e-36
1.71851e-36
1.71846e-36
1.71841e-36
1.71835e-36
1.71827e-36
1.71819e-36
1.71809e-36
1.71797e-36
1.71784e-36
1.7177e-36
1.71754e-36
1.71736e-36
1.71717e-36
1.71695e-36
1.71673e-36
1.71648e-36
1.71621e-36
1.71593e-36
1.71562e-36
1.71529e-36
1.71494e-36
1.71457e-36
1.71418e-36
1.71376e-36
1.71332e-36
1.71286e-36
1.71237e-36
1.71185e-36
1.71131e-36
1.71074e-36
1.71015e-36
1.70953e-36
1.70888e-36
1.7082e-36
1.70749e-36
1.70676e-36
1.706e-36
1.70521e-36
1.70439e-36
1.70354e-36
1.70266e-36
1.70175e-36
1.70081e-36
1.69984e-36
1.69884e-36
1.69782e-36
1.69676e-36
1.69568e-36
1.69457e-36
1.69342e-36
1.69226e-36
1.69106e-36
1.68984e-36
1.68859e-36
1.68732e-36
1.68605e-36
1.68488e-36
1.68444e-36
1.68846e-36
1.71883e-36
1.90343e-36
2.98541e-36
9.25989e-36
4.54232e-35
2.528e-34
1.43667e-33
8.16909e-33
4.63346e-32
2.62192e-31
1.48132e-30
8.3635e-30
4.72323e-29
2.6704e-28
1.51257e-27
8.58747e-27
4.8871e-26
2.78605e-25
1.58843e-24
9.033e-24
5.1068e-23
2.86149e-22
)
;

boundaryField
{
    boundary
    {
        type            empty;
    }
    inlet
    {
        type            fixedValue;
        value           nonuniform 0();
    }
    outlet
    {
        type            zeroGradient;
    }
    procBoundary3to1
    {
        type            processor;
        value           uniform 1.5772e-21;
    }
    procBoundary3to2
    {
        type            processor;
        value           uniform 1.71342e-36;
    }
}


// ************************************************************************* //
