/*--------------------------------*- C++ -*----------------------------------*\
  =========                 |
  \\      /  F ield         | OpenFOAM: The Open Source CFD Toolbox
   \\    /   O peration     | Website:  https://openfoam.org
    \\  /    A nd           | Version:  7
     \\/     M anipulation  |
\*---------------------------------------------------------------------------*/
FoamFile
{
    version     2.0;
    format      ascii;
    class       volScalarField;
    location    "0.00056";
    object      H2O;
}
// * * * * * * * * * * * * * * * * * * * * * * * * * * * * * * * * * * * * * //

dimensions      [0 0 0 0 0 0 0];

internalField   nonuniform List<scalar> 
500
(
7.88813e-48
2.28038e-47
4.10542e-47
6.15791e-47
8.36619e-47
1.0682e-46
1.30727e-46
1.55165e-46
1.79992e-46
2.05113e-46
2.30471e-46
2.56039e-46
2.81806e-46
3.0778e-46
3.33985e-46
3.60459e-46
3.87254e-46
4.14436e-46
4.42087e-46
4.70302e-46
4.99192e-46
5.28877e-46
5.59489e-46
5.91165e-46
6.2404e-46
6.58246e-46
6.939e-46
7.31095e-46
7.69895e-46
8.10324e-46
8.52357e-46
8.95916e-46
9.40865e-46
9.87007e-46
1.03409e-45
1.08179e-45
1.12977e-45
1.17762e-45
1.22493e-45
1.27128e-45
1.31625e-45
1.35946e-45
1.40055e-45
1.43921e-45
1.4752e-45
1.50836e-45
1.53856e-45
1.56578e-45
1.59004e-45
1.61143e-45
1.63007e-45
1.64615e-45
1.65986e-45
1.67142e-45
1.68108e-45
1.68904e-45
1.69555e-45
1.70082e-45
1.70502e-45
1.70836e-45
1.71097e-45
1.71299e-45
1.71455e-45
1.71573e-45
1.71663e-45
1.71729e-45
1.71778e-45
1.71815e-45
1.71841e-45
1.7186e-45
1.71874e-45
1.71884e-45
1.71891e-45
1.71896e-45
1.719e-45
1.71902e-45
1.71904e-45
1.71906e-45
1.71908e-45
1.71909e-45
1.7191e-45
1.71912e-45
1.71913e-45
1.71914e-45
1.71915e-45
1.71917e-45
1.71918e-45
1.7192e-45
1.71922e-45
1.71924e-45
1.71926e-45
1.71928e-45
1.7193e-45
1.71932e-45
1.71934e-45
1.71937e-45
1.7194e-45
1.71943e-45
1.71946e-45
1.71949e-45
1.71952e-45
1.71955e-45
1.71959e-45
1.71963e-45
1.71967e-45
1.71971e-45
1.71975e-45
1.7198e-45
1.71985e-45
1.7199e-45
1.71995e-45
1.72e-45
1.72005e-45
1.72011e-45
1.72017e-45
1.72023e-45
1.7203e-45
1.72036e-45
1.72043e-45
1.7205e-45
1.72056e-45
1.7206e-45
1.72054e-45
1.7201e-45
1.7183e-45
1.71492e-45
1.71501e-45
1.71513e-45
1.71527e-45
1.71544e-45
1.71566e-45
1.71592e-45
1.71625e-45
1.71664e-45
1.71709e-45
1.7176e-45
1.71817e-45
1.71877e-45
1.7194e-45
1.72002e-45
1.72062e-45
1.72119e-45
1.72169e-45
1.72213e-45
1.7225e-45
1.72279e-45
1.72301e-45
1.72317e-45
1.72327e-45
1.72332e-45
1.72333e-45
1.72332e-45
1.72329e-45
1.72325e-45
1.72322e-45
1.7232e-45
1.7232e-45
1.72323e-45
1.72328e-45
1.72336e-45
1.72347e-45
1.72362e-45
1.7238e-45
1.724e-45
1.72422e-45
1.72447e-45
1.72473e-45
1.725e-45
1.72527e-45
1.72554e-45
1.7258e-45
1.72606e-45
1.72631e-45
1.72655e-45
1.72677e-45
1.72697e-45
1.72716e-45
1.72734e-45
1.7275e-45
1.72764e-45
1.72777e-45
1.72789e-45
1.72799e-45
1.72808e-45
1.72816e-45
1.72822e-45
1.72828e-45
1.72832e-45
1.72835e-45
1.72836e-45
1.72837e-45
1.72836e-45
1.72833e-45
1.7283e-45
1.72825e-45
1.72818e-45
1.7281e-45
1.728e-45
1.72789e-45
1.72777e-45
1.72765e-45
1.72765e-45
1.72817e-45
1.731e-45
1.74369e-45
1.79792e-45
2.0258e-45
2.97412e-45
6.89132e-45
2.2965e-44
8.85216e-44
3.54438e-43
1.42801e-42
5.7461e-42
2.307e-41
9.24974e-41
3.70913e-40
1.49032e-39
6.01225e-39
2.44041e-38
9.98667e-38
4.12691e-37
1.72407e-36
7.28413e-36
3.11119e-35
1.34192e-34
5.83521e-34
2.55303e-33
1.12153e-32
4.93663e-32
2.17327e-31
9.55368e-31
4.18825e-30
1.82916e-29
7.95219e-29
3.43948e-28
1.47946e-27
6.32717e-27
2.69008e-26
1.137e-25
4.77773e-25
1.99622e-24
8.29475e-24
3.42855e-23
1.41011e-22
5.77253e-22
2.35287e-21
9.55215e-21
3.86395e-20
1.55791e-19
6.263e-19
2.52623e-18
1.01318e-17
4.04628e-17
1.6124e-16
6.41568e-16
2.54983e-15
1.01248e-14
4.01742e-14
1.59319e-13
6.31547e-13
2.50267e-12
9.91513e-12
3.92745e-11
1.55543e-10
6.15918e-10
2.43846e-09
9.65184e-09
3.8192e-08
1.51058e-07
5.97052e-07
2.35718e-06
9.28753e-06
3.64442e-05
0.000141661
0.000537726
0.00192271
0.00601091
0.0149984
0.0290219
0.046629
0.0679266
0.0928533
0.118758
0.14156
0.158728
0.173465
0.182023
0.187775
0.191703
0.194475
0.196521
0.198108
0.199399
0.200495
0.201459
0.202328
0.203126
0.20387
0.204569
0.20523
0.205858
0.206457
0.207031
0.20758
0.208108
0.208615
0.209104
0.209575
0.210029
0.210467
0.21089
0.211286
0.211664
0.212032
0.21239
0.21274
0.213081
0.213415
0.21374
0.214058
0.214369
0.214674
0.214971
0.215263
0.215548
0.215827
0.216101
0.216369
0.216632
0.21689
0.217143
0.217392
0.217635
0.217874
0.218109
0.21834
0.218566
0.218789
0.219008
0.219223
0.219434
0.219642
0.219846
0.220048
0.220245
0.22044
0.220632
0.220821
0.221007
0.22119
0.22137
0.221548
0.221723
0.221895
0.222066
0.222234
0.222399
0.222562
0.222724
0.222883
0.22304
0.223195
0.223348
0.223499
0.223649
0.223796
0.223942
0.224086
0.224229
0.22437
0.224509
0.224647
0.224784
0.224919
0.225052
0.225184
0.225315
0.225445
0.225573
0.2257
0.225826
0.22595
0.226074
0.226196
0.226317
0.226436
0.226555
0.226672
0.226789
0.226904
0.227018
0.227132
0.227244
0.227355
0.227466
0.227575
0.227684
0.227792
0.227899
0.228005
0.22811
0.228215
0.228318
0.228422
0.228524
0.228626
0.228728
0.228829
0.228929
0.229029
0.229129
0.229228
0.229327
0.229425
0.229524
0.229622
0.229721
0.229819
0.229917
0.230015
0.230114
0.230212
0.230311
0.23041
0.23051
0.230609
0.23071
0.230821
0.230948
0.23105
0.231154
0.23126
0.231367
0.231475
0.231584
0.231696
0.231808
0.231922
0.232038
0.232155
0.232274
0.232395
0.232518
0.232642
0.232769
0.232897
0.233026
0.233158
0.233291
0.233426
0.233563
0.233701
0.23384
0.233981
0.234124
0.234267
0.234411
0.234556
0.234702
0.234848
0.234994
0.235141
0.235288
0.235434
0.23558
0.235725
0.235869
0.236012
0.236154
0.236294
0.236433
0.23657
0.236705
0.236837
0.236968
0.237096
0.237221
0.237344
0.237464
0.237581
0.237695
0.237806
0.237914
0.238019
0.238121
0.23822
0.238315
0.238408
0.238497
0.238583
0.238666
0.238745
0.238821
0.238892
0.23896
0.239022
0.239078
0.239124
0.239154
)
;

boundaryField
{
    boundary
    {
        type            empty;
    }
    inlet
    {
        type            fixedValue;
        value           uniform 0;
    }
    outlet
    {
        type            zeroGradient;
    }
}


// ************************************************************************* //
