/*--------------------------------*- C++ -*----------------------------------*\
  =========                 |
  \\      /  F ield         | OpenFOAM: The Open Source CFD Toolbox
   \\    /   O peration     | Website:  https://openfoam.org
    \\  /    A nd           | Version:  7
     \\/     M anipulation  |
\*---------------------------------------------------------------------------*/
FoamFile
{
    version     2.0;
    format      ascii;
    class       volScalarField;
    location    "0.00056";
    object      H2O2;
}
// * * * * * * * * * * * * * * * * * * * * * * * * * * * * * * * * * * * * * //

dimensions      [0 0 0 0 0 0 0];

internalField   nonuniform List<scalar> 
500
(
1.99642e-52
6.41714e-52
1.27665e-51
2.10524e-51
3.12821e-51
4.34627e-51
5.76009e-51
7.37045e-51
9.17827e-51
1.11847e-50
1.33914e-50
1.58006e-50
1.84149e-50
2.12384e-50
2.42759e-50
2.75339e-50
3.10203e-50
3.47452e-50
3.87204e-50
4.29602e-50
4.74808e-50
5.23003e-50
5.74383e-50
6.29154e-50
6.87518e-50
7.49665e-50
8.15758e-50
8.85914e-50
9.6019e-50
1.03856e-49
1.12091e-49
1.20701e-49
1.2965e-49
1.38892e-49
1.48366e-49
1.58003e-49
1.67721e-49
1.77433e-49
1.87048e-49
1.96471e-49
2.05612e-49
2.14386e-49
2.22716e-49
2.30538e-49
2.37801e-49
2.44469e-49
2.50521e-49
2.5595e-49
2.60766e-49
2.64988e-49
2.68648e-49
2.71784e-49
2.74441e-49
2.76667e-49
2.78511e-49
2.80022e-49
2.81246e-49
2.82228e-49
2.83006e-49
2.83617e-49
2.84092e-49
2.84457e-49
2.84735e-49
2.84944e-49
2.851e-49
2.85216e-49
2.85301e-49
2.85362e-49
2.85407e-49
2.85438e-49
2.85461e-49
2.85477e-49
2.85489e-49
2.85497e-49
2.85503e-49
2.85508e-49
2.85511e-49
2.85514e-49
2.85517e-49
2.85519e-49
2.85521e-49
2.85523e-49
2.85526e-49
2.85528e-49
2.85531e-49
2.85533e-49
2.85536e-49
2.85539e-49
2.85542e-49
2.85545e-49
2.85549e-49
2.85553e-49
2.85557e-49
2.85561e-49
2.85565e-49
2.8557e-49
2.85575e-49
2.8558e-49
2.85585e-49
2.85591e-49
2.85597e-49
2.85603e-49
2.8561e-49
2.85617e-49
2.85624e-49
2.85632e-49
2.8564e-49
2.85648e-49
2.85656e-49
2.85665e-49
2.85675e-49
2.85684e-49
2.85694e-49
2.85705e-49
2.85716e-49
2.85727e-49
2.85738e-49
2.8575e-49
2.85763e-49
2.85775e-49
2.85786e-49
2.85791e-49
2.8577e-49
2.85649e-49
2.85128e-49
2.84085e-49
2.84101e-49
2.84119e-49
2.84141e-49
2.84169e-49
2.84204e-49
2.84248e-49
2.84303e-49
2.84371e-49
2.84453e-49
2.8455e-49
2.84662e-49
2.84786e-49
2.84921e-49
2.8506e-49
2.85199e-49
2.85332e-49
2.85454e-49
2.85559e-49
2.85644e-49
2.85708e-49
2.85749e-49
2.8577e-49
2.85773e-49
2.85761e-49
2.85739e-49
2.85712e-49
2.85684e-49
2.85659e-49
2.85641e-49
2.85632e-49
2.85634e-49
2.8565e-49
2.85678e-49
2.85719e-49
2.85772e-49
2.85836e-49
2.85908e-49
2.85988e-49
2.86073e-49
2.8616e-49
2.86249e-49
2.86338e-49
2.86424e-49
2.86508e-49
2.86587e-49
2.86661e-49
2.8673e-49
2.86793e-49
2.8685e-49
2.86902e-49
2.86949e-49
2.8699e-49
2.87027e-49
2.8706e-49
2.87088e-49
2.87113e-49
2.87135e-49
2.87154e-49
2.87169e-49
2.87183e-49
2.87193e-49
2.87202e-49
2.87208e-49
2.87211e-49
2.87212e-49
2.87211e-49
2.87207e-49
2.87201e-49
2.87192e-49
2.87181e-49
2.87166e-49
2.87149e-49
2.87128e-49
2.87104e-49
2.87077e-49
2.87046e-49
2.87013e-49
2.86977e-49
2.8695e-49
2.86996e-49
2.87511e-49
2.90898e-49
3.11627e-49
4.35958e-49
1.17343e-48
5.50575e-48
3.07167e-47
1.76043e-46
1.0058e-45
5.69817e-45
3.19786e-44
1.77744e-43
9.78381e-43
5.33314e-42
2.87879e-41
1.5388e-40
8.14522e-40
4.26952e-39
2.21629e-38
1.13938e-37
5.80137e-37
2.92586e-36
1.46177e-35
7.23537e-35
3.54859e-34
1.72476e-33
8.30908e-33
3.96832e-32
1.87922e-31
8.82592e-31
4.11205e-30
1.90101e-29
8.72295e-29
3.97401e-28
1.79815e-27
8.08376e-27
3.61208e-26
1.60485e-25
7.09296e-25
3.1198e-24
1.36623e-23
5.95944e-23
2.59034e-22
1.12241e-21
4.85016e-21
2.10365e-20
9.07162e-20
3.89659e-19
1.67055e-18
7.15312e-18
3.06006e-17
1.30815e-16
5.58931e-16
2.38721e-15
1.0193e-14
4.3514e-14
1.85735e-13
7.92698e-13
3.38278e-12
1.44339e-11
6.1578e-11
2.62647e-10
1.11991e-09
4.77299e-09
2.03262e-08
8.64326e-08
3.66279e-07
1.53736e-06
6.25979e-06
2.31435e-05
6.5218e-05
0.000109463
0.000123486
8.87418e-05
4.33716e-05
1.7555e-05
7.62259e-06
4.77362e-06
4.4709e-06
4.95422e-06
5.67234e-06
6.18632e-06
6.53217e-06
6.71887e-06
6.77869e-06
6.74584e-06
6.64916e-06
6.51048e-06
6.34559e-06
6.1656e-06
5.9782e-06
5.7886e-06
5.60036e-06
5.41579e-06
5.23642e-06
5.06316e-06
4.89655e-06
4.73683e-06
4.58406e-06
4.43819e-06
4.29904e-06
4.16642e-06
4.04008e-06
3.91976e-06
3.80525e-06
3.69634e-06
3.59597e-06
3.50158e-06
3.41101e-06
3.32408e-06
3.24059e-06
3.16039e-06
3.08331e-06
3.00921e-06
2.93793e-06
2.86935e-06
2.80333e-06
2.73975e-06
2.6785e-06
2.61946e-06
2.56253e-06
2.50761e-06
2.45461e-06
2.40344e-06
2.35401e-06
2.30625e-06
2.26008e-06
2.21543e-06
2.17224e-06
2.13043e-06
2.08995e-06
2.05075e-06
2.01276e-06
1.97593e-06
1.94023e-06
1.9056e-06
1.87199e-06
1.83938e-06
1.8077e-06
1.77694e-06
1.74705e-06
1.718e-06
1.68976e-06
1.66229e-06
1.63557e-06
1.60956e-06
1.58425e-06
1.5596e-06
1.53559e-06
1.5122e-06
1.48941e-06
1.46719e-06
1.44552e-06
1.42439e-06
1.40377e-06
1.38365e-06
1.36401e-06
1.34484e-06
1.32611e-06
1.30782e-06
1.28995e-06
1.27248e-06
1.25541e-06
1.23872e-06
1.2224e-06
1.20644e-06
1.19083e-06
1.17556e-06
1.16062e-06
1.146e-06
1.13168e-06
1.11763e-06
1.10387e-06
1.09039e-06
1.07717e-06
1.06422e-06
1.05153e-06
1.03909e-06
1.02689e-06
1.01493e-06
1.0032e-06
9.91687e-07
9.80398e-07
9.69321e-07
9.58452e-07
9.47784e-07
9.37313e-07
9.27033e-07
9.1694e-07
9.07029e-07
8.97294e-07
8.87733e-07
8.78339e-07
8.69109e-07
8.60039e-07
8.51125e-07
8.42362e-07
8.33747e-07
8.25276e-07
8.16946e-07
8.08753e-07
8.00693e-07
7.92764e-07
7.84962e-07
7.77283e-07
7.69725e-07
7.62285e-07
7.5496e-07
7.47746e-07
7.40642e-07
7.33644e-07
7.26749e-07
7.19955e-07
7.1326e-07
7.06661e-07
7.00155e-07
6.93739e-07
6.87412e-07
6.81169e-07
6.75009e-07
6.6893e-07
6.62884e-07
6.56585e-07
6.49213e-07
6.43525e-07
6.37786e-07
6.32065e-07
6.26381e-07
6.20739e-07
6.15137e-07
6.09572e-07
6.04042e-07
5.98541e-07
5.93067e-07
5.87616e-07
5.82184e-07
5.76767e-07
5.71361e-07
5.65963e-07
5.60569e-07
5.55176e-07
5.4978e-07
5.44377e-07
5.38964e-07
5.33538e-07
5.28094e-07
5.22631e-07
5.17145e-07
5.11634e-07
5.06094e-07
5.00523e-07
4.9492e-07
4.89283e-07
4.8361e-07
4.77901e-07
4.72155e-07
4.66373e-07
4.60555e-07
4.54703e-07
4.48817e-07
4.42901e-07
4.36957e-07
4.30989e-07
4.25002e-07
4.18999e-07
4.12986e-07
4.0697e-07
4.00956e-07
3.94951e-07
3.88963e-07
3.82999e-07
3.77068e-07
3.71177e-07
3.65335e-07
3.59551e-07
3.53832e-07
3.48189e-07
3.42628e-07
3.3716e-07
3.31791e-07
3.26532e-07
3.21389e-07
3.16372e-07
3.11489e-07
3.06749e-07
3.02163e-07
2.97742e-07
2.93503e-07
2.89465e-07
2.8566e-07
2.8214e-07
2.78994e-07
2.76393e-07
2.74691e-07
)
;

boundaryField
{
    boundary
    {
        type            empty;
    }
    inlet
    {
        type            fixedValue;
        value           uniform 0;
    }
    outlet
    {
        type            zeroGradient;
    }
}


// ************************************************************************* //
