/*--------------------------------*- C++ -*----------------------------------*\
  =========                 |
  \\      /  F ield         | OpenFOAM: The Open Source CFD Toolbox
   \\    /   O peration     | Website:  https://openfoam.org
    \\  /    A nd           | Version:  7
     \\/     M anipulation  |
\*---------------------------------------------------------------------------*/
FoamFile
{
    version     2.0;
    format      ascii;
    class       volScalarField;
    location    "0.00056";
    object      N2;
}
// * * * * * * * * * * * * * * * * * * * * * * * * * * * * * * * * * * * * * //

dimensions      [0 0 0 0 0 0 0];

internalField   nonuniform List<scalar> 
500
(
0.745219
0.745219
0.745219
0.745219
0.745219
0.745219
0.745219
0.745219
0.745219
0.745219
0.745219
0.745219
0.745219
0.745219
0.745219
0.745219
0.745219
0.745219
0.745219
0.745219
0.745219
0.745219
0.745219
0.745219
0.745219
0.745219
0.745219
0.745219
0.745219
0.745219
0.745219
0.745219
0.745219
0.745219
0.745219
0.745219
0.745219
0.745219
0.74522
0.74522
0.74522
0.74522
0.74522
0.74522
0.74522
0.74522
0.74522
0.74522
0.74522
0.74522
0.74522
0.74522
0.74522
0.74522
0.74522
0.74522
0.74522
0.74522
0.74522
0.74522
0.74522
0.74522
0.74522
0.74522
0.74522
0.74522
0.74522
0.74522
0.74522
0.74522
0.74522
0.74522
0.74522
0.74522
0.74522
0.74522
0.74522
0.74522
0.74522
0.74522
0.74522
0.74522
0.74522
0.74522
0.74522
0.74522
0.74522
0.74522
0.74522
0.74522
0.74522
0.74522
0.74522
0.74522
0.74522
0.74522
0.74522
0.74522
0.74522
0.74522
0.74522
0.74522
0.74522
0.74522
0.74522
0.74522
0.74522
0.74522
0.74522
0.74522
0.74522
0.74522
0.74522
0.74522
0.74522
0.74522
0.74522
0.74522
0.74522
0.74522
0.74522
0.74522
0.74522
0.74522
0.74522
0.74522
0.74522
0.74522
0.74522
0.74522
0.74522
0.74522
0.74522
0.74522
0.74522
0.74522
0.74522
0.74522
0.74522
0.74522
0.74522
0.74522
0.74522
0.74522
0.74522
0.74522
0.74522
0.74522
0.74522
0.74522
0.74522
0.74522
0.74522
0.74522
0.74522
0.74522
0.74522
0.74522
0.74522
0.74522
0.74522
0.74522
0.74522
0.74522
0.74522
0.74522
0.74522
0.74522
0.74522
0.74522
0.74522
0.74522
0.74522
0.74522
0.74522
0.74522
0.74522
0.74522
0.74522
0.74522
0.74522
0.74522
0.74522
0.74522
0.74522
0.74522
0.74522
0.74522
0.74522
0.74522
0.74522
0.74522
0.74522
0.74522
0.74522
0.74522
0.74522
0.74522
0.74522
0.74522
0.74522
0.74522
0.74522
0.74522
0.74522
0.74522
0.74522
0.74522
0.74522
0.74522
0.74522
0.74522
0.74522
0.74522
0.74522
0.74522
0.74522
0.74522
0.74522
0.74522
0.74522
0.74522
0.74522
0.74522
0.74522
0.74522
0.74522
0.74522
0.74522
0.74522
0.74522
0.74522
0.74522
0.74522
0.74522
0.74522
0.74522
0.74522
0.74522
0.74522
0.74522
0.74522
0.74522
0.74522
0.74522
0.74522
0.74522
0.74522
0.74522
0.74522
0.74522
0.74522
0.74522
0.74522
0.74522
0.74522
0.74522
0.74522
0.74522
0.74522
0.74522
0.74522
0.74522
0.74522
0.74522
0.74522
0.74522
0.745221
0.745222
0.745225
0.745231
0.745243
0.745268
0.745314
0.745398
0.745519
0.745621
0.745551
0.745263
0.744832
0.744279
0.743786
0.743614
0.743801
0.744129
0.744301
0.744845
0.745029
0.745157
0.745237
0.745286
0.745315
0.745331
0.745339
0.745342
0.745343
0.745342
0.74534
0.745337
0.745334
0.745331
0.745328
0.745325
0.745322
0.745319
0.745316
0.745313
0.745311
0.745308
0.745306
0.745304
0.745302
0.7453
0.745298
0.745296
0.745295
0.745293
0.745291
0.74529
0.745289
0.745287
0.745286
0.745285
0.745284
0.745283
0.745282
0.745281
0.74528
0.745279
0.745278
0.745277
0.745277
0.745276
0.745275
0.745274
0.745274
0.745273
0.745272
0.745271
0.74527
0.74527
0.745269
0.745268
0.745267
0.745266
0.745265
0.745264
0.745263
0.745262
0.745261
0.74526
0.745259
0.745258
0.745257
0.745256
0.745255
0.745254
0.745253
0.745252
0.745251
0.74525
0.745249
0.745248
0.745247
0.745247
0.745246
0.745245
0.745244
0.745244
0.745243
0.745242
0.745242
0.745241
0.745241
0.74524
0.74524
0.745239
0.745239
0.745239
0.745238
0.745238
0.745238
0.745237
0.745237
0.745237
0.745236
0.745236
0.745236
0.745235
0.745235
0.745234
0.745234
0.745233
0.745233
0.745232
0.745231
0.745231
0.74523
0.745229
0.745228
0.745227
0.745226
0.745225
0.745224
0.745223
0.745222
0.745221
0.745219
0.745218
0.745216
0.745215
0.745213
0.745211
0.745209
0.745207
0.745205
0.745203
0.745201
0.745199
0.745196
0.745194
0.745191
0.745189
0.745186
0.745183
0.745181
0.745178
0.745175
0.745172
0.745169
0.745166
0.745164
0.745161
0.745159
0.745156
0.745154
0.745152
0.74515
0.745149
0.745148
0.745147
0.745147
0.745147
0.745147
0.745148
0.745149
0.745151
0.745153
0.745156
0.74516
0.745164
0.745169
0.745175
0.745181
0.745188
0.745196
0.745204
0.745213
0.745223
0.745233
0.745244
0.745256
0.745268
0.745281
0.745295
0.745308
0.745322
0.745337
0.745351
0.745366
0.74538
0.745395
0.745409
0.745423
0.745436
0.745449
0.745462
0.745473
0.745484
0.745493
0.745502
0.745509
0.745515
0.74552
0.745523
0.745525
0.745525
0.745524
0.745521
0.745516
0.74551
0.745501
0.745492
0.74548
0.745467
0.745452
0.745436
0.74542
0.745405
0.745394
)
;

boundaryField
{
    boundary
    {
        type            empty;
    }
    inlet
    {
        type            fixedValue;
        value           uniform 0.74522;
    }
    outlet
    {
        type            zeroGradient;
    }
}


// ************************************************************************* //
