/*--------------------------------*- C++ -*----------------------------------*\
  =========                 |
  \\      /  F ield         | OpenFOAM: The Open Source CFD Toolbox
   \\    /   O peration     | Website:  https://openfoam.org
    \\  /    A nd           | Version:  7
     \\/     M anipulation  |
\*---------------------------------------------------------------------------*/
FoamFile
{
    version     2.0;
    format      ascii;
    class       volScalarField;
    location    "0.00056";
    object      OH;
}
// * * * * * * * * * * * * * * * * * * * * * * * * * * * * * * * * * * * * * //

dimensions      [0 0 0 0 0 0 0];

internalField   nonuniform List<scalar> 
500
(
9.37154e-48
1.82573e-47
2.43378e-47
2.84677e-47
3.12759e-47
3.31957e-47
3.45193e-47
3.54429e-47
3.60982e-47
3.65739e-47
3.69299e-47
3.7207e-47
3.7433e-47
3.76276e-47
3.78048e-47
3.79749e-47
3.81464e-47
3.83259e-47
3.85197e-47
3.87336e-47
3.89732e-47
3.92444e-47
3.9553e-47
3.99047e-47
4.03056e-47
4.07611e-47
4.12767e-47
4.18572e-47
4.25066e-47
4.3228e-47
4.40233e-47
4.48927e-47
4.58351e-47
4.68474e-47
4.79245e-47
4.90596e-47
5.02438e-47
5.14666e-47
5.27159e-47
5.39786e-47
5.52408e-47
5.64884e-47
5.77077e-47
5.88855e-47
6.00101e-47
6.10715e-47
6.20615e-47
6.29741e-47
6.38056e-47
6.45544e-47
6.5221e-47
6.58077e-47
6.63183e-47
6.67576e-47
6.71316e-47
6.74466e-47
6.77089e-47
6.79252e-47
6.81017e-47
6.82442e-47
6.83582e-47
6.84485e-47
6.85193e-47
6.85743e-47
6.86166e-47
6.86489e-47
6.86734e-47
6.86917e-47
6.87053e-47
6.87154e-47
6.87228e-47
6.87282e-47
6.87322e-47
6.8735e-47
6.87372e-47
6.87387e-47
6.87399e-47
6.87409e-47
6.87416e-47
6.87423e-47
6.87429e-47
6.87434e-47
6.8744e-47
6.87445e-47
6.87451e-47
6.87457e-47
6.87463e-47
6.8747e-47
6.87477e-47
6.87484e-47
6.87492e-47
6.875e-47
6.87509e-47
6.87518e-47
6.87527e-47
6.87537e-47
6.87548e-47
6.87559e-47
6.87571e-47
6.87584e-47
6.87597e-47
6.8761e-47
6.87624e-47
6.87639e-47
6.87655e-47
6.87671e-47
6.87688e-47
6.87706e-47
6.87724e-47
6.87744e-47
6.87764e-47
6.87784e-47
6.87806e-47
6.87828e-47
6.87852e-47
6.87876e-47
6.879e-47
6.87926e-47
6.87953e-47
6.8798e-47
6.88007e-47
6.88035e-47
6.88061e-47
6.88084e-47
6.88106e-47
6.88123e-47
6.88119e-47
6.8812e-47
6.88131e-47
6.88153e-47
6.88187e-47
6.88231e-47
6.88283e-47
6.88341e-47
6.88402e-47
6.88464e-47
6.88525e-47
6.88584e-47
6.88641e-47
6.88696e-47
6.88749e-47
6.88799e-47
6.88849e-47
6.88898e-47
6.88946e-47
6.88993e-47
6.89041e-47
6.89089e-47
6.89137e-47
6.89186e-47
6.89234e-47
6.89284e-47
6.89333e-47
6.89384e-47
6.89435e-47
6.89487e-47
6.89539e-47
6.89593e-47
6.89647e-47
6.89703e-47
6.89759e-47
6.89817e-47
6.89875e-47
6.89934e-47
6.89993e-47
6.90053e-47
6.90113e-47
6.90173e-47
6.90232e-47
6.90291e-47
6.90349e-47
6.90406e-47
6.90461e-47
6.90515e-47
6.90567e-47
6.90617e-47
6.90665e-47
6.90711e-47
6.90754e-47
6.90794e-47
6.90832e-47
6.90866e-47
6.90898e-47
6.90926e-47
6.9095e-47
6.90972e-47
6.90989e-47
6.91002e-47
6.91011e-47
6.91016e-47
6.91016e-47
6.91012e-47
6.91002e-47
6.90987e-47
6.90967e-47
6.90941e-47
6.9091e-47
6.90874e-47
6.90841e-47
6.90841e-47
6.91007e-47
6.919e-47
6.95906e-47
7.13029e-47
7.84939e-47
1.08379e-46
2.31513e-46
7.34754e-46
2.77499e-45
1.09803e-44
4.37151e-44
1.73259e-43
6.81774e-43
2.66177e-42
1.03088e-41
3.96033e-41
1.50915e-40
5.70443e-40
2.13881e-39
7.95463e-39
2.9347e-38
1.07403e-37
3.89937e-37
1.40448e-36
5.01886e-36
1.77946e-35
6.26033e-35
2.18558e-34
7.57248e-34
2.60411e-33
8.8896e-33
3.01281e-32
1.01391e-31
3.38887e-31
1.12522e-30
3.71249e-30
1.21753e-29
3.97052e-29
1.28813e-28
4.15961e-28
1.33783e-27
4.28895e-27
1.37193e-26
4.38425e-26
1.40207e-25
4.49692e-25
1.45077e-24
4.72576e-24
1.56171e-23
5.26526e-23
1.82206e-22
6.54132e-22
2.42736e-21
9.33507e-21
3.72167e-20
1.53296e-19
6.49008e-19
2.80818e-18
1.23527e-17
5.49968e-17
2.46966e-16
1.11565e-15
5.06032e-15
2.30139e-14
1.04841e-13
4.78071e-13
2.18097e-12
9.95024e-12
4.5385e-11
2.07181e-10
9.57787e-10
4.46389e-09
2.09346e-08
9.95591e-08
4.97137e-07
2.8163e-06
1.87914e-05
0.000119821
0.000439408
0.000745303
0.000900504
0.00117196
0.0018137
0.00288808
0.00422905
0.00559643
0.00698454
0.00801801
0.008836
0.00947521
0.00997322
0.0103631
0.0106709
0.010916
0.0111129
0.0112721
0.0114013
0.0115063
0.0115916
0.0116606
0.0117158
0.0117595
0.0117934
0.0118189
0.0118371
0.0118491
0.0118555
0.0118572
0.0118547
0.0118485
0.0118391
0.0118268
0.0118125
0.0117966
0.011779
0.0117597
0.011739
0.0117169
0.0116937
0.0116694
0.0116441
0.0116179
0.0115909
0.0115633
0.011535
0.0115061
0.0114767
0.0114469
0.0114167
0.0113861
0.0113553
0.0113242
0.0112928
0.0112613
0.0112296
0.0111977
0.0111658
0.0111338
0.0111018
0.0110697
0.0110375
0.0110054
0.0109733
0.0109413
0.0109093
0.0108773
0.0108454
0.0108136
0.0107818
0.0107502
0.0107186
0.0106871
0.0106558
0.0106245
0.0105934
0.0105624
0.0105315
0.0105007
0.01047
0.0104394
0.010409
0.0103787
0.0103485
0.0103184
0.0102884
0.0102586
0.0102289
0.0101993
0.0101698
0.0101405
0.0101113
0.0100822
0.0100532
0.0100244
0.00999568
0.00996713
0.00993867
0.00991026
0.00988198
0.00985383
0.00982582
0.00979795
0.00977021
0.00974261
0.00971516
0.00968784
0.00966067
0.00963364
0.00960675
0.00958001
0.00955342
0.00952697
0.00950066
0.0094745
0.00944848
0.00942261
0.00939688
0.00937129
0.00934584
0.00932052
0.00929535
0.0092703
0.00924539
0.0092206
0.00919594
0.0091714
0.00914697
0.00912266
0.00909845
0.00907434
0.00905033
0.00902641
0.00900257
0.0089788
0.0089551
0.00893146
0.00890786
0.0088843
0.00886076
0.00883724
0.00881372
0.00879019
0.00876662
0.00874301
0.00871934
0.00869559
0.00867181
0.00864792
0.00862239
0.00859322
0.00856905
0.00854432
0.00851922
0.00849379
0.00846804
0.00844194
0.00841547
0.00838862
0.00836134
0.00833362
0.00830544
0.00827676
0.00824758
0.00821786
0.00818761
0.00815678
0.00812539
0.00809342
0.00806085
0.0080277
0.00799396
0.00795964
0.00792474
0.00788928
0.00785329
0.00781677
0.00777977
0.00774232
0.00770444
0.00766619
0.00762762
0.00758877
0.0075497
0.00751048
0.00747116
0.00743182
0.00739253
0.00735337
0.0073144
0.0072757
0.00723736
0.00719945
0.00716205
0.00712524
0.00708908
0.00705366
0.00701903
0.00698528
0.00695244
0.00692059
0.00688977
0.00686003
0.0068314
0.00680392
0.00677762
0.00675251
0.00672863
0.00670599
0.00668461
0.0066645
0.00664569
0.00662822
0.00661215
0.00659756
0.00658455
0.00657328
0.00656396
0.00655678
0.00655191
0.00654938
)
;

boundaryField
{
    boundary
    {
        type            empty;
    }
    inlet
    {
        type            fixedValue;
        value           uniform 0;
    }
    outlet
    {
        type            zeroGradient;
    }
}


// ************************************************************************* //
