/*--------------------------------*- C++ -*----------------------------------*\
  =========                 |
  \\      /  F ield         | OpenFOAM: The Open Source CFD Toolbox
   \\    /   O peration     | Website:  https://openfoam.org
    \\  /    A nd           | Version:  7
     \\/     M anipulation  |
\*---------------------------------------------------------------------------*/
FoamFile
{
    version     2.0;
    format      ascii;
    class       surfaceScalarField;
    location    "0.00056";
    object      phi;
}
// * * * * * * * * * * * * * * * * * * * * * * * * * * * * * * * * * * * * * //

dimensions      [1 0 -1 0 0 0 0];

internalField   nonuniform List<scalar> 
499
(
6.93573e-06
6.93631e-06
6.93685e-06
6.93733e-06
6.93778e-06
6.93821e-06
6.93862e-06
6.93901e-06
6.93939e-06
6.93977e-06
6.94015e-06
6.94052e-06
6.94088e-06
6.94124e-06
6.94158e-06
6.94192e-06
6.94224e-06
6.94253e-06
6.94281e-06
6.94304e-06
6.94325e-06
6.9434e-06
6.9435e-06
6.94355e-06
6.94352e-06
6.94342e-06
6.94324e-06
6.94298e-06
6.94263e-06
6.94218e-06
6.94165e-06
6.94103e-06
6.94032e-06
6.93954e-06
6.93869e-06
6.93779e-06
6.93685e-06
6.93588e-06
6.9349e-06
6.93393e-06
6.93297e-06
6.93206e-06
6.93119e-06
6.93038e-06
6.92965e-06
6.929e-06
6.92843e-06
6.92795e-06
6.92757e-06
6.92727e-06
6.92707e-06
6.92695e-06
6.9269e-06
6.92693e-06
6.92703e-06
6.92719e-06
6.9274e-06
6.92766e-06
6.92796e-06
6.92829e-06
6.92865e-06
6.92903e-06
6.92944e-06
6.92986e-06
6.93029e-06
6.93073e-06
6.93118e-06
6.93164e-06
6.9321e-06
6.93257e-06
6.93303e-06
6.9335e-06
6.93398e-06
6.93445e-06
6.93492e-06
6.9354e-06
6.93587e-06
6.93634e-06
6.93682e-06
6.93729e-06
6.93777e-06
6.93824e-06
6.93872e-06
6.93919e-06
6.93966e-06
6.94014e-06
6.94061e-06
6.94109e-06
6.94156e-06
6.94203e-06
6.94251e-06
6.94298e-06
6.94345e-06
6.94392e-06
6.9444e-06
6.94487e-06
6.94534e-06
6.94581e-06
6.94628e-06
6.94675e-06
6.94723e-06
6.9477e-06
6.94817e-06
6.94864e-06
6.94911e-06
6.94958e-06
6.95005e-06
6.95052e-06
6.95099e-06
6.95146e-06
6.95193e-06
6.95239e-06
6.95286e-06
6.95333e-06
6.9538e-06
6.95427e-06
6.95474e-06
6.9552e-06
6.95567e-06
6.95614e-06
6.9566e-06
6.95707e-06
6.95754e-06
6.958e-06
6.95847e-06
6.95895e-06
6.95942e-06
6.95989e-06
6.96036e-06
6.96082e-06
6.96129e-06
6.96175e-06
6.96222e-06
6.96268e-06
6.96314e-06
6.9636e-06
6.96407e-06
6.96453e-06
6.96499e-06
6.96545e-06
6.96591e-06
6.96637e-06
6.96683e-06
6.96729e-06
6.96775e-06
6.96821e-06
6.96867e-06
6.96913e-06
6.96959e-06
6.97005e-06
6.97051e-06
6.97097e-06
6.97143e-06
6.97189e-06
6.97234e-06
6.9728e-06
6.97326e-06
6.97372e-06
6.97417e-06
6.97463e-06
6.97509e-06
6.97554e-06
6.976e-06
6.97645e-06
6.97691e-06
6.97736e-06
6.97782e-06
6.97827e-06
6.97873e-06
6.97918e-06
6.97963e-06
6.98009e-06
6.98054e-06
6.98099e-06
6.98145e-06
6.9819e-06
6.98235e-06
6.98281e-06
6.98326e-06
6.98371e-06
6.98417e-06
6.98462e-06
6.98507e-06
6.98553e-06
6.98598e-06
6.98643e-06
6.98689e-06
6.98734e-06
6.98779e-06
6.98825e-06
6.9887e-06
6.98915e-06
6.98961e-06
6.99006e-06
6.99052e-06
6.99097e-06
6.99143e-06
6.99188e-06
6.99234e-06
6.99279e-06
6.99325e-06
6.99371e-06
6.99416e-06
6.99462e-06
6.99508e-06
6.99554e-06
6.99599e-06
6.99645e-06
6.99691e-06
6.99737e-06
6.99784e-06
6.9983e-06
6.99876e-06
6.99922e-06
6.99969e-06
7.00015e-06
7.00062e-06
7.00108e-06
7.00155e-06
7.00202e-06
7.00248e-06
7.00295e-06
7.00342e-06
7.00389e-06
7.00437e-06
7.00484e-06
7.00531e-06
7.00579e-06
7.00626e-06
7.00674e-06
7.00722e-06
7.0077e-06
7.00818e-06
7.00866e-06
7.00914e-06
7.00962e-06
7.0101e-06
7.01059e-06
7.01107e-06
7.01156e-06
7.01205e-06
7.01254e-06
7.01303e-06
7.01352e-06
7.01401e-06
7.0145e-06
7.01499e-06
7.01549e-06
7.01598e-06
7.01648e-06
7.01698e-06
7.01749e-06
7.01799e-06
7.01849e-06
7.019e-06
7.0195e-06
7.02e-06
7.0205e-06
7.021e-06
7.0215e-06
7.022e-06
7.0225e-06
7.02301e-06
7.02351e-06
7.02401e-06
7.02451e-06
7.02502e-06
7.02552e-06
7.02604e-06
7.02656e-06
7.02715e-06
7.02791e-06
7.02916e-06
7.03185e-06
7.03841e-06
7.05439e-06
7.08674e-06
7.13073e-06
7.16894e-06
7.19444e-06
7.21084e-06
7.22202e-06
7.22995e-06
7.23561e-06
7.23964e-06
7.24254e-06
7.24468e-06
7.24632e-06
7.24762e-06
7.24869e-06
7.24959e-06
7.25036e-06
7.25102e-06
7.25161e-06
7.25214e-06
7.25261e-06
7.25304e-06
7.25344e-06
7.2538e-06
7.25413e-06
7.25445e-06
7.25474e-06
7.25501e-06
7.25527e-06
7.25552e-06
7.25575e-06
7.25597e-06
7.25619e-06
7.25639e-06
7.25659e-06
7.25678e-06
7.25696e-06
7.25713e-06
7.25729e-06
7.25746e-06
7.25761e-06
7.25777e-06
7.25792e-06
7.25807e-06
7.25822e-06
7.25837e-06
7.25851e-06
7.25866e-06
7.2588e-06
7.25894e-06
7.25908e-06
7.25921e-06
7.25935e-06
7.25948e-06
7.25962e-06
7.25975e-06
7.25988e-06
7.26001e-06
7.26013e-06
7.26026e-06
7.26038e-06
7.2605e-06
7.26062e-06
7.26074e-06
7.26085e-06
7.26097e-06
7.26108e-06
7.26119e-06
7.26129e-06
7.2614e-06
7.2615e-06
7.2616e-06
7.2617e-06
7.26179e-06
7.26189e-06
7.26198e-06
7.26207e-06
7.26216e-06
7.26225e-06
7.26234e-06
7.26242e-06
7.26251e-06
7.26259e-06
7.26268e-06
7.26276e-06
7.26285e-06
7.26293e-06
7.26301e-06
7.2631e-06
7.26318e-06
7.26327e-06
7.26336e-06
7.26344e-06
7.26353e-06
7.26362e-06
7.2637e-06
7.26379e-06
7.26388e-06
7.26397e-06
7.26406e-06
7.26415e-06
7.26424e-06
7.26434e-06
7.26443e-06
7.26452e-06
7.26461e-06
7.2647e-06
7.26479e-06
7.26488e-06
7.26497e-06
7.26505e-06
7.26513e-06
7.26522e-06
7.2653e-06
7.26538e-06
7.26545e-06
7.26553e-06
7.2656e-06
7.26567e-06
7.26574e-06
7.26581e-06
7.26588e-06
7.26594e-06
7.266e-06
7.26606e-06
7.26611e-06
7.26617e-06
7.26622e-06
7.26626e-06
7.26631e-06
7.26635e-06
7.26639e-06
7.26643e-06
7.26646e-06
7.2665e-06
7.26653e-06
7.26656e-06
7.26659e-06
7.26662e-06
7.26665e-06
7.26667e-06
7.26671e-06
7.26674e-06
7.26677e-06
7.26681e-06
7.26686e-06
7.26691e-06
7.26697e-06
7.26704e-06
7.26712e-06
7.26723e-06
7.26722e-06
7.26767e-06
7.26628e-06
7.26657e-06
7.26675e-06
7.26691e-06
7.26707e-06
7.26724e-06
7.26742e-06
7.26763e-06
7.26785e-06
7.26809e-06
7.26835e-06
7.26863e-06
7.26893e-06
7.26926e-06
7.2696e-06
7.26996e-06
7.27034e-06
7.27074e-06
7.27115e-06
7.27157e-06
7.27201e-06
7.27244e-06
7.27288e-06
7.27332e-06
7.27375e-06
7.27416e-06
7.27455e-06
7.2749e-06
7.27522e-06
7.27549e-06
7.2757e-06
7.27584e-06
7.2759e-06
7.27586e-06
7.27572e-06
7.27546e-06
7.27507e-06
7.27454e-06
7.27385e-06
7.27298e-06
7.27193e-06
7.27069e-06
7.26924e-06
7.26756e-06
7.26566e-06
7.26352e-06
7.26114e-06
7.2585e-06
7.2556e-06
7.25245e-06
7.24903e-06
7.24535e-06
7.24142e-06
7.23723e-06
7.2328e-06
7.22813e-06
7.22325e-06
7.21815e-06
7.21286e-06
7.20739e-06
7.20177e-06
7.19601e-06
7.19014e-06
7.18419e-06
7.17817e-06
7.17211e-06
7.16603e-06
7.15996e-06
7.15392e-06
7.14792e-06
7.14196e-06
)
;

boundaryField
{
    boundary
    {
        type            empty;
        value           nonuniform 0();
    }
    inlet
    {
        type            calculated;
        value           uniform -6.9351e-06;
    }
    outlet
    {
        type            calculated;
        value           uniform 7.13603e-06;
    }
}


// ************************************************************************* //
