/*--------------------------------*- C++ -*----------------------------------*\
  =========                 |
  \\      /  F ield         | OpenFOAM: The Open Source CFD Toolbox
   \\    /   O peration     | Website:  https://openfoam.org
    \\  /    A nd           | Version:  7
     \\/     M anipulation  |
\*---------------------------------------------------------------------------*/
FoamFile
{
    version     2.0;
    format      ascii;
    class       volScalarField;
    location    "0.00056";
    object      rho;
}
// * * * * * * * * * * * * * * * * * * * * * * * * * * * * * * * * * * * * * //

dimensions      [1 -3 0 0 0 0 0];

internalField   nonuniform List<scalar> 
500
(
0.865304
0.865313
0.865316
0.865314
0.865309
0.865301
0.86529
0.865279
0.865266
0.865253
0.865239
0.865224
0.865209
0.865192
0.865174
0.865155
0.865132
0.865107
0.865078
0.865045
0.865006
0.864961
0.864909
0.864849
0.86478
0.864702
0.864613
0.864514
0.864403
0.864282
0.864149
0.864006
0.863853
0.863692
0.863523
0.863348
0.86317
0.86299
0.862809
0.86263
0.862455
0.862285
0.862123
0.861969
0.861824
0.86169
0.861567
0.861454
0.861354
0.861264
0.861185
0.861116
0.861056
0.861005
0.860962
0.860926
0.860896
0.860871
0.860851
0.860835
0.860822
0.860812
0.860804
0.860798
0.860793
0.860789
0.860786
0.860784
0.860783
0.860781
0.86078
0.86078
0.860779
0.860779
0.860779
0.860778
0.860778
0.860778
0.860778
0.860778
0.860778
0.860778
0.860777
0.860777
0.860777
0.860777
0.860777
0.860777
0.860777
0.860777
0.860776
0.860776
0.860776
0.860776
0.860776
0.860776
0.860775
0.860775
0.860775
0.860775
0.860775
0.860774
0.860774
0.860774
0.860774
0.860773
0.860773
0.860773
0.860773
0.860772
0.860772
0.860772
0.860771
0.860771
0.860771
0.86077
0.86077
0.86077
0.860769
0.860769
0.860769
0.860768
0.860768
0.860767
0.860766
0.860765
0.860765
0.860765
0.860765
0.860765
0.860765
0.860764
0.860764
0.860763
0.860762
0.860762
0.860761
0.86076
0.86076
0.860759
0.860758
0.860758
0.860757
0.860757
0.860756
0.860755
0.860755
0.860754
0.860753
0.860753
0.860752
0.860752
0.860751
0.86075
0.86075
0.860749
0.860748
0.860747
0.860747
0.860746
0.860745
0.860745
0.860744
0.860743
0.860742
0.860742
0.860741
0.86074
0.860739
0.860738
0.860738
0.860737
0.860736
0.860736
0.860735
0.860734
0.860734
0.860733
0.860732
0.860732
0.860731
0.860731
0.86073
0.86073
0.86073
0.860729
0.860729
0.860729
0.860728
0.860728
0.860728
0.860728
0.860728
0.860728
0.860728
0.860728
0.860729
0.860729
0.860729
0.86073
0.86073
0.860731
0.860732
0.860732
0.860733
0.860734
0.860735
0.860736
0.860738
0.860739
0.860741
0.860742
0.860744
0.860746
0.860748
0.86075
0.860752
0.860754
0.860757
0.860759
0.860762
0.860765
0.860768
0.860771
0.860775
0.860778
0.860782
0.860786
0.86079
0.860794
0.860798
0.860802
0.860807
0.860812
0.860817
0.860822
0.860827
0.860832
0.860838
0.860844
0.86085
0.860856
0.860862
0.860868
0.860875
0.860881
0.860888
0.860895
0.860902
0.860909
0.860917
0.860924
0.860932
0.86094
0.860949
0.860957
0.860965
0.860973
0.860981
0.860989
0.860998
0.861006
0.861015
0.861023
0.861033
0.861042
0.861052
0.86106
0.861062
0.861038
0.860929
0.860549
0.859347
0.855699
0.845019
0.815568
0.745543
0.624661
0.491114
0.389106
0.322298
0.277862
0.246684
0.224449
0.208929
0.197418
0.188454
0.181983
0.177178
0.173295
0.170093
0.167395
0.165081
0.163068
0.161294
0.159717
0.158301
0.157021
0.155857
0.154792
0.153814
0.15291
0.152072
0.151293
0.150566
0.149886
0.149248
0.148648
0.148082
0.147548
0.147043
0.146566
0.146126
0.145715
0.14532
0.14494
0.144576
0.144225
0.143888
0.143562
0.143248
0.142945
0.142653
0.14237
0.142096
0.141831
0.141574
0.141324
0.141083
0.140848
0.14062
0.140399
0.140183
0.139973
0.139769
0.139571
0.139377
0.139188
0.139004
0.138825
0.138649
0.138478
0.138311
0.138147
0.137988
0.137831
0.137679
0.137529
0.137383
0.137239
0.137099
0.136961
0.136826
0.136694
0.136565
0.136438
0.136313
0.136191
0.136071
0.135953
0.135837
0.135723
0.135612
0.135502
0.135394
0.135289
0.135185
0.135082
0.134982
0.134883
0.134785
0.13469
0.134595
0.134503
0.134412
0.134322
0.134233
0.134146
0.134061
0.133976
0.133893
0.133811
0.13373
0.13365
0.133571
0.133493
0.133417
0.133341
0.133267
0.133193
0.133121
0.133049
0.132978
0.132908
0.132839
0.132771
0.132703
0.132637
0.132571
0.132506
0.132442
0.132378
0.132315
0.132253
0.132191
0.132131
0.13207
0.132011
0.131952
0.131894
0.131836
0.131779
0.131723
0.131667
0.131612
0.131557
0.131503
0.13145
0.131397
0.131345
0.131293
0.131243
0.131193
0.131143
0.131095
0.131046
0.131
0.130949
0.130901
0.130842
0.130798
0.130754
0.13071
0.130667
0.130626
0.130584
0.130544
0.130504
0.130465
0.130427
0.13039
0.130353
0.130317
0.130282
0.130248
0.130214
0.130181
0.130148
0.130116
0.130084
0.130053
0.130021
0.12999
0.129959
0.129928
0.129896
0.129864
0.129832
0.129798
0.129764
0.129728
0.129691
0.129652
0.129612
0.129569
0.129524
0.129477
0.129427
0.129374
0.129318
0.129258
0.129195
0.129128
0.129058
0.128983
0.128905
0.128823
0.128736
0.128646
0.128551
0.128453
0.128351
0.128246
0.128137
0.128024
0.127909
0.127792
0.127672
0.12755
0.127426
0.127301
0.127175
0.127049
0.126923
0.126797
0.126673
0.126551
0.126437
0.126337
0.126269
)
;

boundaryField
{
    boundary
    {
        type            empty;
    }
    inlet
    {
        type            calculated;
        value           uniform 0.865293;
    }
    outlet
    {
        type            calculated;
        value           uniform 0.126269;
    }
}


// ************************************************************************* //
