/*--------------------------------*- C++ -*----------------------------------*\
  =========                 |
  \\      /  F ield         | OpenFOAM: The Open Source CFD Toolbox
   \\    /   O peration     | Website:  https://openfoam.org
    \\  /    A nd           | Version:  7
     \\/     M anipulation  |
\*---------------------------------------------------------------------------*/
FoamFile
{
    version     2.0;
    format      ascii;
    class       volVectorField;
    location    "0.00056";
    object      U;
}
// * * * * * * * * * * * * * * * * * * * * * * * * * * * * * * * * * * * * * //

dimensions      [0 1 -1 0 0 0 0];

internalField   nonuniform List<vector> 
500
(
(2.34898 0 0)
(2.34918 0 0)
(2.34938 0 0)
(2.34956 0 0)
(2.34973 0 0)
(2.34989 0 0)
(2.35006 0 0)
(2.35023 0 0)
(2.3504 0 0)
(2.35056 0 0)
(2.35073 0 0)
(2.35089 0 0)
(2.35106 0 0)
(2.35123 0 0)
(2.35139 0 0)
(2.35156 0 0)
(2.35173 0 0)
(2.35191 0 0)
(2.35208 0 0)
(2.35226 0 0)
(2.35244 0 0)
(2.35262 0 0)
(2.35281 0 0)
(2.353 0 0)
(2.35319 0 0)
(2.35338 0 0)
(2.35358 0 0)
(2.35377 0 0)
(2.35397 0 0)
(2.35417 0 0)
(2.35436 0 0)
(2.35456 0 0)
(2.35475 0 0)
(2.35493 0 0)
(2.35512 0 0)
(2.35529 0 0)
(2.35547 0 0)
(2.35563 0 0)
(2.35579 0 0)
(2.35595 0 0)
(2.3561 0 0)
(2.35624 0 0)
(2.35638 0 0)
(2.35652 0 0)
(2.35665 0 0)
(2.35678 0 0)
(2.35691 0 0)
(2.35704 0 0)
(2.35717 0 0)
(2.3573 0 0)
(2.35743 0 0)
(2.35757 0 0)
(2.3577 0 0)
(2.35784 0 0)
(2.35798 0 0)
(2.35812 0 0)
(2.35827 0 0)
(2.35842 0 0)
(2.35857 0 0)
(2.35872 0 0)
(2.35887 0 0)
(2.35903 0 0)
(2.35918 0 0)
(2.35934 0 0)
(2.3595 0 0)
(2.35966 0 0)
(2.35982 0 0)
(2.35998 0 0)
(2.36014 0 0)
(2.3603 0 0)
(2.36046 0 0)
(2.36063 0 0)
(2.36079 0 0)
(2.36095 0 0)
(2.36111 0 0)
(2.36127 0 0)
(2.36143 0 0)
(2.3616 0 0)
(2.36176 0 0)
(2.36192 0 0)
(2.36208 0 0)
(2.36224 0 0)
(2.36241 0 0)
(2.36257 0 0)
(2.36273 0 0)
(2.36289 0 0)
(2.36305 0 0)
(2.36321 0 0)
(2.36338 0 0)
(2.36354 0 0)
(2.3637 0 0)
(2.36386 0 0)
(2.36402 0 0)
(2.36418 0 0)
(2.36434 0 0)
(2.36451 0 0)
(2.36467 0 0)
(2.36483 0 0)
(2.36499 0 0)
(2.36515 0 0)
(2.36531 0 0)
(2.36547 0 0)
(2.36563 0 0)
(2.3658 0 0)
(2.36596 0 0)
(2.36612 0 0)
(2.36628 0 0)
(2.36644 0 0)
(2.3666 0 0)
(2.36676 0 0)
(2.36692 0 0)
(2.36708 0 0)
(2.36724 0 0)
(2.3674 0 0)
(2.36756 0 0)
(2.36772 0 0)
(2.36788 0 0)
(2.36804 0 0)
(2.3682 0 0)
(2.36837 0 0)
(2.36853 0 0)
(2.36869 0 0)
(2.36885 0 0)
(2.36901 0 0)
(2.36918 0 0)
(2.36934 0 0)
(2.36949 0 0)
(2.36965 0 0)
(2.36981 0 0)
(2.36997 0 0)
(2.37013 0 0)
(2.37029 0 0)
(2.37045 0 0)
(2.37061 0 0)
(2.37077 0 0)
(2.37093 0 0)
(2.37109 0 0)
(2.37124 0 0)
(2.3714 0 0)
(2.37156 0 0)
(2.37172 0 0)
(2.37188 0 0)
(2.37204 0 0)
(2.3722 0 0)
(2.37235 0 0)
(2.37251 0 0)
(2.37267 0 0)
(2.37283 0 0)
(2.37299 0 0)
(2.37315 0 0)
(2.3733 0 0)
(2.37346 0 0)
(2.37362 0 0)
(2.37378 0 0)
(2.37394 0 0)
(2.37409 0 0)
(2.37425 0 0)
(2.37441 0 0)
(2.37457 0 0)
(2.37472 0 0)
(2.37488 0 0)
(2.37504 0 0)
(2.3752 0 0)
(2.37535 0 0)
(2.37551 0 0)
(2.37567 0 0)
(2.37582 0 0)
(2.37598 0 0)
(2.37614 0 0)
(2.37629 0 0)
(2.37645 0 0)
(2.37661 0 0)
(2.37676 0 0)
(2.37692 0 0)
(2.37708 0 0)
(2.37723 0 0)
(2.37739 0 0)
(2.37754 0 0)
(2.3777 0 0)
(2.37786 0 0)
(2.37801 0 0)
(2.37817 0 0)
(2.37832 0 0)
(2.37848 0 0)
(2.37863 0 0)
(2.37879 0 0)
(2.37894 0 0)
(2.3791 0 0)
(2.37925 0 0)
(2.37941 0 0)
(2.37956 0 0)
(2.37972 0 0)
(2.37987 0 0)
(2.38003 0 0)
(2.38018 0 0)
(2.38034 0 0)
(2.38049 0 0)
(2.38064 0 0)
(2.3808 0 0)
(2.38095 0 0)
(2.38111 0 0)
(2.38126 0 0)
(2.38141 0 0)
(2.38157 0 0)
(2.38172 0 0)
(2.38187 0 0)
(2.38203 0 0)
(2.38218 0 0)
(2.38233 0 0)
(2.38249 0 0)
(2.38264 0 0)
(2.38279 0 0)
(2.38294 0 0)
(2.3831 0 0)
(2.38325 0 0)
(2.3834 0 0)
(2.38355 0 0)
(2.38371 0 0)
(2.38386 0 0)
(2.38401 0 0)
(2.38416 0 0)
(2.38431 0 0)
(2.38446 0 0)
(2.38462 0 0)
(2.38477 0 0)
(2.38492 0 0)
(2.38507 0 0)
(2.38522 0 0)
(2.38537 0 0)
(2.38552 0 0)
(2.38567 0 0)
(2.38582 0 0)
(2.38597 0 0)
(2.38612 0 0)
(2.38627 0 0)
(2.38642 0 0)
(2.38657 0 0)
(2.38672 0 0)
(2.38687 0 0)
(2.38702 0 0)
(2.38717 0 0)
(2.38732 0 0)
(2.38747 0 0)
(2.38762 0 0)
(2.38777 0 0)
(2.38792 0 0)
(2.38807 0 0)
(2.38822 0 0)
(2.38837 0 0)
(2.38852 0 0)
(2.38867 0 0)
(2.38882 0 0)
(2.38896 0 0)
(2.38911 0 0)
(2.38926 0 0)
(2.38941 0 0)
(2.38956 0 0)
(2.38971 0 0)
(2.38985 0 0)
(2.39 0 0)
(2.39015 0 0)
(2.3903 0 0)
(2.39044 0 0)
(2.39059 0 0)
(2.39073 0 0)
(2.39088 0 0)
(2.39103 0 0)
(2.39118 0 0)
(2.39136 0 0)
(2.39162 0 0)
(2.39221 0 0)
(2.39378 0 0)
(2.39829 0 0)
(2.41105 0 0)
(2.44457 0 0)
(2.52597 0 0)
(2.71422 0 0)
(3.11737 0 0)
(3.91384 0 0)
(5.04568 0 0)
(6.28658 0 0)
(7.45554 0 0)
(8.4916 0 0)
(9.3819 0 0)
(10.1239 0 0)
(10.7378 0 0)
(11.2481 0 0)
(11.6612 0 0)
(11.9892 0 0)
(12.2586 0 0)
(12.4897 0 0)
(12.6924 0 0)
(12.8718 0 0)
(13.0321 0 0)
(13.1765 0 0)
(13.3076 0 0)
(13.4275 0 0)
(13.5377 0 0)
(13.6396 0 0)
(13.7341 0 0)
(13.8222 0 0)
(13.9044 0 0)
(13.9816 0 0)
(14.0541 0 0)
(14.1225 0 0)
(14.187 0 0)
(14.2482 0 0)
(14.3061 0 0)
(14.3612 0 0)
(14.4136 0 0)
(14.4635 0 0)
(14.511 0 0)
(14.5551 0 0)
(14.5964 0 0)
(14.6364 0 0)
(14.6751 0 0)
(14.7124 0 0)
(14.7485 0 0)
(14.7834 0 0)
(14.8172 0 0)
(14.85 0 0)
(14.8817 0 0)
(14.9126 0 0)
(14.9425 0 0)
(14.9716 0 0)
(14.9999 0 0)
(15.0274 0 0)
(15.0542 0 0)
(15.0802 0 0)
(15.1057 0 0)
(15.1304 0 0)
(15.1546 0 0)
(15.1781 0 0)
(15.2011 0 0)
(15.2236 0 0)
(15.2455 0 0)
(15.267 0 0)
(15.2879 0 0)
(15.3084 0 0)
(15.3285 0 0)
(15.3481 0 0)
(15.3673 0 0)
(15.3861 0 0)
(15.4045 0 0)
(15.4226 0 0)
(15.4403 0 0)
(15.4577 0 0)
(15.4747 0 0)
(15.4914 0 0)
(15.5078 0 0)
(15.5238 0 0)
(15.5396 0 0)
(15.5551 0 0)
(15.5704 0 0)
(15.5853 0 0)
(15.6 0 0)
(15.6145 0 0)
(15.6287 0 0)
(15.6427 0 0)
(15.6564 0 0)
(15.6699 0 0)
(15.6832 0 0)
(15.6963 0 0)
(15.7092 0 0)
(15.7218 0 0)
(15.7343 0 0)
(15.7466 0 0)
(15.7587 0 0)
(15.7707 0 0)
(15.7824 0 0)
(15.794 0 0)
(15.8054 0 0)
(15.8167 0 0)
(15.8277 0 0)
(15.8386 0 0)
(15.8494 0 0)
(15.86 0 0)
(15.8707 0 0)
(15.8811 0 0)
(15.8912 0 0)
(15.9013 0 0)
(15.9112 0 0)
(15.9211 0 0)
(15.9308 0 0)
(15.9404 0 0)
(15.9498 0 0)
(15.9592 0 0)
(15.9684 0 0)
(15.9775 0 0)
(15.9865 0 0)
(15.9954 0 0)
(16.0042 0 0)
(16.0129 0 0)
(16.0215 0 0)
(16.03 0 0)
(16.0384 0 0)
(16.0467 0 0)
(16.0549 0 0)
(16.063 0 0)
(16.071 0 0)
(16.0789 0 0)
(16.0868 0 0)
(16.0945 0 0)
(16.1022 0 0)
(16.1098 0 0)
(16.1173 0 0)
(16.1248 0 0)
(16.1321 0 0)
(16.1394 0 0)
(16.1466 0 0)
(16.1537 0 0)
(16.1608 0 0)
(16.1678 0 0)
(16.1747 0 0)
(16.1815 0 0)
(16.1883 0 0)
(16.195 0 0)
(16.2017 0 0)
(16.2082 0 0)
(16.2148 0 0)
(16.2212 0 0)
(16.2276 0 0)
(16.2339 0 0)
(16.2402 0 0)
(16.2464 0 0)
(16.2525 0 0)
(16.2586 0 0)
(16.2651 0 0)
(16.2706 0 0)
(16.2758 0 0)
(16.2823 0 0)
(16.2882 0 0)
(16.2939 0 0)
(16.2996 0 0)
(16.3053 0 0)
(16.3108 0 0)
(16.3164 0 0)
(16.3218 0 0)
(16.3273 0 0)
(16.3327 0 0)
(16.338 0 0)
(16.3433 0 0)
(16.3485 0 0)
(16.3537 0 0)
(16.3589 0 0)
(16.364 0 0)
(16.3691 0 0)
(16.3742 0 0)
(16.3792 0 0)
(16.3842 0 0)
(16.3891 0 0)
(16.3941 0 0)
(16.399 0 0)
(16.4038 0 0)
(16.4087 0 0)
(16.4135 0 0)
(16.4183 0 0)
(16.4231 0 0)
(16.4279 0 0)
(16.4327 0 0)
(16.4374 0 0)
(16.4421 0 0)
(16.4468 0 0)
(16.4515 0 0)
(16.4562 0 0)
(16.4609 0 0)
(16.4655 0 0)
(16.4702 0 0)
(16.4748 0 0)
(16.4793 0 0)
(16.4839 0 0)
(16.4884 0 0)
(16.4928 0 0)
(16.4973 0 0)
(16.5016 0 0)
(16.506 0 0)
(16.5102 0 0)
(16.5144 0 0)
(16.5185 0 0)
(16.5226 0 0)
(16.5265 0 0)
(16.5304 0 0)
(16.5341 0 0)
(16.5378 0 0)
(16.5413 0 0)
(16.5448 0 0)
(16.5481 0 0)
(16.5513 0 0)
(16.5544 0 0)
(16.5573 0 0)
(16.5602 0 0)
(16.5629 0 0)
(16.5655 0 0)
(16.5681 0 0)
(16.5705 0 0)
(16.5727 0 0)
(16.5746 0 0)
(16.5755 0 0)
(16.5737 0 0)
(16.5652 0 0)
)
;

boundaryField
{
    boundary
    {
        type            empty;
    }
    inlet
    {
        type            fixedValue;
        value           uniform (2.34893 0 0);
    }
    outlet
    {
        type            zeroGradient;
    }
}


// ************************************************************************* //
