/*--------------------------------*- C++ -*----------------------------------*\
  =========                 |
  \\      /  F ield         | OpenFOAM: The Open Source CFD Toolbox
   \\    /   O peration     | Website:  https://openfoam.org
    \\  /    A nd           | Version:  7
     \\/     M anipulation  |
\*---------------------------------------------------------------------------*/
FoamFile
{
    version     2.0;
    format      ascii;
    class       volScalarField;
    location    "0.00066";
    object      OH;
}
// * * * * * * * * * * * * * * * * * * * * * * * * * * * * * * * * * * * * * //

dimensions      [0 0 0 0 0 0 0];

internalField   nonuniform List<scalar> 
125
(
9.35464e-48
1.81937e-47
2.41995e-47
2.82309e-47
3.09251e-47
3.27234e-47
3.39257e-47
3.47343e-47
3.52848e-47
3.5668e-47
3.59439e-47
3.61522e-47
3.63188e-47
3.64605e-47
3.6588e-47
3.67081e-47
3.68255e-47
3.69433e-47
3.7064e-47
3.71896e-47
3.73222e-47
3.7464e-47
3.76175e-47
3.77855e-47
3.7971e-47
3.81774e-47
3.84083e-47
3.86678e-47
3.89599e-47
3.92889e-47
3.96592e-47
4.0075e-47
4.05404e-47
4.10589e-47
4.1634e-47
4.22682e-47
4.29632e-47
4.37199e-47
4.45381e-47
4.54164e-47
4.63519e-47
4.73407e-47
4.83771e-47
4.94545e-47
5.05649e-47
5.16991e-47
5.28473e-47
5.3999e-47
5.51433e-47
5.62695e-47
5.73672e-47
5.84268e-47
5.94395e-47
6.03978e-47
6.12957e-47
6.21288e-47
6.2894e-47
6.359e-47
6.42169e-47
6.47761e-47
6.52701e-47
6.57024e-47
6.60772e-47
6.63991e-47
6.6673e-47
6.69041e-47
6.70973e-47
6.72574e-47
6.73889e-47
6.74961e-47
6.75827e-47
6.76522e-47
6.77074e-47
6.7751e-47
6.77851e-47
6.78117e-47
6.78322e-47
6.7848e-47
6.78601e-47
6.78693e-47
6.78763e-47
6.78816e-47
6.78857e-47
6.78888e-47
6.78912e-47
6.78932e-47
6.78948e-47
6.78961e-47
6.78973e-47
6.78983e-47
6.78993e-47
6.79003e-47
6.79012e-47
6.79022e-47
6.79031e-47
6.79041e-47
6.79052e-47
6.79062e-47
6.79073e-47
6.79085e-47
6.79097e-47
6.7911e-47
6.79123e-47
6.79136e-47
6.79151e-47
6.79165e-47
6.79181e-47
6.79197e-47
6.79213e-47
6.79231e-47
6.79249e-47
6.79267e-47
6.79287e-47
6.79307e-47
6.79328e-47
6.7935e-47
6.79372e-47
6.79395e-47
6.79419e-47
6.79444e-47
6.79471e-47
6.795e-47
6.79536e-47
6.79585e-47
6.79669e-47
)
;

boundaryField
{
    boundary
    {
        type            empty;
    }
    inlet
    {
        type            fixedValue;
        value           uniform 0;
    }
    outlet
    {
        type            zeroGradient;
    }
    procBoundary2to3
    {
        type            processor;
        value           uniform 6.79774e-47;
    }
}


// ************************************************************************* //
