/*--------------------------------*- C++ -*----------------------------------*\
  =========                 |
  \\      /  F ield         | OpenFOAM: The Open Source CFD Toolbox
   \\    /   O peration     | Website:  https://openfoam.org
    \\  /    A nd           | Version:  7
     \\/     M anipulation  |
\*---------------------------------------------------------------------------*/
FoamFile
{
    version     2.0;
    format      ascii;
    class       volScalarField;
    location    "0.0005";
    object      H;
}
// * * * * * * * * * * * * * * * * * * * * * * * * * * * * * * * * * * * * * //

dimensions      [0 0 0 0 0 0 0];

internalField   nonuniform List<scalar> 
500
(
1.48696e-41
2.01628e-41
2.13285e-41
2.16045e-41
2.16885e-41
2.1731e-41
2.17651e-41
2.17981e-41
2.18321e-41
2.18681e-41
2.19071e-41
2.195e-41
2.19981e-41
2.20531e-41
2.21166e-41
2.21909e-41
2.22782e-41
2.23811e-41
2.25023e-41
2.26449e-41
2.28117e-41
2.30057e-41
2.32297e-41
2.34862e-41
2.37775e-41
2.41051e-41
2.44699e-41
2.4872e-41
2.53107e-41
2.57839e-41
2.62888e-41
2.68215e-41
2.73769e-41
2.79491e-41
2.85317e-41
2.91173e-41
2.96988e-41
3.02689e-41
3.08206e-41
3.13476e-41
3.18445e-41
3.2307e-41
3.27319e-41
3.31172e-41
3.3462e-41
3.37668e-41
3.40328e-41
3.42621e-41
3.44573e-41
3.46215e-41
3.4758e-41
3.48701e-41
3.49612e-41
3.50344e-41
3.50925e-41
3.51382e-41
3.51737e-41
3.5201e-41
3.52218e-41
3.52375e-41
3.52492e-41
3.52578e-41
3.52642e-41
3.52688e-41
3.52721e-41
3.52745e-41
3.52763e-41
3.52775e-41
3.52784e-41
3.5279e-41
3.52795e-41
3.52799e-41
3.52802e-41
3.52805e-41
3.52807e-41
3.52809e-41
3.52811e-41
3.52814e-41
3.52816e-41
3.52818e-41
3.52821e-41
3.52824e-41
3.52826e-41
3.52829e-41
3.52833e-41
3.52836e-41
3.52839e-41
3.52843e-41
3.52847e-41
3.52851e-41
3.52856e-41
3.5286e-41
3.52865e-41
3.5287e-41
3.52875e-41
3.52881e-41
3.52887e-41
3.52893e-41
3.52899e-41
3.52906e-41
3.52913e-41
3.5292e-41
3.52928e-41
3.52936e-41
3.52944e-41
3.52952e-41
3.52961e-41
3.5297e-41
3.5298e-41
3.5299e-41
3.53e-41
3.53011e-41
3.53022e-41
3.53033e-41
3.53045e-41
3.53057e-41
3.53069e-41
3.53082e-41
3.53095e-41
3.53109e-41
3.53123e-41
3.53136e-41
3.53149e-41
3.53156e-41
3.53155e-41
3.5315e-41
3.53166e-41
3.5319e-41
3.53217e-41
3.53245e-41
3.53272e-41
3.53297e-41
3.5332e-41
3.53342e-41
3.53363e-41
3.53382e-41
3.53402e-41
3.53422e-41
3.53442e-41
3.53462e-41
3.53482e-41
3.53503e-41
3.53524e-41
3.53545e-41
3.53566e-41
3.53587e-41
3.53609e-41
3.53631e-41
3.53653e-41
3.53675e-41
3.53697e-41
3.5372e-41
3.53743e-41
3.53766e-41
3.5379e-41
3.53815e-41
3.53839e-41
3.53864e-41
3.5389e-41
3.53916e-41
3.53941e-41
3.53967e-41
3.53993e-41
3.54019e-41
3.54045e-41
3.5407e-41
3.54095e-41
3.5412e-41
3.54143e-41
3.54166e-41
3.54189e-41
3.5421e-41
3.54231e-41
3.5425e-41
3.54269e-41
3.54286e-41
3.54302e-41
3.54317e-41
3.5433e-41
3.54342e-41
3.54353e-41
3.54362e-41
3.54369e-41
3.54375e-41
3.54379e-41
3.54381e-41
3.54381e-41
3.54379e-41
3.54375e-41
3.54369e-41
3.5436e-41
3.54349e-41
3.54335e-41
3.54319e-41
3.54299e-41
3.54277e-41
3.54252e-41
3.54223e-41
3.54192e-41
3.54156e-41
3.54118e-41
3.54075e-41
3.54029e-41
3.53979e-41
3.53925e-41
3.53867e-41
3.53804e-41
3.53737e-41
3.53666e-41
3.5359e-41
3.53509e-41
3.53424e-41
3.53335e-41
3.53247e-41
3.53176e-41
3.53191e-41
3.53568e-41
3.55398e-41
3.62961e-41
3.92902e-41
5.09367e-41
9.57371e-41
2.66442e-40
9.11025e-40
3.32339e-39
1.22721e-38
4.51761e-38
1.65107e-37
5.9845e-37
2.15077e-36
7.66415e-36
2.70811e-35
9.48957e-35
3.29802e-34
1.13697e-33
3.88869e-33
1.31977e-32
4.44568e-32
1.48679e-31
4.93854e-31
1.63002e-30
5.34947e-30
1.74704e-29
5.68364e-29
1.84448e-28
5.98149e-28
1.94284e-27
6.33962e-27
2.08639e-26
6.96e-26
2.36809e-25
8.25633e-25
2.96334e-24
1.09904e-23
4.22566e-23
1.68378e-22
6.93181e-22
2.93439e-21
1.27064e-20
5.60114e-20
2.5039e-19
1.13221e-18
5.17236e-18
2.38788e-17
1.11608e-16
5.30041e-16
2.57176e-15
1.28404e-14
6.65079e-14
3.60027e-13
2.19738e-12
1.62333e-11
1.5463e-10
1.4549e-09
1.36148e-08
1.26139e-07
1.10167e-06
8.26918e-06
4.61649e-05
0.000163936
0.000379969
0.000679198
0.00103383
0.00138696
0.0016685
0.00184233
0.00191858
0.00191957
0.00187755
0.00181309
0.00173916
0.00166325
0.00158938
0.00151948
0.00145432
0.00139402
0.00133841
0.00128713
0.00123982
0.00119609
0.00115556
0.00111792
0.00108286
0.00105014
0.00101951
0.00099078
0.000963772
0.000938331
0.000914319
0.000891617
0.000870118
0.000849725
0.000830922
0.000813417
0.000796629
0.000780513
0.000765029
0.000750139
0.000735809
0.000722006
0.000708701
0.000695867
0.000683477
0.000671508
0.000659938
0.000648748
0.000637918
0.000627429
0.000617267
0.000607415
0.000597859
0.000588585
0.00057958
0.000570834
0.000562333
0.000554069
0.00054603
0.000538208
0.000530594
0.000523179
0.000515955
0.000508915
0.000502052
0.000495359
0.00048883
0.000482458
0.000476239
0.000470166
0.000464235
0.00045844
0.000452776
0.00044724
0.000441828
0.000436534
0.000431355
0.000426288
0.000421329
0.000416475
0.000411722
0.000407067
0.000402508
0.000398041
0.000393665
0.000389376
0.000385172
0.000381051
0.000377011
0.00037305
0.000369165
0.000365355
0.000361619
0.000357954
0.000354359
0.000350833
0.000347373
0.000343978
0.000340634
0.000337346
0.000334115
0.00033094
0.00032782
0.000324754
0.000321741
0.000318781
0.000315872
0.000313012
0.000310203
0.000307441
0.000304726
0.000302058
0.000299435
0.000296857
0.000294323
0.000291832
0.000289383
0.000286976
0.00028461
0.000282284
0.000279997
0.00027775
0.00027554
0.000273368
0.000271232
0.000269132
0.000267067
0.000265034
0.000263031
0.000261061
0.000258945
0.000257042
0.000255177
0.000253346
0.000251545
0.000249774
0.00024803
0.000246314
0.000244625
0.000242961
0.000241324
0.000239711
0.000238123
0.000236558
0.000235015
0.000233495
0.000231997
0.000230519
0.00022906
0.000227621
0.000226199
0.000224794
0.000223405
0.000222031
0.000220671
0.000219324
0.000217989
0.000216665
0.00021535
0.000214043
0.000212743
0.00021145
0.000210161
0.000208877
0.000207594
0.000206313
0.000205032
0.00020375
0.000202466
0.000201178
0.000199886
0.000198588
0.000197285
0.000195973
0.000194654
0.000193325
0.000191987
0.000190637
0.000189277
0.000187905
0.00018652
0.000185123
0.000183712
0.000182288
0.00018085
0.000179399
0.000177934
0.000176454
0.000174961
0.000173454
0.000171933
0.000170399
0.000168852
0.000167291
0.000165718
0.000164133
0.000162536
0.000160928
0.000159308
0.000157679
0.000156039
0.000154391
0.000152734
0.000151071
0.000149401
0.000147727
0.00014605
0.000144371
0.000142694
0.000141022
0.000139358
0.000137707
0.000136077
0.000134476
0.000132914
0.000131408
0.000129976
0.000128646
0.000127451
0.000126441
0.000125677
0.000125243
)
;

boundaryField
{
    boundary
    {
        type            empty;
    }
    inlet
    {
        type            fixedValue;
        value           uniform 0;
    }
    outlet
    {
        type            zeroGradient;
    }
}


// ************************************************************************* //
