/*--------------------------------*- C++ -*----------------------------------*\
  =========                 |
  \\      /  F ield         | OpenFOAM: The Open Source CFD Toolbox
   \\    /   O peration     | Website:  https://openfoam.org
    \\  /    A nd           | Version:  7
     \\/     M anipulation  |
\*---------------------------------------------------------------------------*/
FoamFile
{
    version     2.0;
    format      ascii;
    class       volScalarField;
    location    "0.0005";
    object      HO2;
}
// * * * * * * * * * * * * * * * * * * * * * * * * * * * * * * * * * * * * * //

dimensions      [0 0 0 0 0 0 0];

internalField   nonuniform List<scalar> 
500
(
5.60512e-38
1.27644e-37
1.99592e-37
2.71693e-37
3.43907e-37
4.16235e-37
4.8869e-37
5.61293e-37
6.34074e-37
7.07077e-37
7.80363e-37
8.54011e-37
9.28125e-37
1.00284e-36
1.0783e-36
1.15472e-36
1.2323e-36
1.3113e-36
1.39199e-36
1.47465e-36
1.55958e-36
1.64704e-36
1.73728e-36
1.83048e-36
1.92674e-36
2.02607e-36
2.12834e-36
2.23328e-36
2.3405e-36
2.44944e-36
2.5594e-36
2.66955e-36
2.77899e-36
2.88674e-36
2.9918e-36
3.0932e-36
3.19001e-36
3.28143e-36
3.36677e-36
3.44552e-36
3.51732e-36
3.58201e-36
3.63959e-36
3.69023e-36
3.73421e-36
3.77196e-36
3.80395e-36
3.83075e-36
3.85293e-36
3.87107e-36
3.88572e-36
3.89743e-36
3.90667e-36
3.91388e-36
3.91945e-36
3.9237e-36
3.9269e-36
3.9293e-36
3.93107e-36
3.93237e-36
3.9333e-36
3.93398e-36
3.93446e-36
3.9348e-36
3.93503e-36
3.9352e-36
3.93532e-36
3.9354e-36
3.93546e-36
3.9355e-36
3.93553e-36
3.93556e-36
3.93558e-36
3.9356e-36
3.93562e-36
3.93564e-36
3.93566e-36
3.93568e-36
3.9357e-36
3.93573e-36
3.93575e-36
3.93578e-36
3.93581e-36
3.93584e-36
3.93587e-36
3.9359e-36
3.93594e-36
3.93597e-36
3.93601e-36
3.93606e-36
3.9361e-36
3.93615e-36
3.9362e-36
3.93625e-36
3.9363e-36
3.93636e-36
3.93642e-36
3.93648e-36
3.93655e-36
3.93662e-36
3.93669e-36
3.93676e-36
3.93684e-36
3.93692e-36
3.93701e-36
3.93709e-36
3.93719e-36
3.93728e-36
3.93738e-36
3.93748e-36
3.93759e-36
3.9377e-36
3.93781e-36
3.93793e-36
3.93805e-36
3.93818e-36
3.93831e-36
3.93844e-36
3.93858e-36
3.93872e-36
3.93885e-36
3.93893e-36
3.93881e-36
3.93789e-36
3.9338e-36
3.92569e-36
3.92597e-36
3.92633e-36
3.92679e-36
3.92737e-36
3.92811e-36
3.929e-36
3.93006e-36
3.93127e-36
3.93257e-36
3.93392e-36
3.93523e-36
3.93644e-36
3.93748e-36
3.93829e-36
3.93885e-36
3.93916e-36
3.93924e-36
3.9391e-36
3.93882e-36
3.93843e-36
3.93799e-36
3.93757e-36
3.93719e-36
3.93691e-36
3.93675e-36
3.93673e-36
3.93686e-36
3.93713e-36
3.93755e-36
3.93809e-36
3.93875e-36
3.93949e-36
3.9403e-36
3.94115e-36
3.94203e-36
3.94291e-36
3.94378e-36
3.94463e-36
3.94543e-36
3.94619e-36
3.94689e-36
3.94754e-36
3.94813e-36
3.94867e-36
3.94915e-36
3.94958e-36
3.94996e-36
3.95031e-36
3.95061e-36
3.95088e-36
3.95111e-36
3.95132e-36
3.9515e-36
3.95166e-36
3.95179e-36
3.9519e-36
3.952e-36
3.95207e-36
3.95211e-36
3.95214e-36
3.95215e-36
3.95213e-36
3.95209e-36
3.95203e-36
3.95194e-36
3.95182e-36
3.95168e-36
3.95151e-36
3.9513e-36
3.95107e-36
3.95081e-36
3.95051e-36
3.95017e-36
3.9498e-36
3.94939e-36
3.94894e-36
3.94846e-36
3.94793e-36
3.94735e-36
3.94674e-36
3.94607e-36
3.94536e-36
3.9446e-36
3.9438e-36
3.94294e-36
3.94203e-36
3.94106e-36
3.94005e-36
3.93898e-36
3.93788e-36
3.93682e-36
3.93609e-36
3.93691e-36
3.94403e-36
3.97628e-36
4.10728e-36
4.62239e-36
6.61883e-36
1.42808e-35
4.34416e-35
1.53574e-34
5.66569e-34
2.10536e-33
7.80696e-33
2.88391e-32
1.06189e-31
3.90301e-31
1.43482e-30
5.28812e-30
1.95919e-29
7.31772e-29
2.76331e-28
1.05762e-27
4.11029e-27
1.62356e-26
6.51725e-26
2.65576e-25
1.09657e-24
4.57735e-24
1.92695e-23
8.16232e-23
3.47195e-22
1.48062e-21
6.32239e-21
2.7008e-20
1.16247e-19
4.97691e-19
2.12297e-18
9.04122e-18
3.84594e-17
1.63428e-16
6.93809e-16
2.94292e-15
1.24734e-14
5.28325e-14
2.23646e-13
9.46223e-13
4.00148e-12
1.69141e-11
7.14618e-11
3.01766e-10
1.27348e-09
5.36989e-09
2.26194e-08
9.50911e-08
3.98255e-07
1.65242e-06
6.72727e-06
2.62757e-05
9.34015e-05
0.000267721
0.000483275
0.000511755
0.000424465
0.000312154
0.000220271
0.000154304
0.000107861
7.56465e-05
5.42739e-05
3.78585e-05
2.8829e-05
2.30216e-05
1.91918e-05
1.6576e-05
1.47132e-05
1.33282e-05
1.22557e-05
1.13953e-05
1.06842e-05
1.00822e-05
9.56282e-06
9.10795e-06
8.70477e-06
8.34396e-06
8.01854e-06
7.72309e-06
7.45338e-06
7.206e-06
6.97816e-06
6.76757e-06
6.57228e-06
6.39069e-06
6.22143e-06
6.06336e-06
5.91556e-06
5.78141e-06
5.65679e-06
5.53856e-06
5.42627e-06
5.31946e-06
5.21775e-06
5.12078e-06
5.02823e-06
4.93981e-06
4.85526e-06
4.77432e-06
4.69677e-06
4.62242e-06
4.55106e-06
4.48252e-06
4.41665e-06
4.35328e-06
4.29228e-06
4.23352e-06
4.17688e-06
4.12224e-06
4.0695e-06
4.01857e-06
3.96935e-06
3.92176e-06
3.87571e-06
3.83114e-06
3.78797e-06
3.74614e-06
3.70559e-06
3.66626e-06
3.62809e-06
3.59104e-06
3.55506e-06
3.52011e-06
3.48614e-06
3.45312e-06
3.421e-06
3.38976e-06
3.35935e-06
3.32976e-06
3.30095e-06
3.27289e-06
3.24555e-06
3.21891e-06
3.19295e-06
3.16764e-06
3.14296e-06
3.11889e-06
3.09541e-06
3.0725e-06
3.05013e-06
3.0283e-06
3.00698e-06
2.98616e-06
2.96582e-06
2.94594e-06
2.92651e-06
2.90752e-06
2.88893e-06
2.87075e-06
2.85295e-06
2.83552e-06
2.81844e-06
2.8017e-06
2.78533e-06
2.76929e-06
2.75358e-06
2.73818e-06
2.72308e-06
2.70827e-06
2.69373e-06
2.67947e-06
2.66546e-06
2.6517e-06
2.63818e-06
2.62488e-06
2.61181e-06
2.59895e-06
2.58629e-06
2.57382e-06
2.56154e-06
2.54942e-06
2.53747e-06
2.52568e-06
2.51403e-06
2.50251e-06
2.49111e-06
2.47983e-06
2.46865e-06
2.45757e-06
2.44657e-06
2.43564e-06
2.42474e-06
2.41387e-06
2.40345e-06
2.38929e-06
2.37873e-06
2.36805e-06
2.35725e-06
2.34633e-06
2.3353e-06
2.32416e-06
2.31289e-06
2.30148e-06
2.28993e-06
2.27821e-06
2.26631e-06
2.25422e-06
2.24192e-06
2.2294e-06
2.21665e-06
2.20366e-06
2.19042e-06
2.1769e-06
2.16311e-06
2.14904e-06
2.13469e-06
2.12003e-06
2.10509e-06
2.08984e-06
2.0743e-06
2.05848e-06
2.04236e-06
2.02597e-06
2.00932e-06
1.99242e-06
1.97529e-06
1.95795e-06
1.94042e-06
1.92273e-06
1.9049e-06
1.88697e-06
1.86897e-06
1.85094e-06
1.8329e-06
1.81491e-06
1.79701e-06
1.77924e-06
1.76163e-06
1.74425e-06
1.72713e-06
1.71033e-06
1.69388e-06
1.67783e-06
1.66224e-06
1.64714e-06
1.63258e-06
1.6186e-06
1.60524e-06
1.59254e-06
1.58053e-06
1.56924e-06
1.55872e-06
1.54897e-06
1.54002e-06
1.53189e-06
1.5246e-06
1.51815e-06
1.51255e-06
1.5078e-06
1.50389e-06
1.50082e-06
1.49857e-06
1.49713e-06
1.49647e-06
1.49658e-06
1.49742e-06
1.49895e-06
1.50115e-06
1.50396e-06
1.50736e-06
1.51129e-06
1.51572e-06
1.52058e-06
1.52584e-06
1.53145e-06
1.53735e-06
1.54349e-06
1.54983e-06
1.5563e-06
1.56286e-06
1.56943e-06
1.57595e-06
1.58227e-06
1.5882e-06
1.59334e-06
1.59683e-06
)
;

boundaryField
{
    boundary
    {
        type            empty;
    }
    inlet
    {
        type            fixedValue;
        value           uniform 0;
    }
    outlet
    {
        type            zeroGradient;
    }
}


// ************************************************************************* //
