/*--------------------------------*- C++ -*----------------------------------*\
  =========                 |
  \\      /  F ield         | OpenFOAM: The Open Source CFD Toolbox
   \\    /   O peration     | Website:  https://openfoam.org
    \\  /    A nd           | Version:  7
     \\/     M anipulation  |
\*---------------------------------------------------------------------------*/
FoamFile
{
    version     2.0;
    format      ascii;
    class       volScalarField;
    location    "0.0005";
    object      N2;
}
// * * * * * * * * * * * * * * * * * * * * * * * * * * * * * * * * * * * * * //

dimensions      [0 0 0 0 0 0 0];

internalField   nonuniform List<scalar> 
500
(
0.745219
0.745219
0.745219
0.745219
0.745219
0.745219
0.745219
0.745219
0.745219
0.745219
0.745219
0.745219
0.745219
0.745219
0.745219
0.745219
0.745219
0.745219
0.745219
0.745219
0.745219
0.745219
0.745219
0.745219
0.745219
0.745219
0.745219
0.745219
0.745219
0.745219
0.745219
0.745219
0.745219
0.74522
0.74522
0.74522
0.74522
0.74522
0.74522
0.74522
0.74522
0.74522
0.74522
0.74522
0.74522
0.74522
0.74522
0.74522
0.74522
0.74522
0.74522
0.74522
0.74522
0.74522
0.74522
0.74522
0.74522
0.74522
0.74522
0.74522
0.74522
0.74522
0.74522
0.74522
0.74522
0.74522
0.74522
0.74522
0.74522
0.74522
0.74522
0.74522
0.74522
0.74522
0.74522
0.74522
0.74522
0.74522
0.74522
0.74522
0.74522
0.74522
0.74522
0.74522
0.74522
0.74522
0.74522
0.74522
0.74522
0.74522
0.74522
0.74522
0.74522
0.74522
0.74522
0.74522
0.74522
0.74522
0.74522
0.74522
0.74522
0.74522
0.74522
0.74522
0.74522
0.74522
0.74522
0.74522
0.74522
0.74522
0.74522
0.74522
0.74522
0.74522
0.74522
0.74522
0.74522
0.74522
0.74522
0.74522
0.74522
0.74522
0.74522
0.74522
0.74522
0.74522
0.74522
0.74522
0.74522
0.74522
0.74522
0.74522
0.74522
0.74522
0.74522
0.74522
0.74522
0.74522
0.74522
0.74522
0.74522
0.74522
0.74522
0.74522
0.74522
0.74522
0.74522
0.74522
0.74522
0.74522
0.74522
0.74522
0.74522
0.74522
0.74522
0.74522
0.74522
0.74522
0.74522
0.74522
0.74522
0.74522
0.74522
0.74522
0.74522
0.74522
0.74522
0.74522
0.74522
0.74522
0.74522
0.74522
0.74522
0.74522
0.74522
0.74522
0.74522
0.74522
0.74522
0.74522
0.74522
0.74522
0.74522
0.74522
0.74522
0.74522
0.74522
0.74522
0.74522
0.74522
0.74522
0.74522
0.74522
0.74522
0.74522
0.74522
0.74522
0.74522
0.74522
0.74522
0.74522
0.74522
0.74522
0.74522
0.74522
0.74522
0.74522
0.74522
0.74522
0.74522
0.74522
0.74522
0.74522
0.74522
0.74522
0.74522
0.74522
0.74522
0.74522
0.74522
0.74522
0.74522
0.74522
0.74522
0.74522
0.74522
0.74522
0.74522
0.74522
0.74522
0.74522
0.74522
0.74522
0.74522
0.74522
0.74522
0.74522
0.74522
0.74522
0.74522
0.74522
0.74522
0.74522
0.74522
0.74522
0.74522
0.74522
0.74522
0.74522
0.74522
0.74522
0.74522
0.74522
0.74522
0.74522
0.74522
0.74522
0.74522
0.74522
0.74522
0.74522
0.74522
0.74522
0.74522
0.74522
0.74522
0.74522
0.745221
0.745222
0.745224
0.745229
0.74524
0.74526
0.745301
0.745375
0.745491
0.745609
0.74559
0.74534
0.744937
0.7444
0.743868
0.743612
0.743732
0.74404
0.744217
0.744791
0.744993
0.745134
0.745223
0.745278
0.74531
0.745328
0.745338
0.745343
0.745344
0.745343
0.745342
0.74534
0.745337
0.745335
0.745332
0.74533
0.745327
0.745325
0.745322
0.74532
0.745318
0.745316
0.745314
0.745312
0.74531
0.745308
0.745307
0.745305
0.745303
0.745301
0.745299
0.745297
0.745295
0.745293
0.745291
0.745289
0.745287
0.745285
0.745283
0.745281
0.745279
0.745277
0.745276
0.745274
0.745272
0.74527
0.745269
0.745267
0.745265
0.745264
0.745263
0.745261
0.74526
0.745259
0.745258
0.745257
0.745257
0.745256
0.745255
0.745255
0.745254
0.745253
0.745253
0.745253
0.745252
0.745252
0.745251
0.745251
0.745251
0.74525
0.74525
0.745249
0.745249
0.745249
0.745248
0.745248
0.745247
0.745247
0.745246
0.745246
0.745245
0.745245
0.745244
0.745243
0.745243
0.745242
0.745241
0.74524
0.745239
0.745238
0.745237
0.745236
0.745236
0.745235
0.745234
0.745233
0.745231
0.74523
0.745229
0.745228
0.745226
0.745225
0.745223
0.745222
0.74522
0.745218
0.745217
0.745215
0.745212
0.74521
0.745208
0.745206
0.745203
0.745201
0.745198
0.745195
0.745192
0.745189
0.745186
0.745183
0.745181
0.745177
0.745174
0.74517
0.745167
0.745164
0.745161
0.745159
0.745156
0.745153
0.745151
0.745149
0.745147
0.745145
0.745144
0.745143
0.745142
0.745142
0.745142
0.745143
0.745144
0.745146
0.745148
0.745151
0.745154
0.745159
0.745164
0.745169
0.745175
0.745183
0.74519
0.745199
0.745208
0.745219
0.745229
0.745241
0.745253
0.745266
0.74528
0.745294
0.745309
0.745324
0.745339
0.745354
0.74537
0.745386
0.745402
0.745418
0.745433
0.745448
0.745462
0.745476
0.745489
0.745501
0.745513
0.745523
0.745532
0.745539
0.745546
0.74555
0.745553
0.745555
0.745555
0.745553
0.74555
0.745545
0.745538
0.745529
0.745519
0.745507
0.745494
0.745479
0.745463
0.745446
0.745428
0.745409
0.745389
0.745368
0.745346
0.745325
0.745303
0.74528
0.745258
0.745236
0.745213
0.745191
0.74517
0.745148
0.745127
0.745106
0.745085
0.745067
0.745054
)
;

boundaryField
{
    boundary
    {
        type            empty;
    }
    inlet
    {
        type            fixedValue;
        value           uniform 0.74522;
    }
    outlet
    {
        type            zeroGradient;
    }
}


// ************************************************************************* //
