/*--------------------------------*- C++ -*----------------------------------*\
  =========                 |
  \\      /  F ield         | OpenFOAM: The Open Source CFD Toolbox
   \\    /   O peration     | Website:  https://openfoam.org
    \\  /    A nd           | Version:  7
     \\/     M anipulation  |
\*---------------------------------------------------------------------------*/
FoamFile
{
    version     2.0;
    format      ascii;
    class       volScalarField;
    location    "0.0005";
    object      O2;
}
// * * * * * * * * * * * * * * * * * * * * * * * * * * * * * * * * * * * * * //

dimensions      [0 0 0 0 0 0 0];

internalField   nonuniform List<scalar> 
500
(
0.226269
0.226269
0.226269
0.226269
0.226269
0.226269
0.226269
0.226269
0.226269
0.226269
0.226269
0.226269
0.226269
0.226269
0.226269
0.226269
0.226269
0.226269
0.226269
0.226269
0.226269
0.226269
0.226269
0.226269
0.226269
0.226269
0.226269
0.226269
0.226269
0.226269
0.226269
0.226269
0.226269
0.226269
0.226269
0.226269
0.226269
0.226269
0.226269
0.226269
0.226269
0.226269
0.226269
0.226269
0.226269
0.226269
0.226269
0.226269
0.226269
0.226269
0.226269
0.226269
0.226269
0.226269
0.226269
0.226269
0.226269
0.226269
0.226269
0.226269
0.226269
0.226269
0.226269
0.226269
0.226269
0.226269
0.226269
0.226269
0.226269
0.226269
0.226269
0.226269
0.226269
0.226269
0.226269
0.226269
0.226269
0.226269
0.226269
0.226269
0.226269
0.226269
0.226269
0.226269
0.226269
0.226269
0.226269
0.226269
0.226269
0.226269
0.226269
0.226269
0.226269
0.226269
0.226269
0.226269
0.226269
0.226269
0.226269
0.226269
0.226269
0.226269
0.226269
0.226269
0.226269
0.226269
0.226269
0.226269
0.226269
0.226269
0.226269
0.226269
0.226269
0.226269
0.226269
0.226269
0.226269
0.226269
0.226269
0.226269
0.226269
0.226269
0.226269
0.226269
0.226269
0.226269
0.226269
0.226269
0.226269
0.226269
0.226269
0.226269
0.226269
0.226269
0.226269
0.226269
0.226269
0.226269
0.226269
0.226269
0.226269
0.226269
0.226269
0.226269
0.226269
0.226269
0.226269
0.226269
0.226269
0.226269
0.226269
0.226269
0.226269
0.226269
0.226269
0.226269
0.226269
0.226269
0.226269
0.226269
0.226269
0.226269
0.226269
0.226269
0.226269
0.226269
0.226269
0.226269
0.226269
0.226269
0.226269
0.226269
0.226269
0.226269
0.226269
0.226269
0.226269
0.226269
0.226269
0.226269
0.226269
0.226269
0.226269
0.226269
0.226269
0.226269
0.226269
0.226269
0.226269
0.226269
0.226269
0.226269
0.226269
0.226269
0.226269
0.226269
0.226269
0.226269
0.226269
0.226269
0.226269
0.226269
0.226269
0.226269
0.226269
0.226269
0.226269
0.226269
0.226269
0.226269
0.226269
0.226269
0.226269
0.226269
0.226269
0.226269
0.226269
0.226269
0.226269
0.226269
0.226269
0.226269
0.226269
0.226269
0.226269
0.226269
0.226269
0.226269
0.226269
0.226269
0.226269
0.226269
0.226269
0.226269
0.226269
0.226269
0.226269
0.226269
0.226269
0.226269
0.226269
0.226269
0.226269
0.226269
0.226269
0.226269
0.226269
0.226269
0.226269
0.226269
0.226269
0.226269
0.226269
0.226269
0.226269
0.226269
0.226269
0.226269
0.226269
0.226269
0.226269
0.226269
0.226269
0.226269
0.226269
0.226269
0.226269
0.226269
0.22627
0.22627
0.226272
0.226275
0.226278
0.226275
0.226232
0.22601
0.225142
0.222485
0.216088
0.205088
0.190734
0.172493
0.149471
0.123622
0.0993966
0.0804101
0.0633471
0.0533644
0.0466192
0.0420437
0.0388743
0.0366048
0.034912
0.0335935
0.0325229
0.0316213
0.030839
0.0301441
0.0295156
0.0289397
0.0284067
0.0279098
0.0274439
0.0270052
0.0265905
0.0261976
0.0258242
0.0254689
0.0251301
0.0248066
0.0244975
0.0242022
0.0239287
0.0236693
0.0234186
0.023176
0.0229411
0.0227136
0.022493
0.0222789
0.0220711
0.0218692
0.0216729
0.0214819
0.021296
0.0211149
0.0209385
0.0207664
0.0205984
0.0204344
0.0202742
0.0201176
0.0199644
0.0198145
0.0196677
0.0195239
0.0193829
0.0192446
0.019109
0.0189759
0.0188452
0.0187168
0.0185907
0.0184667
0.0183448
0.0182249
0.018107
0.017991
0.0178768
0.0177644
0.0176537
0.0175448
0.0174375
0.0173319
0.0172278
0.0171253
0.0170243
0.0169248
0.0168267
0.0167301
0.0166348
0.0165409
0.0164483
0.016357
0.016267
0.0161782
0.0160905
0.0160041
0.0159187
0.0158344
0.0157511
0.0156689
0.0155876
0.0155071
0.0154274
0.0153484
0.0152704
0.0151936
0.0151177
0.0150426
0.0149683
0.0148947
0.0148218
0.0147497
0.0146781
0.0146072
0.0145368
0.014467
0.0143977
0.0143289
0.0142605
0.0141926
0.014125
0.0140577
0.0139908
0.0139241
0.0138576
0.0137913
0.0137251
0.013659
0.0135929
0.0135268
0.0134606
0.0133944
0.013328
0.0132611
0.0131937
0.0131283
0.0130384
0.0129713
0.012903
0.0128334
0.0127626
0.0126906
0.0126174
0.012543
0.0124673
0.0123902
0.0123117
0.0122317
0.0121501
0.0120669
0.0119821
0.0118955
0.0118071
0.0117169
0.0116248
0.0115308
0.0114349
0.011337
0.0112372
0.0111354
0.0110316
0.010926
0.0108185
0.0107091
0.0105981
0.0104853
0.010371
0.0102552
0.0101381
0.0100198
0.00990045
0.00978024
0.00965933
0.00953792
0.00941619
0.00929437
0.00917266
0.00905129
0.00893048
0.00881046
0.00869147
0.00857373
0.00845746
0.0083429
0.00823027
0.00811978
0.00801163
0.00790601
0.00780313
0.00770314
0.00760621
0.00751249
0.00742212
0.0073352
0.00725186
0.00717217
0.00709622
0.00702406
0.00695573
0.00689128
0.00683071
0.00677402
0.00672122
0.00667226
0.00662712
0.00658576
0.0065481
0.00651409
0.00648365
0.00645669
0.00643311
0.00641283
0.00639572
0.00638169
0.00637059
0.00636231
0.00635671
0.00635365
0.00635298
0.00635452
0.00635809
0.00636349
0.00637045
0.00637867
0.00638771
0.00639697
0.00640546
0.00641146
)
;

boundaryField
{
    boundary
    {
        type            empty;
    }
    inlet
    {
        type            fixedValue;
        value           uniform 0.226269;
    }
    outlet
    {
        type            zeroGradient;
    }
}


// ************************************************************************* //
