/*--------------------------------*- C++ -*----------------------------------*\
  =========                 |
  \\      /  F ield         | OpenFOAM: The Open Source CFD Toolbox
   \\    /   O peration     | Website:  https://openfoam.org
    \\  /    A nd           | Version:  7
     \\/     M anipulation  |
\*---------------------------------------------------------------------------*/
FoamFile
{
    version     2.0;
    format      ascii;
    class       surfaceScalarField;
    location    "0.0005";
    object      phi;
}
// * * * * * * * * * * * * * * * * * * * * * * * * * * * * * * * * * * * * * //

dimensions      [1 0 -1 0 0 0 0];

internalField   nonuniform List<scalar> 
499
(
6.93582e-06
6.93553e-06
6.93523e-06
6.93494e-06
6.93465e-06
6.93436e-06
6.93407e-06
6.93378e-06
6.93349e-06
6.93319e-06
6.93288e-06
6.93256e-06
6.93223e-06
6.93188e-06
6.93151e-06
6.9311e-06
6.93066e-06
6.93017e-06
6.92963e-06
6.92902e-06
6.92835e-06
6.9276e-06
6.92676e-06
6.92582e-06
6.92479e-06
6.92365e-06
6.92242e-06
6.92108e-06
6.91965e-06
6.91814e-06
6.91655e-06
6.91491e-06
6.91322e-06
6.9115e-06
6.90978e-06
6.90807e-06
6.90639e-06
6.90476e-06
6.90319e-06
6.9017e-06
6.9003e-06
6.89899e-06
6.89778e-06
6.89668e-06
6.89568e-06
6.89477e-06
6.89396e-06
6.89324e-06
6.8926e-06
6.89203e-06
6.89153e-06
6.89109e-06
6.89069e-06
6.89034e-06
6.89002e-06
6.88973e-06
6.88947e-06
6.88923e-06
6.889e-06
6.88878e-06
6.88857e-06
6.88837e-06
6.88818e-06
6.88799e-06
6.8878e-06
6.88762e-06
6.88744e-06
6.88725e-06
6.88707e-06
6.88689e-06
6.88672e-06
6.88654e-06
6.88636e-06
6.88618e-06
6.886e-06
6.88583e-06
6.88565e-06
6.88547e-06
6.88529e-06
6.88512e-06
6.88494e-06
6.88476e-06
6.88459e-06
6.88441e-06
6.88423e-06
6.88406e-06
6.88388e-06
6.88371e-06
6.88353e-06
6.88335e-06
6.88318e-06
6.883e-06
6.88283e-06
6.88265e-06
6.88248e-06
6.8823e-06
6.88213e-06
6.88195e-06
6.88178e-06
6.8816e-06
6.88143e-06
6.88126e-06
6.88108e-06
6.88091e-06
6.88073e-06
6.88056e-06
6.88039e-06
6.88021e-06
6.88004e-06
6.87987e-06
6.8797e-06
6.87952e-06
6.87935e-06
6.87918e-06
6.87901e-06
6.87883e-06
6.87866e-06
6.87849e-06
6.87832e-06
6.87815e-06
6.87797e-06
6.8778e-06
6.87763e-06
6.87746e-06
6.87729e-06
6.87712e-06
6.87695e-06
6.87678e-06
6.8766e-06
6.87643e-06
6.87626e-06
6.87609e-06
6.87592e-06
6.87575e-06
6.87558e-06
6.87541e-06
6.87524e-06
6.87507e-06
6.8749e-06
6.87473e-06
6.87457e-06
6.8744e-06
6.87423e-06
6.87406e-06
6.8739e-06
6.87373e-06
6.87356e-06
6.8734e-06
6.87323e-06
6.87306e-06
6.8729e-06
6.87273e-06
6.87257e-06
6.8724e-06
6.87224e-06
6.87207e-06
6.87191e-06
6.87174e-06
6.87158e-06
6.87141e-06
6.87125e-06
6.87108e-06
6.87092e-06
6.87076e-06
6.87059e-06
6.87043e-06
6.87027e-06
6.87011e-06
6.86995e-06
6.86978e-06
6.86962e-06
6.86946e-06
6.8693e-06
6.86914e-06
6.86898e-06
6.86883e-06
6.86867e-06
6.86851e-06
6.86835e-06
6.8682e-06
6.86804e-06
6.86789e-06
6.86773e-06
6.86758e-06
6.86742e-06
6.86727e-06
6.86712e-06
6.86697e-06
6.86682e-06
6.86667e-06
6.86652e-06
6.86637e-06
6.86622e-06
6.86608e-06
6.86593e-06
6.86579e-06
6.86564e-06
6.8655e-06
6.86536e-06
6.86521e-06
6.86507e-06
6.86494e-06
6.8648e-06
6.86466e-06
6.86452e-06
6.86439e-06
6.86426e-06
6.86412e-06
6.86399e-06
6.86386e-06
6.86373e-06
6.8636e-06
6.86348e-06
6.86335e-06
6.86323e-06
6.86311e-06
6.86299e-06
6.86287e-06
6.86275e-06
6.86263e-06
6.86252e-06
6.86241e-06
6.86229e-06
6.86218e-06
6.86207e-06
6.86197e-06
6.86186e-06
6.86176e-06
6.86165e-06
6.86155e-06
6.86146e-06
6.86136e-06
6.86126e-06
6.86117e-06
6.86107e-06
6.86098e-06
6.86089e-06
6.86081e-06
6.86072e-06
6.86064e-06
6.86055e-06
6.86047e-06
6.86039e-06
6.86031e-06
6.86023e-06
6.86016e-06
6.86009e-06
6.86001e-06
6.85994e-06
6.85987e-06
6.8598e-06
6.85974e-06
6.85967e-06
6.8596e-06
6.85953e-06
6.85947e-06
6.8594e-06
6.85934e-06
6.85928e-06
6.85922e-06
6.85916e-06
6.8591e-06
6.85905e-06
6.85899e-06
6.85894e-06
6.85889e-06
6.85884e-06
6.85879e-06
6.85874e-06
6.85872e-06
6.85875e-06
6.85896e-06
6.8597e-06
6.86205e-06
6.86895e-06
6.88786e-06
6.93109e-06
6.99866e-06
7.06399e-06
7.10961e-06
7.13897e-06
7.15881e-06
7.17288e-06
7.18293e-06
7.19009e-06
7.19518e-06
7.19889e-06
7.20169e-06
7.20389e-06
7.20567e-06
7.20714e-06
7.20838e-06
7.20945e-06
7.21038e-06
7.2112e-06
7.21193e-06
7.21258e-06
7.21317e-06
7.21372e-06
7.21421e-06
7.21467e-06
7.21509e-06
7.21548e-06
7.21584e-06
7.21618e-06
7.2165e-06
7.2168e-06
7.21708e-06
7.21734e-06
7.21759e-06
7.21782e-06
7.21804e-06
7.21824e-06
7.21842e-06
7.2186e-06
7.21876e-06
7.21892e-06
7.21907e-06
7.21921e-06
7.21934e-06
7.21947e-06
7.21959e-06
7.2197e-06
7.2198e-06
7.21991e-06
7.22e-06
7.22009e-06
7.22018e-06
7.22026e-06
7.22034e-06
7.22042e-06
7.22049e-06
7.22056e-06
7.22063e-06
7.2207e-06
7.22076e-06
7.22083e-06
7.22089e-06
7.22095e-06
7.22101e-06
7.22107e-06
7.22112e-06
7.22118e-06
7.22123e-06
7.22128e-06
7.22134e-06
7.22139e-06
7.22143e-06
7.22148e-06
7.22153e-06
7.22157e-06
7.22162e-06
7.22166e-06
7.2217e-06
7.22173e-06
7.22177e-06
7.2218e-06
7.22184e-06
7.22187e-06
7.22189e-06
7.22192e-06
7.22194e-06
7.22197e-06
7.22199e-06
7.22201e-06
7.22202e-06
7.22204e-06
7.22205e-06
7.22206e-06
7.22206e-06
7.22207e-06
7.22207e-06
7.22207e-06
7.22207e-06
7.22207e-06
7.22206e-06
7.22205e-06
7.22204e-06
7.22203e-06
7.22201e-06
7.22199e-06
7.22196e-06
7.22193e-06
7.2219e-06
7.22187e-06
7.22183e-06
7.22179e-06
7.22174e-06
7.2217e-06
7.22164e-06
7.22159e-06
7.22153e-06
7.22147e-06
7.22141e-06
7.22135e-06
7.22128e-06
7.22121e-06
7.22115e-06
7.22109e-06
7.22102e-06
7.22096e-06
7.22091e-06
7.22085e-06
7.22081e-06
7.22079e-06
7.22075e-06
7.22041e-06
7.21991e-06
7.2196e-06
7.21974e-06
7.21982e-06
7.21988e-06
7.21994e-06
7.22001e-06
7.22008e-06
7.22017e-06
7.22027e-06
7.22038e-06
7.22052e-06
7.22067e-06
7.22084e-06
7.22104e-06
7.22125e-06
7.2215e-06
7.22176e-06
7.22205e-06
7.22237e-06
7.2227e-06
7.22306e-06
7.22343e-06
7.22382e-06
7.22422e-06
7.22463e-06
7.22503e-06
7.22543e-06
7.22582e-06
7.22619e-06
7.22654e-06
7.22684e-06
7.2271e-06
7.2273e-06
7.22743e-06
7.22748e-06
7.22744e-06
7.22729e-06
7.22701e-06
7.2266e-06
7.22604e-06
7.22532e-06
7.22441e-06
7.22331e-06
7.222e-06
7.22047e-06
7.2187e-06
7.21668e-06
7.2144e-06
7.21186e-06
7.20904e-06
7.20593e-06
7.20254e-06
7.19885e-06
7.19487e-06
7.19061e-06
7.18605e-06
7.18122e-06
7.17611e-06
7.17075e-06
7.16513e-06
7.15929e-06
7.15323e-06
7.14698e-06
7.14056e-06
7.13399e-06
7.1273e-06
7.12051e-06
7.11367e-06
7.10678e-06
7.09989e-06
7.09302e-06
7.0862e-06
7.07947e-06
7.07285e-06
7.06637e-06
7.06005e-06
7.05393e-06
7.04802e-06
7.04236e-06
7.03695e-06
7.03182e-06
7.02699e-06
7.02247e-06
7.01826e-06
7.01438e-06
7.01084e-06
7.00763e-06
7.00476e-06
7.00222e-06
6.99998e-06
6.998e-06
)
;

boundaryField
{
    boundary
    {
        type            empty;
        value           nonuniform 0();
    }
    inlet
    {
        type            calculated;
        value           uniform -6.9361e-06;
    }
    outlet
    {
        type            calculated;
        value           uniform 6.9962e-06;
    }
}


// ************************************************************************* //
