/*--------------------------------*- C++ -*----------------------------------*\
  =========                 |
  \\      /  F ield         | OpenFOAM: The Open Source CFD Toolbox
   \\    /   O peration     | Website:  https://openfoam.org
    \\  /    A nd           | Version:  7
     \\/     M anipulation  |
\*---------------------------------------------------------------------------*/
FoamFile
{
    version     2.0;
    format      ascii;
    class       volScalarField;
    location    "0.0005";
    object      Qdot;
}
// * * * * * * * * * * * * * * * * * * * * * * * * * * * * * * * * * * * * * //

dimensions      [1 -1 -3 0 0 0 0];

internalField   nonuniform List<scalar> 
500
(
-2.4564e-27
-1.86899e-27
-1.74434e-27
-1.71936e-27
-1.71582e-27
-1.7169e-27
-1.71901e-27
-1.72141e-27
-1.72395e-27
-1.72667e-27
-1.72961e-27
-1.73284e-27
-1.73648e-27
-1.74063e-27
-1.74543e-27
-1.75105e-27
-1.75766e-27
-1.76546e-27
-1.77465e-27
-1.78548e-27
-1.79815e-27
-1.81289e-27
-1.82992e-27
-1.84943e-27
-1.87158e-27
-1.89649e-27
-1.92422e-27
-1.95478e-27
-1.98809e-27
-2.02401e-27
-2.06231e-27
-2.10267e-27
-2.14471e-27
-2.18798e-27
-2.23197e-27
-2.27613e-27
-2.31991e-27
-2.36275e-27
-2.40413e-27
-2.44358e-27
-2.4807e-27
-2.51517e-27
-2.54676e-27
-2.57533e-27
-2.60083e-27
-2.62332e-27
-2.64288e-27
-2.65969e-27
-2.67397e-27
-2.68594e-27
-2.69585e-27
-2.70398e-27
-2.71056e-27
-2.71582e-27
-2.71999e-27
-2.72325e-27
-2.72578e-27
-2.72772e-27
-2.72919e-27
-2.7303e-27
-2.73112e-27
-2.73173e-27
-2.73217e-27
-2.73249e-27
-2.73272e-27
-2.73289e-27
-2.733e-27
-2.73309e-27
-2.73315e-27
-2.73319e-27
-2.73323e-27
-2.73325e-27
-2.73327e-27
-2.73329e-27
-2.73331e-27
-2.73332e-27
-2.73334e-27
-2.73335e-27
-2.73337e-27
-2.73339e-27
-2.7334e-27
-2.73342e-27
-2.73344e-27
-2.73346e-27
-2.73349e-27
-2.73351e-27
-2.73354e-27
-2.73356e-27
-2.73359e-27
-2.73362e-27
-2.73365e-27
-2.73369e-27
-2.73372e-27
-2.73376e-27
-2.7338e-27
-2.73384e-27
-2.73388e-27
-2.73392e-27
-2.73397e-27
-2.73402e-27
-2.73407e-27
-2.73412e-27
-2.73418e-27
-2.73423e-27
-2.73429e-27
-2.73436e-27
-2.73442e-27
-2.73449e-27
-2.73456e-27
-2.73463e-27
-2.73471e-27
-2.73478e-27
-2.73486e-27
-2.73495e-27
-2.73503e-27
-2.73512e-27
-2.73521e-27
-2.73531e-27
-2.73541e-27
-2.73551e-27
-2.73561e-27
-2.73571e-27
-2.73581e-27
-2.73587e-27
-2.7358e-27
-2.73565e-27
-2.73588e-27
-2.73609e-27
-2.73631e-27
-2.73652e-27
-2.73672e-27
-2.7369e-27
-2.73707e-27
-2.73723e-27
-2.73738e-27
-2.73752e-27
-2.73767e-27
-2.73781e-27
-2.73796e-27
-2.73811e-27
-2.73826e-27
-2.73841e-27
-2.73856e-27
-2.73872e-27
-2.73887e-27
-2.73903e-27
-2.73919e-27
-2.73935e-27
-2.73951e-27
-2.73967e-27
-2.73984e-27
-2.74001e-27
-2.74018e-27
-2.74035e-27
-2.74053e-27
-2.74071e-27
-2.74089e-27
-2.74107e-27
-2.74126e-27
-2.74145e-27
-2.74164e-27
-2.74183e-27
-2.74202e-27
-2.74222e-27
-2.7424e-27
-2.74259e-27
-2.74278e-27
-2.74295e-27
-2.74313e-27
-2.7433e-27
-2.74346e-27
-2.74362e-27
-2.74377e-27
-2.74391e-27
-2.74405e-27
-2.74417e-27
-2.74429e-27
-2.7444e-27
-2.7445e-27
-2.74458e-27
-2.74466e-27
-2.74472e-27
-2.74478e-27
-2.74482e-27
-2.74484e-27
-2.74486e-27
-2.74485e-27
-2.74484e-27
-2.7448e-27
-2.74475e-27
-2.74469e-27
-2.7446e-27
-2.74449e-27
-2.74437e-27
-2.74422e-27
-2.74405e-27
-2.74386e-27
-2.74365e-27
-2.74341e-27
-2.74314e-27
-2.74285e-27
-2.74253e-27
-2.74218e-27
-2.74181e-27
-2.7414e-27
-2.74096e-27
-2.74049e-27
-2.73999e-27
-2.73946e-27
-2.73888e-27
-2.73827e-27
-2.73761e-27
-2.73685e-27
-2.73577e-27
-2.73355e-27
-2.72678e-27
-2.70174e-27
-2.60374e-27
-2.21662e-27
-6.93659e-28
5.25185e-27
2.82624e-26
1.16528e-25
4.52074e-25
1.71624e-24
6.43641e-24
2.39035e-23
8.79673e-23
3.2086e-22
1.16009e-21
4.15802e-21
1.47754e-20
5.20587e-20
1.81887e-19
6.30256e-19
2.16624e-18
7.38661e-18
2.49932e-17
8.39361e-17
2.79876e-16
9.26949e-16
3.05107e-15
9.98759e-15
3.25441e-14
1.0568e-13
3.42503e-13
1.11e-12
3.60619e-12
1.17824e-11
3.8875e-11
1.30188e-10
4.47269e-10
1.57289e-09
5.69536e-09
2.13525e-08
8.30248e-08
3.34311e-07
1.38865e-06
5.91951e-06
2.57558e-05
0.000113836
0.000509067
0.00229681
0.010436
0.0477139
0.219546
1.01793
4.76784
22.6541
117.58
667.667
4681.81
35347.1
300621
2.7973e+06
2.67152e+07
2.39174e+08
1.62827e+09
6.10131e+09
1.15165e+10
1.36514e+10
1.39135e+10
1.39441e+10
1.36674e+10
1.26145e+10
1.0815e+10
8.7974e+09
7.14346e+09
5.90619e+09
4.95999e+09
4.2389e+09
3.68138e+09
3.24192e+09
2.88852e+09
2.59893e+09
2.3576e+09
2.15353e+09
1.97879e+09
1.82753e+09
1.69538e+09
1.579e+09
1.47578e+09
1.38366e+09
1.301e+09
1.22645e+09
1.15893e+09
1.09753e+09
1.04149e+09
9.90168e+08
9.43035e+08
8.99648e+08
8.59685e+08
8.23764e+08
7.90917e+08
7.60057e+08
7.31121e+08
7.0392e+08
6.78309e+08
6.54154e+08
6.3134e+08
6.09766e+08
5.89341e+08
5.69978e+08
5.51601e+08
5.34143e+08
5.17539e+08
5.01732e+08
4.86669e+08
4.72302e+08
4.58586e+08
4.45482e+08
4.32949e+08
4.20956e+08
4.09469e+08
3.98458e+08
3.87897e+08
3.77761e+08
3.68025e+08
3.58667e+08
3.49669e+08
3.41009e+08
3.32671e+08
3.24639e+08
3.16896e+08
3.09429e+08
3.02225e+08
2.95268e+08
2.88551e+08
2.8206e+08
2.75785e+08
2.69716e+08
2.63844e+08
2.58161e+08
2.52658e+08
2.47327e+08
2.42161e+08
2.37154e+08
2.32298e+08
2.27587e+08
2.23016e+08
2.1858e+08
2.14272e+08
2.10087e+08
2.06021e+08
2.0207e+08
1.98229e+08
1.94494e+08
1.90861e+08
1.87327e+08
1.83887e+08
1.8054e+08
1.77281e+08
1.74109e+08
1.71024e+08
1.68029e+08
1.65131e+08
1.62293e+08
1.59463e+08
1.56715e+08
1.54042e+08
1.51438e+08
1.48898e+08
1.46419e+08
1.43999e+08
1.41635e+08
1.39327e+08
1.37071e+08
1.34867e+08
1.32712e+08
1.30606e+08
1.28547e+08
1.26534e+08
1.24565e+08
1.22639e+08
1.20755e+08
1.18911e+08
1.17107e+08
1.15341e+08
1.13613e+08
1.11921e+08
1.10265e+08
1.08644e+08
1.07059e+08
1.05511e+08
1.04008e+08
1.02554e+08
1.01074e+08
9.97721e+07
9.76046e+07
9.64367e+07
9.51631e+07
9.38659e+07
9.2572e+07
9.12925e+07
9.00309e+07
8.87885e+07
8.75653e+07
8.6361e+07
8.51751e+07
8.40071e+07
8.28563e+07
8.17221e+07
8.06038e+07
7.95007e+07
7.84122e+07
7.73373e+07
7.6276e+07
7.52263e+07
7.41882e+07
7.31608e+07
7.21434e+07
7.11351e+07
7.01351e+07
6.91426e+07
6.81569e+07
6.71771e+07
6.62025e+07
6.52323e+07
6.42658e+07
6.33024e+07
6.23402e+07
6.13808e+07
6.04222e+07
5.94639e+07
5.85054e+07
5.75462e+07
5.65859e+07
5.5624e+07
5.46604e+07
5.36946e+07
5.27265e+07
5.17559e+07
5.07828e+07
4.98071e+07
4.8829e+07
4.78479e+07
4.68652e+07
4.58803e+07
4.48937e+07
4.39056e+07
4.29165e+07
4.19268e+07
4.0937e+07
3.99475e+07
3.89589e+07
3.79716e+07
3.69864e+07
3.60038e+07
3.50243e+07
3.40486e+07
3.30774e+07
3.21112e+07
3.11507e+07
3.01966e+07
2.92496e+07
2.83103e+07
2.73796e+07
2.64579e+07
2.55461e+07
2.4645e+07
2.37552e+07
2.28775e+07
2.20126e+07
2.11614e+07
2.03244e+07
1.95024e+07
1.86961e+07
1.7906e+07
1.71327e+07
1.63764e+07
1.5638e+07
1.49172e+07
1.42146e+07
1.35292e+07
1.28611e+07
1.22093e+07
1.15741e+07
1.09593e+07
1.03834e+07
9.94149e+06
)
;

boundaryField
{
    boundary
    {
        type            empty;
    }
    inlet
    {
        type            calculated;
        value           uniform 0;
    }
    outlet
    {
        type            calculated;
        value           uniform 0;
    }
}


// ************************************************************************* //
