/*--------------------------------*- C++ -*----------------------------------*\
  =========                 |
  \\      /  F ield         | OpenFOAM: The Open Source CFD Toolbox
   \\    /   O peration     | Website:  https://openfoam.org
    \\  /    A nd           | Version:  7
     \\/     M anipulation  |
\*---------------------------------------------------------------------------*/
FoamFile
{
    version     2.0;
    format      ascii;
    class       volScalarField;
    location    "0.0005";
    object      rho;
}
// * * * * * * * * * * * * * * * * * * * * * * * * * * * * * * * * * * * * * //

dimensions      [1 -3 0 0 0 0 0];

internalField   nonuniform List<scalar> 
500
(
0.865409
0.865395
0.865381
0.865368
0.865354
0.865341
0.865328
0.865314
0.8653
0.865285
0.865268
0.86525
0.86523
0.865207
0.865181
0.86515
0.865114
0.865072
0.865022
0.864964
0.864896
0.864818
0.864729
0.864628
0.864514
0.864388
0.864249
0.864099
0.863937
0.863766
0.863587
0.863402
0.863212
0.863021
0.86283
0.862642
0.86246
0.862284
0.862117
0.86196
0.861815
0.861681
0.861561
0.861453
0.861357
0.861273
0.861201
0.861139
0.861087
0.861043
0.861007
0.860977
0.860953
0.860934
0.860919
0.860907
0.860898
0.86089
0.860885
0.860881
0.860878
0.860876
0.860874
0.860873
0.860872
0.860871
0.860871
0.86087
0.86087
0.86087
0.86087
0.860869
0.860869
0.860869
0.860869
0.860869
0.860869
0.860869
0.860869
0.860869
0.860868
0.860868
0.860868
0.860868
0.860868
0.860868
0.860868
0.860867
0.860867
0.860867
0.860867
0.860867
0.860867
0.860866
0.860866
0.860866
0.860866
0.860865
0.860865
0.860865
0.860865
0.860865
0.860864
0.860864
0.860864
0.860863
0.860863
0.860863
0.860862
0.860862
0.860862
0.860861
0.860861
0.860861
0.86086
0.86086
0.86086
0.860859
0.860859
0.860858
0.860858
0.860857
0.860857
0.860857
0.860857
0.860857
0.860856
0.860855
0.860855
0.860854
0.860853
0.860852
0.860852
0.860851
0.86085
0.86085
0.860849
0.860849
0.860848
0.860847
0.860847
0.860846
0.860845
0.860845
0.860844
0.860843
0.860843
0.860842
0.860841
0.860841
0.86084
0.860839
0.860839
0.860838
0.860837
0.860836
0.860836
0.860835
0.860834
0.860833
0.860833
0.860832
0.860831
0.86083
0.86083
0.860829
0.860828
0.860827
0.860826
0.860826
0.860825
0.860824
0.860824
0.860823
0.860823
0.860822
0.860821
0.860821
0.86082
0.86082
0.86082
0.860819
0.860819
0.860819
0.860818
0.860818
0.860818
0.860818
0.860818
0.860818
0.860818
0.860818
0.860819
0.860819
0.860819
0.86082
0.86082
0.860821
0.860822
0.860822
0.860823
0.860824
0.860825
0.860826
0.860828
0.860829
0.860831
0.860832
0.860834
0.860836
0.860838
0.86084
0.860842
0.860844
0.860847
0.860849
0.860852
0.860855
0.860858
0.860861
0.860865
0.860868
0.860872
0.860876
0.86088
0.860884
0.860888
0.860893
0.860897
0.860902
0.860907
0.860912
0.860918
0.860923
0.860929
0.860934
0.86094
0.860946
0.860953
0.860959
0.860966
0.860972
0.860979
0.860986
0.860993
0.861
0.861008
0.861015
0.861023
0.861031
0.86104
0.861049
0.861057
0.861065
0.861073
0.861081
0.861089
0.861097
0.861106
0.861114
0.861123
0.861132
0.861141
0.86115
0.86116
0.86117
0.86118
0.861189
0.861194
0.86118
0.861102
0.860818
0.859903
0.857091
0.848753
0.825215
0.766268
0.654764
0.51858
0.40779
0.334297
0.28599
0.252446
0.22855
0.21185
0.1995
0.189979
0.18314
0.178091
0.174036
0.170709
0.167918
0.165532
0.163463
0.161644
0.160029
0.158583
0.157278
0.156092
0.155008
0.154013
0.153096
0.152246
0.151456
0.15072
0.150031
0.149385
0.148778
0.148206
0.147667
0.147157
0.146675
0.146231
0.145816
0.145417
0.145034
0.144666
0.144312
0.143972
0.143644
0.143327
0.143021
0.142726
0.14244
0.142164
0.141897
0.141637
0.141386
0.141142
0.140905
0.140675
0.140452
0.140235
0.140023
0.139818
0.139617
0.139422
0.139232
0.139047
0.138866
0.138689
0.138517
0.138349
0.138184
0.138024
0.137867
0.137713
0.137563
0.137416
0.137272
0.137131
0.136993
0.136858
0.136725
0.136595
0.136468
0.136343
0.13622
0.1361
0.135982
0.135865
0.135752
0.13564
0.13553
0.135422
0.135315
0.135211
0.135108
0.135007
0.134907
0.134809
0.134713
0.134618
0.134525
0.134433
0.134343
0.134254
0.134166
0.134079
0.133994
0.13391
0.133826
0.133745
0.133664
0.133584
0.133505
0.133428
0.133351
0.133275
0.1332
0.133127
0.133054
0.132982
0.132911
0.13284
0.132771
0.132703
0.132635
0.132568
0.132503
0.132438
0.132373
0.13231
0.132248
0.132186
0.132125
0.132065
0.132005
0.131933
0.131875
0.13182
0.131765
0.131711
0.131658
0.131605
0.131553
0.131502
0.131452
0.131403
0.131355
0.131308
0.131262
0.131217
0.131172
0.131129
0.131087
0.131045
0.131005
0.130965
0.130926
0.130888
0.13085
0.130813
0.130776
0.13074
0.130704
0.130668
0.130631
0.130595
0.130557
0.130519
0.130481
0.130441
0.130399
0.130356
0.130311
0.130265
0.130215
0.130163
0.130109
0.130051
0.129989
0.129925
0.129856
0.129784
0.129707
0.129626
0.129541
0.129451
0.129357
0.129258
0.129155
0.129047
0.128936
0.12882
0.1287
0.128576
0.128449
0.128319
0.128186
0.128051
0.127913
0.127775
0.127635
0.127495
0.127354
0.127214
0.127075
0.126938
0.126803
0.12667
0.12654
0.126413
0.126291
0.126173
0.126059
0.12595
0.125847
0.125749
0.125656
0.125569
0.125488
0.125413
0.125343
0.125278
0.125219
0.125164
0.125115
0.125074
0.125046
)
;

boundaryField
{
    boundary
    {
        type            empty;
    }
    inlet
    {
        type            calculated;
        value           uniform 0.865418;
    }
    outlet
    {
        type            calculated;
        value           uniform 0.125046;
    }
}


// ************************************************************************* //
