/*--------------------------------*- C++ -*----------------------------------*\
  =========                 |
  \\      /  F ield         | OpenFOAM: The Open Source CFD Toolbox
   \\    /   O peration     | Website:  https://openfoam.org
    \\  /    A nd           | Version:  7
     \\/     M anipulation  |
\*---------------------------------------------------------------------------*/
FoamFile
{
    version     2.0;
    format      ascii;
    class       volScalarField;
    location    "0.00045";
    object      H2O2;
}
// * * * * * * * * * * * * * * * * * * * * * * * * * * * * * * * * * * * * * //

dimensions      [0 0 0 0 0 0 0];

internalField   nonuniform List<scalar> 
125
(
8.60183e-21
3.83743e-20
1.6956e-19
7.446e-19
3.25349e-18
1.41551e-17
6.13566e-17
2.65112e-16
1.14242e-15
4.91177e-15
2.10785e-14
9.03193e-14
3.86539e-13
1.65269e-12
7.06123e-12
3.01539e-11
1.28724e-10
5.49404e-10
2.34474e-09
1.00065e-08
4.26953e-08
1.81972e-07
7.72215e-07
3.22522e-06
1.27495e-05
4.24537e-05
9.29327e-05
0.000123116
0.000109837
6.24503e-05
2.6713e-05
1.07876e-05
5.55356e-06
4.43382e-06
4.68615e-06
5.38739e-06
5.96854e-06
6.39342e-06
6.6485e-06
6.76044e-06
6.76471e-06
6.69318e-06
6.57084e-06
6.41604e-06
6.2418e-06
6.0572e-06
5.86842e-06
5.67965e-06
5.49369e-06
5.31237e-06
5.13682e-06
4.96772e-06
4.80542e-06
4.65006e-06
4.50162e-06
4.35996e-06
4.22489e-06
4.09619e-06
3.97361e-06
3.85692e-06
3.74593e-06
3.64363e-06
3.54742e-06
3.45509e-06
3.36647e-06
3.28135e-06
3.19958e-06
3.12098e-06
3.04541e-06
2.97273e-06
2.90278e-06
2.83546e-06
2.77062e-06
2.70815e-06
2.64795e-06
2.5899e-06
2.53391e-06
2.47987e-06
2.42772e-06
2.37734e-06
2.32868e-06
2.28165e-06
2.23617e-06
2.19219e-06
2.14963e-06
2.10843e-06
2.06854e-06
2.0299e-06
1.99245e-06
1.95614e-06
1.92094e-06
1.88678e-06
1.85363e-06
1.82145e-06
1.7902e-06
1.75984e-06
1.73034e-06
1.70165e-06
1.67376e-06
1.64663e-06
1.62023e-06
1.59453e-06
1.56951e-06
1.54514e-06
1.5214e-06
1.49826e-06
1.47571e-06
1.45373e-06
1.43229e-06
1.41137e-06
1.39096e-06
1.37104e-06
1.35159e-06
1.33261e-06
1.31406e-06
1.29594e-06
1.27824e-06
1.26094e-06
1.24402e-06
1.22748e-06
1.2113e-06
1.19547e-06
1.17997e-06
1.1648e-06
1.14994e-06
)
;

boundaryField
{
    boundary
    {
        type            empty;
    }
    inlet
    {
        type            fixedValue;
        value           nonuniform 0();
    }
    outlet
    {
        type            zeroGradient;
    }
    procBoundary1to0
    {
        type            processor;
        value           uniform 1.13537e-06;
    }
    procBoundary1to3
    {
        type            processor;
        value           uniform 1.90267e-21;
    }
}


// ************************************************************************* //
