/*--------------------------------*- C++ -*----------------------------------*\
  =========                 |
  \\      /  F ield         | OpenFOAM: The Open Source CFD Toolbox
   \\    /   O peration     | Website:  https://openfoam.org
    \\  /    A nd           | Version:  7
     \\/     M anipulation  |
\*---------------------------------------------------------------------------*/
FoamFile
{
    version     2.0;
    format      ascii;
    class       volScalarField;
    location    "0.00045";
    object      p;
}
// * * * * * * * * * * * * * * * * * * * * * * * * * * * * * * * * * * * * * //

dimensions      [1 -1 -2 0 0 0 0];

internalField   nonuniform List<scalar> 
125
(
103197
103197
103197
103197
103197
103197
103197
103197
103197
103197
103197
103197
103197
103197
103197
103197
103197
103197
103197
103197
103197
103197
103197
103197
103197
103197
103197
103196
103194
103192
103190
103187
103185
103183
103181
103180
103179
103178
103177
103177
103176
103176
103175
103175
103175
103174
103174
103174
103174
103173
103173
103173
103173
103173
103172
103172
103172
103172
103172
103172
103172
103172
103172
103171
103171
103171
103171
103171
103171
103171
103171
103171
103171
103171
103171
103171
103171
103170
103170
103170
103170
103170
103170
103170
103170
103170
103170
103170
103170
103170
103170
103170
103170
103170
103170
103170
103170
103170
103170
103170
103169
103169
103169
103169
103169
103169
103169
103169
103169
103169
103169
103169
103169
103169
103169
103169
103169
103169
103169
103169
103169
103169
103169
103169
103169
)
;

boundaryField
{
    boundary
    {
        type            empty;
    }
    inlet
    {
        type            zeroGradient;
    }
    outlet
    {
        type            waveTransmissive;
        gamma           1.4;
        value           nonuniform 0();
    }
    procBoundary1to0
    {
        type            processor;
        value           uniform 103169;
    }
    procBoundary1to3
    {
        type            processor;
        value           uniform 103197;
    }
}


// ************************************************************************* //
