/*--------------------------------*- C++ -*----------------------------------*\
  =========                 |
  \\      /  F ield         | OpenFOAM: The Open Source CFD Toolbox
   \\    /   O peration     | Website:  https://openfoam.org
    \\  /    A nd           | Version:  7
     \\/     M anipulation  |
\*---------------------------------------------------------------------------*/
FoamFile
{
    version     2.0;
    format      ascii;
    class       volScalarField;
    location    "0.00045";
    object      T;
}
// * * * * * * * * * * * * * * * * * * * * * * * * * * * * * * * * * * * * * //

dimensions      [0 0 0 1 0 0 0];

internalField   nonuniform List<scalar> 
125
(
301.49
301.487
301.484
301.481
301.478
301.475
301.472
301.469
301.466
301.462
301.459
301.456
301.453
301.449
301.446
301.443
301.442
301.443
301.454
301.49
301.599
301.916
302.827
305.437
312.868
333.406
384.276
483.533
625.1
780.58
931.59
1073.36
1202.06
1311.07
1404.19
1482.87
1545.35
1594.97
1637.07
1673.26
1704.87
1732.84
1757.87
1780.47
1801.04
1819.88
1837.23
1853.3
1868.23
1882.17
1895.21
1907.46
1919
1929.89
1940.2
1949.97
1959.24
1968.07
1976.48
1984.49
1992.14
1999.23
2005.91
2012.37
2018.6
2024.63
2030.47
2036.12
2041.6
2046.91
2052.06
2057.07
2061.93
2066.66
2071.26
2075.74
2080.1
2084.35
2088.49
2092.53
2096.47
2100.32
2104.08
2107.75
2111.34
2114.85
2118.28
2121.64
2124.92
2128.14
2131.29
2134.38
2137.4
2140.37
2143.27
2146.12
2148.92
2151.67
2154.36
2157.01
2159.61
2162.16
2164.67
2167.13
2169.55
2171.93
2174.28
2176.58
2178.84
2181.07
2183.27
2185.43
2187.55
2189.65
2191.71
2193.74
2195.74
2197.71
2199.65
2201.57
2203.45
2205.31
2207.14
2208.94
2210.72
)
;

boundaryField
{
    boundary
    {
        type            empty;
    }
    inlet
    {
        type            fixedValue;
        value           nonuniform 0();
    }
    outlet
    {
        type            zeroGradient;
    }
    procBoundary1to0
    {
        type            processor;
        value           uniform 2212.47;
    }
    procBoundary1to3
    {
        type            processor;
        value           uniform 301.493;
    }
}


// ************************************************************************* //
