/*--------------------------------*- C++ -*----------------------------------*\
  =========                 |
  \\      /  F ield         | OpenFOAM: The Open Source CFD Toolbox
   \\    /   O peration     | Website:  https://openfoam.org
    \\  /    A nd           | Version:  7
     \\/     M anipulation  |
\*---------------------------------------------------------------------------*/
FoamFile
{
    version     2.0;
    format      ascii;
    class       volScalarField;
    location    "0.00018";
    object      H;
}
// * * * * * * * * * * * * * * * * * * * * * * * * * * * * * * * * * * * * * //

dimensions      [0 0 0 0 0 0 0];

internalField   nonuniform List<scalar> 
125
(
1.49235e-41
2.03428e-41
2.1698e-41
2.22417e-41
2.26784e-41
2.31641e-41
2.3737e-41
2.44074e-41
2.5174e-41
2.60257e-41
2.69412e-41
2.78905e-41
2.88385e-41
2.97492e-41
3.05906e-41
3.13383e-41
3.19779e-41
3.25052e-41
3.29247e-41
3.32472e-41
3.34872e-41
3.36604e-41
3.37816e-41
3.38641e-41
3.39188e-41
3.39542e-41
3.39764e-41
3.39901e-41
3.39984e-41
3.40032e-41
3.4006e-41
3.40077e-41
3.40086e-41
3.40091e-41
3.40095e-41
3.40097e-41
3.40099e-41
3.401e-41
3.40101e-41
3.40102e-41
3.40104e-41
3.40105e-41
3.40106e-41
3.40108e-41
3.4011e-41
3.40111e-41
3.40113e-41
3.40115e-41
3.40117e-41
3.40119e-41
3.40121e-41
3.40123e-41
3.40126e-41
3.40129e-41
3.40131e-41
3.40134e-41
3.40137e-41
3.4014e-41
3.40144e-41
3.40147e-41
3.40151e-41
3.40155e-41
3.40159e-41
3.40163e-41
3.40167e-41
3.40172e-41
3.40177e-41
3.40182e-41
3.40187e-41
3.40193e-41
3.40199e-41
3.40205e-41
3.40211e-41
3.40217e-41
3.40224e-41
3.40231e-41
3.40239e-41
3.40246e-41
3.40254e-41
3.40263e-41
3.40271e-41
3.4028e-41
3.4029e-41
3.40299e-41
3.40309e-41
3.40319e-41
3.4033e-41
3.40341e-41
3.40353e-41
3.40364e-41
3.40376e-41
3.40389e-41
3.40402e-41
3.40415e-41
3.40429e-41
3.40443e-41
3.40458e-41
3.40472e-41
3.40488e-41
3.40504e-41
3.4052e-41
3.40536e-41
3.40553e-41
3.40571e-41
3.40589e-41
3.40607e-41
3.40626e-41
3.40645e-41
3.40664e-41
3.40684e-41
3.40705e-41
3.40725e-41
3.40746e-41
3.40768e-41
3.4079e-41
3.40812e-41
3.40835e-41
3.40858e-41
3.40881e-41
3.40905e-41
3.40929e-41
3.40952e-41
3.40976e-41
3.40998e-41
3.41019e-41
)
;

boundaryField
{
    boundary
    {
        type            empty;
    }
    inlet
    {
        type            fixedValue;
        value           uniform 0;
    }
    outlet
    {
        type            zeroGradient;
    }
    procBoundary2to3
    {
        type            processor;
        value           uniform 3.41039e-41;
    }
}


// ************************************************************************* //
