/*--------------------------------*- C++ -*----------------------------------*\
  =========                 |
  \\      /  F ield         | OpenFOAM: The Open Source CFD Toolbox
   \\    /   O peration     | Website:  https://openfoam.org
    \\  /    A nd           | Version:  7
     \\/     M anipulation  |
\*---------------------------------------------------------------------------*/
FoamFile
{
    version     2.0;
    format      ascii;
    class       volScalarField;
    location    "0.0007";
    object      H2O;
}
// * * * * * * * * * * * * * * * * * * * * * * * * * * * * * * * * * * * * * //

dimensions      [0 0 0 0 0 0 0];

internalField   nonuniform List<scalar> 
126
(
2.1959e-45
2.19599e-45
2.19609e-45
2.19618e-45
2.19627e-45
2.19637e-45
2.19646e-45
2.19656e-45
2.19667e-45
2.19678e-45
2.19691e-45
2.19706e-45
2.19723e-45
2.19744e-45
2.19768e-45
2.19796e-45
2.19828e-45
2.19864e-45
2.19905e-45
2.19949e-45
2.19997e-45
2.20048e-45
2.201e-45
2.20153e-45
2.20207e-45
2.20258e-45
2.20308e-45
2.20355e-45
2.20397e-45
2.20436e-45
2.2047e-45
2.20499e-45
2.20524e-45
2.20544e-45
2.20561e-45
2.20575e-45
2.20586e-45
2.20595e-45
2.20603e-45
2.20611e-45
2.20619e-45
2.20628e-45
2.20638e-45
2.2065e-45
2.20664e-45
2.20679e-45
2.20697e-45
2.20717e-45
2.20739e-45
2.20763e-45
2.20788e-45
2.20815e-45
2.20842e-45
2.2087e-45
2.20898e-45
2.20926e-45
2.20954e-45
2.20981e-45
2.21007e-45
2.21032e-45
2.21056e-45
2.21079e-45
2.211e-45
2.21119e-45
2.21137e-45
2.21154e-45
2.21169e-45
2.21182e-45
2.21194e-45
2.21204e-45
2.21213e-45
2.21222e-45
2.21235e-45
2.21267e-45
2.21376e-45
2.21787e-45
2.23349e-45
2.29262e-45
2.51506e-45
3.3469e-45
6.43953e-45
1.78745e-44
5.99396e-44
2.13966e-43
7.75667e-43
2.81726e-42
1.02198e-41
3.70249e-41
1.34087e-40
4.86088e-40
1.76677e-39
6.44997e-39
2.36949e-38
8.77501e-38
3.28113e-37
1.24022e-36
4.74207e-36
1.83427e-35
7.174e-35
2.83409e-34
1.12931e-33
4.53173e-33
1.8283e-32
7.40427e-32
3.00574e-31
1.22161e-30
4.96588e-30
2.01747e-29
8.18683e-29
3.31698e-28
1.34145e-27
5.41429e-27
2.18083e-26
8.76631e-26
3.51688e-25
1.40827e-24
5.62942e-24
2.24673e-23
8.95402e-23
3.56397e-22
1.417e-21
5.62845e-21
2.23387e-20
8.86001e-20
3.51214e-19
1.3916e-18
)
;

boundaryField
{
    boundary
    {
        type            empty;
    }
    inlet
    {
        type            fixedValue;
        value           nonuniform 0();
    }
    outlet
    {
        type            zeroGradient;
    }
    procBoundary3to1
    {
        type            processor;
        value           uniform 5.54472e-18;
    }
    procBoundary3to2
    {
        type            processor;
        value           uniform 2.19923e-45;
    }
}


// ************************************************************************* //
