/*--------------------------------*- C++ -*----------------------------------*\
  =========                 |
  \\      /  F ield         | OpenFOAM: The Open Source CFD Toolbox
   \\    /   O peration     | Website:  https://openfoam.org
    \\  /    A nd           | Version:  7
     \\/     M anipulation  |
\*---------------------------------------------------------------------------*/
FoamFile
{
    version     2.0;
    format      ascii;
    class       volScalarField;
    location    "0.0007";
    object      H2O2;
}
// * * * * * * * * * * * * * * * * * * * * * * * * * * * * * * * * * * * * * //

dimensions      [0 0 0 0 0 0 0];

internalField   nonuniform List<scalar> 
126
(
4.50113e-49
4.50133e-49
4.50155e-49
4.50176e-49
4.50197e-49
4.50218e-49
4.5024e-49
4.50262e-49
4.50285e-49
4.5031e-49
4.50338e-49
4.5037e-49
4.50407e-49
4.50452e-49
4.50505e-49
4.50568e-49
4.50641e-49
4.50726e-49
4.50823e-49
4.50931e-49
4.51051e-49
4.51179e-49
4.51315e-49
4.51455e-49
4.51595e-49
4.51733e-49
4.51865e-49
4.51988e-49
4.52099e-49
4.52196e-49
4.52277e-49
4.52342e-49
4.52393e-49
4.5243e-49
4.52455e-49
4.52471e-49
4.52482e-49
4.5249e-49
4.52499e-49
4.52511e-49
4.52529e-49
4.52555e-49
4.52591e-49
4.52637e-49
4.52694e-49
4.52761e-49
4.52839e-49
4.52925e-49
4.53018e-49
4.53118e-49
4.53222e-49
4.53328e-49
4.53436e-49
4.53543e-49
4.53647e-49
4.53749e-49
4.53847e-49
4.5394e-49
4.54027e-49
4.54109e-49
4.54185e-49
4.54254e-49
4.54318e-49
4.54375e-49
4.54427e-49
4.54474e-49
4.54515e-49
4.54551e-49
4.54583e-49
4.5461e-49
4.54633e-49
4.54651e-49
4.54666e-49
4.54676e-49
4.54683e-49
4.54688e-49
4.54702e-49
4.54781e-49
4.55229e-49
4.57674e-49
4.70745e-49
5.39852e-49
9.02046e-49
2.78503e-48
1.24971e-47
6.21973e-47
3.1455e-46
1.58594e-45
7.94202e-45
3.94752e-44
1.94728e-43
9.53382e-43
4.63309e-42
2.23502e-41
1.0704e-40
5.08994e-40
2.40348e-39
1.12718e-38
5.25091e-38
2.4302e-37
1.11763e-36
5.10839e-36
2.32113e-35
1.04868e-34
4.7122e-34
2.10646e-33
9.37025e-33
4.14899e-32
1.82917e-31
8.03188e-31
3.5137e-30
1.53189e-29
6.65795e-29
2.88557e-28
1.24746e-27
5.38076e-27
2.31634e-26
9.95424e-26
4.27134e-25
1.83047e-24
7.83591e-24
3.35137e-23
1.43229e-22
6.11748e-22
2.61157e-21
1.11445e-20
)
;

boundaryField
{
    boundary
    {
        type            empty;
    }
    inlet
    {
        type            fixedValue;
        value           nonuniform 0();
    }
    outlet
    {
        type            zeroGradient;
    }
    procBoundary3to1
    {
        type            processor;
        value           uniform 4.78399e-20;
    }
    procBoundary3to2
    {
        type            processor;
        value           uniform 4.5141e-49;
    }
}


// ************************************************************************* //
