/*--------------------------------*- C++ -*----------------------------------*\
  =========                 |
  \\      /  F ield         | OpenFOAM: The Open Source CFD Toolbox
   \\    /   O peration     | Website:  https://openfoam.org
    \\  /    A nd           | Version:  7
     \\/     M anipulation  |
\*---------------------------------------------------------------------------*/
FoamFile
{
    version     2.0;
    format      ascii;
    class       volScalarField;
    location    "0.0007";
    object      HO2;
}
// * * * * * * * * * * * * * * * * * * * * * * * * * * * * * * * * * * * * * //

dimensions      [0 0 0 0 0 0 0];

internalField   nonuniform List<scalar> 
126
(
5.57505e-36
5.57523e-36
5.57542e-36
5.57561e-36
5.5758e-36
5.57598e-36
5.57616e-36
5.57634e-36
5.57653e-36
5.57673e-36
5.57695e-36
5.5772e-36
5.57749e-36
5.57782e-36
5.57822e-36
5.57868e-36
5.57922e-36
5.57983e-36
5.58053e-36
5.5813e-36
5.58213e-36
5.58303e-36
5.58396e-36
5.58491e-36
5.58585e-36
5.58677e-36
5.58764e-36
5.58845e-36
5.58916e-36
5.58979e-36
5.5903e-36
5.59072e-36
5.59105e-36
5.59129e-36
5.59147e-36
5.5916e-36
5.5917e-36
5.59181e-36
5.59193e-36
5.59208e-36
5.59229e-36
5.59256e-36
5.59291e-36
5.59333e-36
5.59383e-36
5.5944e-36
5.59504e-36
5.59574e-36
5.59648e-36
5.59726e-36
5.59807e-36
5.59889e-36
5.59971e-36
5.60052e-36
5.60131e-36
5.60208e-36
5.60282e-36
5.60352e-36
5.60418e-36
5.60479e-36
5.60537e-36
5.6059e-36
5.60638e-36
5.60683e-36
5.60723e-36
5.60759e-36
5.60791e-36
5.6082e-36
5.60845e-36
5.60866e-36
5.60885e-36
5.609e-36
5.60911e-36
5.6092e-36
5.60925e-36
5.60927e-36
5.60925e-36
5.6092e-36
5.60911e-36
5.60899e-36
5.60883e-36
5.60863e-36
5.60839e-36
5.60811e-36
5.60778e-36
5.60741e-36
5.60702e-36
5.60663e-36
5.60638e-36
5.60679e-36
5.60954e-36
5.62051e-36
5.65971e-36
5.79499e-36
6.25512e-36
7.80705e-36
1.30087e-35
3.03483e-35
8.78641e-35
2.77782e-34
9.02351e-34
2.94918e-33
9.63847e-33
3.14591e-32
1.02586e-31
3.34597e-31
1.09327e-30
3.58567e-30
1.18331e-29
3.94041e-29
1.32817e-28
4.54628e-28
1.58519e-27
5.64457e-27
2.05591e-26
7.66289e-26
2.92051e-25
1.13609e-24
4.49954e-24
1.80921e-23
7.36459e-23
3.0271e-22
1.25359e-21
5.22082e-21
2.18343e-20
9.15923e-20
)
;

boundaryField
{
    boundary
    {
        type            empty;
    }
    inlet
    {
        type            fixedValue;
        value           nonuniform 0();
    }
    outlet
    {
        type            zeroGradient;
    }
    procBoundary3to1
    {
        type            processor;
        value           uniform 3.87408e-19;
    }
    procBoundary3to2
    {
        type            processor;
        value           uniform 5.58301e-36;
    }
}


// ************************************************************************* //
