/*--------------------------------*- C++ -*----------------------------------*\
  =========                 |
  \\      /  F ield         | OpenFOAM: The Open Source CFD Toolbox
   \\    /   O peration     | Website:  https://openfoam.org
    \\  /    A nd           | Version:  7
     \\/     M anipulation  |
\*---------------------------------------------------------------------------*/
FoamFile
{
    version     2.0;
    format      ascii;
    class       volScalarField;
    location    "0.0007";
    object      HO2;
}
// * * * * * * * * * * * * * * * * * * * * * * * * * * * * * * * * * * * * * //

dimensions      [0 0 0 0 0 0 0];

internalField   nonuniform List<scalar> 
500
(
5.5836e-38
1.26951e-37
1.98174e-37
2.69287e-37
3.40254e-37
4.11097e-37
4.81862e-37
5.5261e-37
6.23409e-37
6.94325e-37
7.65419e-37
8.36739e-37
9.08325e-37
9.80201e-37
1.05238e-36
1.12488e-36
1.1977e-36
1.27084e-36
1.34432e-36
1.41815e-36
1.49238e-36
1.56704e-36
1.64221e-36
1.718e-36
1.7945e-36
1.87186e-36
1.95026e-36
2.02988e-36
2.11094e-36
2.19367e-36
2.27832e-36
2.36515e-36
2.4544e-36
2.54632e-36
2.64113e-36
2.73902e-36
2.84012e-36
2.94449e-36
3.05213e-36
3.16295e-36
3.27675e-36
3.39325e-36
3.51203e-36
3.63261e-36
3.75438e-36
3.87666e-36
3.99871e-36
4.11973e-36
4.2389e-36
4.35539e-36
4.4684e-36
4.57719e-36
4.68106e-36
4.77944e-36
4.87182e-36
4.95785e-36
5.03727e-36
5.10995e-36
5.17588e-36
5.23518e-36
5.28803e-36
5.33473e-36
5.37563e-36
5.41114e-36
5.44169e-36
5.46776e-36
5.48981e-36
5.50829e-36
5.52366e-36
5.53633e-36
5.54669e-36
5.55508e-36
5.56184e-36
5.56722e-36
5.57148e-36
5.57483e-36
5.57744e-36
5.57945e-36
5.581e-36
5.58218e-36
5.58308e-36
5.58375e-36
5.58426e-36
5.58464e-36
5.58493e-36
5.58514e-36
5.5853e-36
5.58542e-36
5.58552e-36
5.5856e-36
5.58566e-36
5.58572e-36
5.58577e-36
5.58582e-36
5.58586e-36
5.58591e-36
5.58595e-36
5.586e-36
5.58605e-36
5.5861e-36
5.58616e-36
5.58621e-36
5.58627e-36
5.58634e-36
5.5864e-36
5.58647e-36
5.58655e-36
5.58662e-36
5.5867e-36
5.58679e-36
5.58687e-36
5.58697e-36
5.58706e-36
5.58716e-36
5.58727e-36
5.58738e-36
5.58749e-36
5.58761e-36
5.58773e-36
5.58785e-36
5.58797e-36
5.58804e-36
5.58792e-36
5.58701e-36
5.58301e-36
5.57505e-36
5.57523e-36
5.57542e-36
5.57561e-36
5.5758e-36
5.57598e-36
5.57616e-36
5.57634e-36
5.57653e-36
5.57673e-36
5.57695e-36
5.5772e-36
5.57749e-36
5.57782e-36
5.57822e-36
5.57868e-36
5.57922e-36
5.57983e-36
5.58053e-36
5.5813e-36
5.58213e-36
5.58303e-36
5.58396e-36
5.58491e-36
5.58585e-36
5.58677e-36
5.58764e-36
5.58845e-36
5.58916e-36
5.58979e-36
5.5903e-36
5.59072e-36
5.59105e-36
5.59129e-36
5.59147e-36
5.5916e-36
5.5917e-36
5.59181e-36
5.59193e-36
5.59208e-36
5.59229e-36
5.59256e-36
5.59291e-36
5.59333e-36
5.59383e-36
5.5944e-36
5.59504e-36
5.59574e-36
5.59648e-36
5.59726e-36
5.59807e-36
5.59889e-36
5.59971e-36
5.60052e-36
5.60131e-36
5.60208e-36
5.60282e-36
5.60352e-36
5.60418e-36
5.60479e-36
5.60537e-36
5.6059e-36
5.60638e-36
5.60683e-36
5.60723e-36
5.60759e-36
5.60791e-36
5.6082e-36
5.60845e-36
5.60866e-36
5.60885e-36
5.609e-36
5.60911e-36
5.6092e-36
5.60925e-36
5.60927e-36
5.60925e-36
5.6092e-36
5.60911e-36
5.60899e-36
5.60883e-36
5.60863e-36
5.60839e-36
5.60811e-36
5.60778e-36
5.60741e-36
5.60702e-36
5.60663e-36
5.60638e-36
5.60679e-36
5.60954e-36
5.62051e-36
5.65971e-36
5.79499e-36
6.25512e-36
7.80705e-36
1.30087e-35
3.03483e-35
8.78641e-35
2.77782e-34
9.02351e-34
2.94918e-33
9.63847e-33
3.14591e-32
1.02586e-31
3.34597e-31
1.09327e-30
3.58567e-30
1.18331e-29
3.94041e-29
1.32817e-28
4.54628e-28
1.58519e-27
5.64457e-27
2.05591e-26
7.66289e-26
2.92051e-25
1.13609e-24
4.49954e-24
1.80921e-23
7.36459e-23
3.0271e-22
1.25359e-21
5.22082e-21
2.18343e-20
9.15923e-20
3.87408e-19
1.63531e-18
6.8941e-18
2.90608e-17
1.22485e-16
5.1605e-16
2.17282e-15
9.14061e-15
3.84109e-14
1.61208e-13
6.75638e-13
2.82748e-12
1.1815e-11
4.92977e-11
2.05413e-10
8.54883e-10
3.55428e-09
1.47655e-08
6.12796e-08
2.53808e-07
1.04545e-06
4.24829e-06
1.67578e-05
6.16725e-05
0.000193425
0.000422591
0.00052102
0.000461261
0.000350132
0.000249288
0.000174924
0.000122452
8.57392e-05
6.09036e-05
4.2296e-05
3.16733e-05
2.4867e-05
2.04238e-05
1.7431e-05
1.53333e-05
1.37982e-05
1.2627e-05
1.16992e-05
1.09405e-05
1.03036e-05
9.75786e-06
9.28244e-06
8.86283e-06
8.48861e-06
8.15199e-06
7.84706e-06
7.56917e-06
7.31465e-06
7.08047e-06
6.86419e-06
6.66373e-06
6.47736e-06
6.30364e-06
6.14132e-06
5.98938e-06
5.84699e-06
5.71748e-06
5.59691e-06
5.48232e-06
5.37327e-06
5.26937e-06
5.17026e-06
5.07563e-06
4.98517e-06
4.89864e-06
4.81579e-06
4.73639e-06
4.66024e-06
4.58717e-06
4.51698e-06
4.44953e-06
4.38465e-06
4.32222e-06
4.2621e-06
4.20417e-06
4.14831e-06
4.09443e-06
4.04242e-06
3.99219e-06
3.94365e-06
3.89672e-06
3.85133e-06
3.80739e-06
3.76485e-06
3.72365e-06
3.68371e-06
3.64498e-06
3.60742e-06
3.57097e-06
3.53559e-06
3.50122e-06
3.46783e-06
3.43539e-06
3.40384e-06
3.37316e-06
3.34331e-06
3.31426e-06
3.28598e-06
3.25845e-06
3.23162e-06
3.20549e-06
3.18001e-06
3.15518e-06
3.13096e-06
3.10734e-06
3.0843e-06
3.0618e-06
3.03985e-06
3.01842e-06
2.99748e-06
2.97704e-06
2.95706e-06
2.93754e-06
2.91846e-06
2.89981e-06
2.88157e-06
2.86374e-06
2.8463e-06
2.82925e-06
2.81258e-06
2.79625e-06
2.78024e-06
2.76457e-06
2.74923e-06
2.7342e-06
2.71949e-06
2.70507e-06
2.69096e-06
2.67712e-06
2.66357e-06
2.65029e-06
2.63727e-06
2.62452e-06
2.61201e-06
2.59975e-06
2.58773e-06
2.57594e-06
2.56439e-06
2.55305e-06
2.54193e-06
2.53102e-06
2.52032e-06
2.50982e-06
2.49952e-06
2.48941e-06
2.47948e-06
2.46974e-06
2.46017e-06
2.45078e-06
2.44155e-06
2.43249e-06
2.42359e-06
2.41484e-06
2.40624e-06
2.39779e-06
2.38948e-06
2.38131e-06
2.37328e-06
2.36537e-06
2.35759e-06
2.34993e-06
2.3424e-06
2.33498e-06
2.32766e-06
2.32046e-06
2.31337e-06
2.30637e-06
2.29947e-06
2.29267e-06
2.28596e-06
2.27934e-06
2.27281e-06
2.26636e-06
2.25999e-06
2.2537e-06
2.24748e-06
2.24134e-06
2.23526e-06
2.22925e-06
2.22331e-06
2.21743e-06
2.2116e-06
2.20583e-06
2.20012e-06
2.19445e-06
2.18883e-06
2.18325e-06
2.17772e-06
2.17222e-06
2.16675e-06
2.16131e-06
2.1559e-06
2.1505e-06
2.14512e-06
2.13976e-06
2.13439e-06
2.12903e-06
2.12365e-06
2.11827e-06
2.11287e-06
2.10743e-06
2.10197e-06
2.09646e-06
2.09091e-06
2.08529e-06
2.07961e-06
2.07385e-06
2.06801e-06
2.06207e-06
2.05603e-06
2.04988e-06
2.04368e-06
2.03779e-06
2.02797e-06
2.02096e-06
2.01385e-06
2.00658e-06
1.9991e-06
1.99138e-06
1.98342e-06
1.9752e-06
1.96671e-06
1.95796e-06
1.94892e-06
1.93959e-06
1.92997e-06
1.92004e-06
1.90982e-06
1.89928e-06
1.88844e-06
1.87729e-06
1.86584e-06
1.8541e-06
1.84207e-06
1.82977e-06
1.81721e-06
1.80444e-06
1.79148e-06
1.77841e-06
1.76534e-06
1.75247e-06
1.74018e-06
1.7293e-06
1.72164e-06
)
;

boundaryField
{
    boundary
    {
        type            empty;
    }
    inlet
    {
        type            fixedValue;
        value           uniform 0;
    }
    outlet
    {
        type            zeroGradient;
    }
}


// ************************************************************************* //
