/*--------------------------------*- C++ -*----------------------------------*\
  =========                 |
  \\      /  F ield         | OpenFOAM: The Open Source CFD Toolbox
   \\    /   O peration     | Website:  https://openfoam.org
    \\  /    A nd           | Version:  7
     \\/     M anipulation  |
\*---------------------------------------------------------------------------*/
FoamFile
{
    version     2.0;
    format      ascii;
    class       surfaceScalarField;
    location    "0.0007";
    object      phi;
}
// * * * * * * * * * * * * * * * * * * * * * * * * * * * * * * * * * * * * * //

dimensions      [1 0 -1 0 0 0 0];

internalField   nonuniform List<scalar> 
499
(
6.92988e-06
6.93001e-06
6.93015e-06
6.93032e-06
6.9305e-06
6.93071e-06
6.93092e-06
6.93114e-06
6.93134e-06
6.93154e-06
6.93172e-06
6.93187e-06
6.932e-06
6.93211e-06
6.93219e-06
6.93225e-06
6.93228e-06
6.9323e-06
6.9323e-06
6.93228e-06
6.93225e-06
6.9322e-06
6.93213e-06
6.93205e-06
6.93196e-06
6.93184e-06
6.93169e-06
6.93152e-06
6.93132e-06
6.93109e-06
6.93081e-06
6.93048e-06
6.9301e-06
6.92967e-06
6.92918e-06
6.92862e-06
6.92799e-06
6.92729e-06
6.92653e-06
6.92569e-06
6.92478e-06
6.9238e-06
6.92276e-06
6.92167e-06
6.92053e-06
6.91935e-06
6.91814e-06
6.91691e-06
6.91568e-06
6.91445e-06
6.91323e-06
6.91203e-06
6.91088e-06
6.90976e-06
6.9087e-06
6.9077e-06
6.90677e-06
6.9059e-06
6.90511e-06
6.90438e-06
6.90373e-06
6.90315e-06
6.90265e-06
6.9022e-06
6.90182e-06
6.90149e-06
6.90122e-06
6.901e-06
6.90082e-06
6.90068e-06
6.90057e-06
6.90049e-06
6.90044e-06
6.90041e-06
6.9004e-06
6.9004e-06
6.90042e-06
6.90045e-06
6.90048e-06
6.90052e-06
6.90057e-06
6.90063e-06
6.90068e-06
6.90074e-06
6.9008e-06
6.90087e-06
6.90093e-06
6.901e-06
6.90106e-06
6.90113e-06
6.9012e-06
6.90126e-06
6.90133e-06
6.9014e-06
6.90147e-06
6.90154e-06
6.9016e-06
6.90167e-06
6.90174e-06
6.90181e-06
6.90188e-06
6.90195e-06
6.90202e-06
6.90209e-06
6.90215e-06
6.90222e-06
6.90229e-06
6.90236e-06
6.90243e-06
6.9025e-06
6.90257e-06
6.90264e-06
6.90271e-06
6.90278e-06
6.90284e-06
6.90291e-06
6.90298e-06
6.90305e-06
6.90312e-06
6.90319e-06
6.90326e-06
6.90333e-06
6.9034e-06
6.90347e-06
6.90353e-06
6.9036e-06
6.90367e-06
6.90373e-06
6.9038e-06
6.90386e-06
6.90393e-06
6.904e-06
6.90407e-06
6.90414e-06
6.90421e-06
6.90428e-06
6.90435e-06
6.90443e-06
6.9045e-06
6.90457e-06
6.90464e-06
6.90471e-06
6.90478e-06
6.90485e-06
6.90491e-06
6.90498e-06
6.90505e-06
6.90512e-06
6.90519e-06
6.90525e-06
6.90532e-06
6.90539e-06
6.90546e-06
6.90552e-06
6.90559e-06
6.90566e-06
6.90573e-06
6.9058e-06
6.90586e-06
6.90593e-06
6.906e-06
6.90606e-06
6.90613e-06
6.9062e-06
6.90627e-06
6.90633e-06
6.9064e-06
6.90647e-06
6.90653e-06
6.9066e-06
6.90667e-06
6.90673e-06
6.9068e-06
6.90687e-06
6.90693e-06
6.907e-06
6.90706e-06
6.90713e-06
6.9072e-06
6.90726e-06
6.90733e-06
6.90739e-06
6.90746e-06
6.90753e-06
6.90759e-06
6.90766e-06
6.90772e-06
6.90779e-06
6.90786e-06
6.90792e-06
6.90799e-06
6.90806e-06
6.90812e-06
6.90819e-06
6.90826e-06
6.90832e-06
6.90839e-06
6.90846e-06
6.90853e-06
6.9086e-06
6.90866e-06
6.90873e-06
6.9088e-06
6.90887e-06
6.90894e-06
6.90901e-06
6.90908e-06
6.90915e-06
6.90922e-06
6.9093e-06
6.90937e-06
6.90944e-06
6.90951e-06
6.90959e-06
6.90966e-06
6.90973e-06
6.90981e-06
6.90989e-06
6.90996e-06
6.91004e-06
6.91012e-06
6.91019e-06
6.91027e-06
6.91035e-06
6.91043e-06
6.91052e-06
6.9106e-06
6.91068e-06
6.91076e-06
6.91085e-06
6.91093e-06
6.91102e-06
6.91111e-06
6.9112e-06
6.91128e-06
6.91137e-06
6.91147e-06
6.91156e-06
6.91165e-06
6.91174e-06
6.91184e-06
6.91193e-06
6.91203e-06
6.91213e-06
6.91223e-06
6.91233e-06
6.91243e-06
6.91253e-06
6.91263e-06
6.91274e-06
6.91284e-06
6.91294e-06
6.91305e-06
6.91315e-06
6.91326e-06
6.91337e-06
6.91347e-06
6.91359e-06
6.9137e-06
6.91381e-06
6.91393e-06
6.91404e-06
6.91416e-06
6.91428e-06
6.9144e-06
6.91452e-06
6.91463e-06
6.91476e-06
6.91489e-06
6.91505e-06
6.91531e-06
6.91587e-06
6.91734e-06
6.92147e-06
6.93298e-06
6.96148e-06
7.0136e-06
7.07303e-06
7.11841e-06
7.14784e-06
7.16725e-06
7.18071e-06
7.19007e-06
7.19594e-06
7.20013e-06
7.2039e-06
7.20712e-06
7.20962e-06
7.21165e-06
7.21333e-06
7.21477e-06
7.21601e-06
7.2171e-06
7.21806e-06
7.21893e-06
7.21971e-06
7.22043e-06
7.22108e-06
7.22168e-06
7.22223e-06
7.22274e-06
7.22322e-06
7.22367e-06
7.22409e-06
7.22448e-06
7.22485e-06
7.2252e-06
7.22553e-06
7.22584e-06
7.22613e-06
7.22641e-06
7.22667e-06
7.22691e-06
7.22713e-06
7.22734e-06
7.22754e-06
7.22774e-06
7.22792e-06
7.22809e-06
7.22826e-06
7.22842e-06
7.22857e-06
7.22872e-06
7.22886e-06
7.229e-06
7.22913e-06
7.22926e-06
7.22939e-06
7.22951e-06
7.22963e-06
7.22975e-06
7.22986e-06
7.22998e-06
7.23009e-06
7.2302e-06
7.2303e-06
7.23041e-06
7.23051e-06
7.23061e-06
7.23071e-06
7.2308e-06
7.2309e-06
7.23099e-06
7.23108e-06
7.23117e-06
7.23126e-06
7.23134e-06
7.23142e-06
7.2315e-06
7.23158e-06
7.23166e-06
7.23173e-06
7.23181e-06
7.23188e-06
7.23195e-06
7.23201e-06
7.23208e-06
7.23214e-06
7.23221e-06
7.23227e-06
7.23233e-06
7.23239e-06
7.23245e-06
7.2325e-06
7.23256e-06
7.23262e-06
7.23267e-06
7.23272e-06
7.23278e-06
7.23283e-06
7.23288e-06
7.23293e-06
7.23298e-06
7.23303e-06
7.23308e-06
7.23312e-06
7.23317e-06
7.23321e-06
7.23326e-06
7.2333e-06
7.23334e-06
7.23338e-06
7.23342e-06
7.23346e-06
7.2335e-06
7.23354e-06
7.23357e-06
7.23361e-06
7.23365e-06
7.23368e-06
7.23371e-06
7.23374e-06
7.23378e-06
7.2338e-06
7.23383e-06
7.23386e-06
7.23389e-06
7.23391e-06
7.23393e-06
7.23395e-06
7.23397e-06
7.23399e-06
7.23401e-06
7.23402e-06
7.23404e-06
7.23405e-06
7.23406e-06
7.23407e-06
7.23408e-06
7.23409e-06
7.2341e-06
7.23411e-06
7.23411e-06
7.23412e-06
7.23412e-06
7.23412e-06
7.23413e-06
7.23413e-06
7.23413e-06
7.23413e-06
7.23413e-06
7.23412e-06
7.23412e-06
7.23412e-06
7.23411e-06
7.23411e-06
7.2341e-06
7.2341e-06
7.23409e-06
7.23408e-06
7.23407e-06
7.23406e-06
7.23405e-06
7.23403e-06
7.23401e-06
7.234e-06
7.23398e-06
7.23395e-06
7.23393e-06
7.2339e-06
7.23387e-06
7.23384e-06
7.23381e-06
7.23377e-06
7.23373e-06
7.23369e-06
7.23364e-06
7.2336e-06
7.23355e-06
7.2335e-06
7.23344e-06
7.23339e-06
7.23333e-06
7.23328e-06
7.23322e-06
7.23317e-06
7.23311e-06
7.23306e-06
7.233e-06
7.23295e-06
7.23291e-06
7.23287e-06
7.23284e-06
7.23281e-06
7.23279e-06
7.23278e-06
7.23278e-06
7.23261e-06
7.23252e-06
7.23222e-06
7.23212e-06
7.2321e-06
7.23212e-06
7.23216e-06
7.23221e-06
7.23228e-06
7.23236e-06
7.23246e-06
7.23258e-06
7.2327e-06
7.23285e-06
7.233e-06
7.23317e-06
7.23335e-06
7.23354e-06
7.23373e-06
7.23393e-06
7.23413e-06
7.23432e-06
7.2345e-06
7.23467e-06
7.23482e-06
7.23494e-06
7.23503e-06
7.23508e-06
7.23508e-06
7.23503e-06
7.23492e-06
7.23476e-06
)
;

boundaryField
{
    boundary
    {
        type            empty;
        value           nonuniform 0();
    }
    inlet
    {
        type            calculated;
        value           uniform -6.92978e-06;
    }
    outlet
    {
        type            calculated;
        value           uniform 7.23456e-06;
    }
}


// ************************************************************************* //
