/*--------------------------------*- C++ -*----------------------------------*\
  =========                 |
  \\      /  F ield         | OpenFOAM: The Open Source CFD Toolbox
   \\    /   O peration     | Website:  https://openfoam.org
    \\  /    A nd           | Version:  7
     \\/     M anipulation  |
\*---------------------------------------------------------------------------*/
FoamFile
{
    version     2.0;
    format      ascii;
    class       volScalarField;
    location    "0.0007";
    object      Qdot;
}
// * * * * * * * * * * * * * * * * * * * * * * * * * * * * * * * * * * * * * //

dimensions      [1 -1 -3 0 0 0 0];

internalField   nonuniform List<scalar> 
500
(
-2.45053e-27
-1.85922e-27
-1.73e-27
-1.70004e-27
-1.69119e-27
-1.68672e-27
-1.68318e-27
-1.67995e-27
-1.677e-27
-1.67442e-27
-1.6723e-27
-1.67068e-27
-1.6696e-27
-1.66905e-27
-1.66902e-27
-1.66948e-27
-1.67038e-27
-1.67169e-27
-1.67337e-27
-1.6754e-27
-1.67776e-27
-1.68047e-27
-1.68352e-27
-1.68697e-27
-1.69086e-27
-1.69525e-27
-1.70024e-27
-1.70591e-27
-1.71237e-27
-1.71974e-27
-1.72815e-27
-1.73771e-27
-1.74858e-27
-1.76086e-27
-1.7747e-27
-1.79019e-27
-1.80746e-27
-1.82657e-27
-1.84758e-27
-1.87054e-27
-1.89543e-27
-1.92224e-27
-1.95088e-27
-1.98125e-27
-2.01319e-27
-2.04653e-27
-2.08103e-27
-2.11644e-27
-2.15246e-27
-2.1888e-27
-2.22514e-27
-2.26114e-27
-2.29649e-27
-2.33089e-27
-2.36404e-27
-2.39571e-27
-2.42568e-27
-2.45377e-27
-2.47986e-27
-2.50387e-27
-2.52575e-27
-2.54552e-27
-2.56321e-27
-2.57891e-27
-2.59271e-27
-2.60474e-27
-2.61513e-27
-2.62403e-27
-2.63159e-27
-2.63795e-27
-2.64327e-27
-2.64768e-27
-2.6513e-27
-2.65426e-27
-2.65665e-27
-2.65857e-27
-2.66011e-27
-2.66132e-27
-2.66228e-27
-2.66302e-27
-2.6636e-27
-2.66405e-27
-2.66439e-27
-2.66466e-27
-2.66486e-27
-2.66502e-27
-2.66514e-27
-2.66523e-27
-2.6653e-27
-2.66536e-27
-2.66541e-27
-2.66545e-27
-2.66549e-27
-2.66552e-27
-2.66555e-27
-2.66558e-27
-2.66561e-27
-2.66564e-27
-2.66567e-27
-2.6657e-27
-2.66574e-27
-2.66577e-27
-2.6658e-27
-2.66584e-27
-2.66588e-27
-2.66592e-27
-2.66596e-27
-2.666e-27
-2.66605e-27
-2.6661e-27
-2.66614e-27
-2.6662e-27
-2.66625e-27
-2.6663e-27
-2.66636e-27
-2.66642e-27
-2.66648e-27
-2.66655e-27
-2.66661e-27
-2.66668e-27
-2.66676e-27
-2.66684e-27
-2.66694e-27
-2.66707e-27
-2.66727e-27
-2.66755e-27
-2.66774e-27
-2.66792e-27
-2.66809e-27
-2.66823e-27
-2.66835e-27
-2.66843e-27
-2.66849e-27
-2.66853e-27
-2.66856e-27
-2.66858e-27
-2.66861e-27
-2.66864e-27
-2.66868e-27
-2.66873e-27
-2.66879e-27
-2.66888e-27
-2.66897e-27
-2.66909e-27
-2.66921e-27
-2.66934e-27
-2.66949e-27
-2.66964e-27
-2.66979e-27
-2.66995e-27
-2.67011e-27
-2.67027e-27
-2.67043e-27
-2.67059e-27
-2.67075e-27
-2.67091e-27
-2.67107e-27
-2.67124e-27
-2.6714e-27
-2.67157e-27
-2.67174e-27
-2.67191e-27
-2.67208e-27
-2.67225e-27
-2.67242e-27
-2.6726e-27
-2.67278e-27
-2.67296e-27
-2.67314e-27
-2.67332e-27
-2.67351e-27
-2.67369e-27
-2.67388e-27
-2.67407e-27
-2.67426e-27
-2.67445e-27
-2.67464e-27
-2.67483e-27
-2.67502e-27
-2.6752e-27
-2.67539e-27
-2.67556e-27
-2.67574e-27
-2.67591e-27
-2.67608e-27
-2.67624e-27
-2.67639e-27
-2.67654e-27
-2.67668e-27
-2.67681e-27
-2.67694e-27
-2.67705e-27
-2.67716e-27
-2.67725e-27
-2.67734e-27
-2.67741e-27
-2.67747e-27
-2.67752e-27
-2.67756e-27
-2.67758e-27
-2.67759e-27
-2.67759e-27
-2.67757e-27
-2.67753e-27
-2.67747e-27
-2.6774e-27
-2.6773e-27
-2.67717e-27
-2.67696e-27
-2.67655e-27
-2.67543e-27
-2.67192e-27
-2.66013e-27
-2.61967e-27
-2.48063e-27
-2.00433e-27
-3.81204e-28
5.11843e-27
2.36447e-26
8.56939e-26
2.92339e-25
9.76744e-25
3.23132e-24
1.06197e-23
3.47104e-23
1.12881e-22
3.65355e-22
1.17719e-21
3.77665e-21
1.2067e-20
3.84078e-20
1.21807e-19
3.85004e-19
1.21311e-18
3.81145e-18
1.19438e-17
3.73404e-17
1.16498e-16
3.62821e-16
1.12837e-15
3.50563e-15
1.08855e-14
3.38035e-14
1.05065e-13
3.27196e-13
1.02247e-12
3.21257e-12
1.01765e-11
3.26159e-11
1.06242e-10
3.5359e-10
1.21529e-09
4.30268e-09
1.57648e-08
5.99456e-08
2.36335e-07
9.62615e-07
4.03028e-06
1.72509e-05
7.51154e-05
0.000331313
0.00147591
0.0066267
0.0299558
0.136321
0.625053
2.89351
13.5705
67.5736
368.351
2359.16
17580.9
142424
1.29249e+06
1.23023e+07
1.13969e+08
8.83402e+08
4.16572e+09
9.88409e+09
1.32238e+10
1.38589e+10
1.39093e+10
1.38136e+10
1.30661e+10
1.14431e+10
9.42812e+09
7.67352e+09
6.31633e+09
5.27306e+09
4.4795e+09
3.8694e+09
3.39182e+09
3.01046e+09
2.69999e+09
2.44274e+09
2.22631e+09
2.04178e+09
1.88264e+09
1.74404e+09
1.62231e+09
1.5146e+09
1.41867e+09
1.33275e+09
1.25538e+09
1.1854e+09
1.12183e+09
1.06387e+09
1.01084e+09
9.62156e+08
9.17351e+08
8.76021e+08
8.37881e+08
8.03536e+08
7.72075e+08
7.42471e+08
7.14673e+08
6.88503e+08
6.63834e+08
6.40534e+08
6.18505e+08
5.97652e+08
5.77887e+08
5.59133e+08
5.41319e+08
5.24382e+08
5.08262e+08
4.92905e+08
4.78261e+08
4.64286e+08
4.50937e+08
4.38175e+08
4.25966e+08
4.14277e+08
4.03076e+08
3.92336e+08
3.82031e+08
3.72136e+08
3.6263e+08
3.5349e+08
3.44698e+08
3.36235e+08
3.28085e+08
3.20231e+08
3.12658e+08
3.05354e+08
2.98304e+08
2.91495e+08
2.84918e+08
2.78562e+08
2.72415e+08
2.66469e+08
2.60715e+08
2.55143e+08
2.49747e+08
2.44518e+08
2.3945e+08
2.34535e+08
2.29767e+08
2.25141e+08
2.2065e+08
2.16289e+08
2.12053e+08
2.07937e+08
2.03936e+08
2.00047e+08
1.96264e+08
1.92584e+08
1.89002e+08
1.85517e+08
1.82123e+08
1.78818e+08
1.75598e+08
1.72462e+08
1.69406e+08
1.66433e+08
1.63539e+08
1.60715e+08
1.57947e+08
1.55243e+08
1.52605e+08
1.50029e+08
1.47514e+08
1.45058e+08
1.42658e+08
1.40314e+08
1.38024e+08
1.35785e+08
1.33596e+08
1.31456e+08
1.29364e+08
1.27317e+08
1.25315e+08
1.23355e+08
1.21438e+08
1.19561e+08
1.17724e+08
1.15926e+08
1.14164e+08
1.12439e+08
1.1075e+08
1.09094e+08
1.07472e+08
1.05883e+08
1.04325e+08
1.02797e+08
1.013e+08
9.98319e+07
9.83921e+07
9.69799e+07
9.55945e+07
9.42354e+07
9.29019e+07
9.15932e+07
9.03086e+07
8.90479e+07
8.78102e+07
8.6595e+07
8.54017e+07
8.42299e+07
8.30789e+07
8.19484e+07
8.08378e+07
7.97466e+07
7.86744e+07
7.76208e+07
7.65853e+07
7.55676e+07
7.45672e+07
7.35837e+07
7.26171e+07
7.16664e+07
7.07316e+07
6.98124e+07
6.89084e+07
6.80194e+07
6.71449e+07
6.62847e+07
6.54385e+07
6.46061e+07
6.37871e+07
6.29813e+07
6.21885e+07
6.14083e+07
6.06406e+07
5.98851e+07
5.91416e+07
5.84099e+07
5.76899e+07
5.69801e+07
5.62827e+07
5.55959e+07
5.49198e+07
5.42541e+07
5.35988e+07
5.29535e+07
5.23183e+07
5.16928e+07
5.1077e+07
5.047e+07
4.9873e+07
4.92849e+07
4.87057e+07
4.81353e+07
4.75737e+07
4.70213e+07
4.64795e+07
4.59532e+07
4.54696e+07
4.5084e+07
4.40922e+07
4.36135e+07
4.31585e+07
4.26782e+07
4.21915e+07
4.17047e+07
4.12208e+07
4.07408e+07
4.0265e+07
3.97936e+07
3.93263e+07
3.88629e+07
3.8403e+07
3.79464e+07
3.74927e+07
3.70418e+07
3.65929e+07
3.61461e+07
3.57009e+07
3.52569e+07
3.48137e+07
3.43708e+07
3.39275e+07
3.34829e+07
3.30358e+07
3.25836e+07
3.2124e+07
3.1654e+07
3.11714e+07
3.06919e+07
3.03187e+07
)
;

boundaryField
{
    boundary
    {
        type            empty;
    }
    inlet
    {
        type            calculated;
        value           uniform 0;
    }
    outlet
    {
        type            calculated;
        value           uniform 0;
    }
}


// ************************************************************************* //
