/*--------------------------------*- C++ -*----------------------------------*\
  =========                 |
  \\      /  F ield         | OpenFOAM: The Open Source CFD Toolbox
   \\    /   O peration     | Website:  https://openfoam.org
    \\  /    A nd           | Version:  7
     \\/     M anipulation  |
\*---------------------------------------------------------------------------*/
FoamFile
{
    version     2.0;
    format      ascii;
    class       volScalarField;
    location    "0.0007";
    object      rho;
}
// * * * * * * * * * * * * * * * * * * * * * * * * * * * * * * * * * * * * * //

dimensions      [1 -3 0 0 0 0 0];

internalField   nonuniform List<scalar> 
500
(
0.864634
0.864643
0.864654
0.864668
0.864684
0.864702
0.86472
0.864738
0.864755
0.86477
0.864782
0.864792
0.864798
0.864801
0.864802
0.864799
0.864795
0.864787
0.864778
0.864766
0.864753
0.864738
0.86472
0.864701
0.864679
0.864654
0.864626
0.864594
0.864558
0.864517
0.86447
0.864418
0.864358
0.864291
0.864217
0.864134
0.864042
0.863942
0.863832
0.863714
0.863588
0.863454
0.863313
0.863165
0.863012
0.862855
0.862695
0.862534
0.862372
0.862212
0.862054
0.8619
0.861751
0.861608
0.861472
0.861344
0.861224
0.861113
0.861011
0.860918
0.860834
0.860759
0.860692
0.860632
0.86058
0.860535
0.860497
0.860464
0.860435
0.860412
0.860392
0.860376
0.860362
0.860351
0.860342
0.860335
0.86033
0.860325
0.860322
0.860319
0.860317
0.860315
0.860314
0.860313
0.860312
0.860312
0.860311
0.860311
0.860311
0.86031
0.86031
0.86031
0.86031
0.86031
0.86031
0.86031
0.86031
0.860309
0.860309
0.860309
0.860309
0.860309
0.860309
0.860309
0.860309
0.860309
0.860308
0.860308
0.860308
0.860308
0.860308
0.860308
0.860308
0.860307
0.860307
0.860307
0.860307
0.860307
0.860306
0.860306
0.860306
0.860306
0.860305
0.860305
0.860304
0.860303
0.860303
0.860302
0.860301
0.860301
0.860301
0.8603
0.8603
0.8603
0.8603
0.8603
0.8603
0.8603
0.8603
0.860299
0.860299
0.860299
0.860299
0.860298
0.860298
0.860297
0.860297
0.860296
0.860296
0.860295
0.860295
0.860294
0.860294
0.860293
0.860293
0.860292
0.860291
0.860291
0.86029
0.86029
0.860289
0.860289
0.860288
0.860287
0.860287
0.860286
0.860286
0.860285
0.860284
0.860284
0.860283
0.860283
0.860282
0.860281
0.860281
0.86028
0.860279
0.860279
0.860278
0.860277
0.860277
0.860276
0.860276
0.860275
0.860274
0.860274
0.860273
0.860273
0.860272
0.860272
0.860272
0.860271
0.860271
0.86027
0.86027
0.86027
0.86027
0.86027
0.86027
0.860269
0.860269
0.86027
0.86027
0.86027
0.86027
0.86027
0.860271
0.860271
0.860272
0.860272
0.860273
0.860274
0.860274
0.860275
0.860276
0.860277
0.860279
0.86028
0.860281
0.860283
0.860284
0.860286
0.860288
0.86029
0.860292
0.860294
0.860296
0.860299
0.860301
0.860304
0.860307
0.86031
0.860313
0.860317
0.86032
0.860324
0.860327
0.860331
0.860335
0.860339
0.860344
0.860348
0.860353
0.860358
0.860363
0.860368
0.860373
0.860379
0.860384
0.86039
0.860396
0.860402
0.860408
0.860414
0.86042
0.860427
0.860434
0.860441
0.860448
0.860455
0.860463
0.860471
0.860479
0.860488
0.860496
0.860505
0.860514
0.860519
0.860512
0.86046
0.860265
0.859627
0.857663
0.85182
0.835093
0.791112
0.697825
0.564366
0.441457
0.356159
0.300653
0.26281
0.235937
0.217012
0.203173
0.192696
0.185221
0.179703
0.175324
0.171763
0.168798
0.16628
0.164107
0.162205
0.160522
0.159019
0.157666
0.156439
0.15532
0.154295
0.15335
0.152477
0.151666
0.15091
0.150204
0.149543
0.148922
0.148337
0.147785
0.147264
0.14677
0.146304
0.145873
0.145471
0.145083
0.144711
0.144354
0.144009
0.143678
0.143358
0.143049
0.142751
0.142463
0.142184
0.141914
0.141653
0.141399
0.141154
0.140915
0.140684
0.140459
0.14024
0.140027
0.13982
0.139619
0.139423
0.139231
0.139045
0.138863
0.138686
0.138512
0.138343
0.138178
0.138017
0.137859
0.137704
0.137553
0.137405
0.137261
0.137119
0.13698
0.136844
0.136711
0.136581
0.136453
0.136327
0.136204
0.136083
0.135964
0.135848
0.135734
0.135621
0.135511
0.135403
0.135296
0.135191
0.135088
0.134987
0.134888
0.13479
0.134694
0.134599
0.134506
0.134414
0.134324
0.134236
0.134149
0.134062
0.133977
0.133894
0.133811
0.13373
0.13365
0.133571
0.133493
0.133416
0.13334
0.133265
0.133192
0.133119
0.133047
0.132976
0.132907
0.132838
0.13277
0.132702
0.132636
0.13257
0.132506
0.132442
0.132378
0.132316
0.132254
0.132193
0.132133
0.132074
0.132015
0.131957
0.131899
0.131842
0.131786
0.13173
0.131675
0.131621
0.131567
0.131514
0.131461
0.131409
0.131358
0.131307
0.131256
0.131207
0.131157
0.131108
0.13106
0.131012
0.130965
0.130918
0.130871
0.130825
0.13078
0.130735
0.13069
0.130646
0.130602
0.130558
0.130515
0.130472
0.13043
0.130388
0.130346
0.130305
0.130264
0.130224
0.130183
0.130143
0.130104
0.130064
0.130025
0.129986
0.129948
0.12991
0.129872
0.129835
0.129798
0.129761
0.129724
0.129688
0.129652
0.129617
0.129582
0.129547
0.129513
0.129479
0.129446
0.129413
0.129381
0.129349
0.129316
0.129275
0.129241
0.12921
0.12918
0.12915
0.129121
0.129092
0.129064
0.129036
0.129009
0.128982
0.128956
0.12893
0.128905
0.12888
0.128855
0.128831
0.128807
0.128783
0.128759
0.128736
0.128712
0.128688
0.128664
0.128639
0.128614
0.128588
0.128563
0.128538
0.128517
0.128503
)
;

boundaryField
{
    boundary
    {
        type            empty;
    }
    inlet
    {
        type            calculated;
        value           uniform 0.864629;
    }
    outlet
    {
        type            calculated;
        value           uniform 0.128503;
    }
}


// ************************************************************************* //
