/*--------------------------------*- C++ -*----------------------------------*\
  =========                 |
  \\      /  F ield         | OpenFOAM: The Open Source CFD Toolbox
   \\    /   O peration     | Website:  https://openfoam.org
    \\  /    A nd           | Version:  7
     \\/     M anipulation  |
\*---------------------------------------------------------------------------*/
FoamFile
{
    version     2.0;
    format      ascii;
    class       volScalarField;
    location    "0.0007";
    object      T;
}
// * * * * * * * * * * * * * * * * * * * * * * * * * * * * * * * * * * * * * //

dimensions      [0 0 0 1 0 0 0];

internalField   nonuniform List<scalar> 
500
(
299.998
299.995
299.991
299.987
299.981
299.975
299.968
299.962
299.956
299.951
299.947
299.944
299.941
299.94
299.94
299.941
299.943
299.945
299.948
299.952
299.957
299.962
299.968
299.975
299.983
299.991
300.001
300.012
300.025
300.039
300.055
300.073
300.094
300.117
300.143
300.172
300.204
300.239
300.277
300.318
300.362
300.408
300.458
300.509
300.562
300.617
300.673
300.729
300.785
300.841
300.896
300.95
301.002
301.052
301.1
301.144
301.186
301.225
301.261
301.293
301.323
301.349
301.373
301.393
301.412
301.427
301.441
301.453
301.462
301.471
301.478
301.483
301.488
301.492
301.495
301.497
301.499
301.501
301.502
301.503
301.504
301.505
301.505
301.505
301.506
301.506
301.506
301.506
301.506
301.506
301.506
301.506
301.507
301.507
301.507
301.507
301.507
301.507
301.507
301.507
301.507
301.507
301.507
301.507
301.507
301.507
301.507
301.507
301.507
301.507
301.507
301.507
301.507
301.508
301.508
301.508
301.508
301.508
301.508
301.508
301.508
301.508
301.508
301.509
301.509
301.509
301.509
301.51
301.51
301.51
301.51
301.51
301.51
301.51
301.51
301.51
301.51
301.51
301.511
301.511
301.511
301.511
301.511
301.511
301.511
301.511
301.512
301.512
301.512
301.512
301.512
301.513
301.513
301.513
301.513
301.513
301.514
301.514
301.514
301.514
301.514
301.515
301.515
301.515
301.515
301.515
301.516
301.516
301.516
301.516
301.517
301.517
301.517
301.517
301.518
301.518
301.518
301.518
301.518
301.519
301.519
301.519
301.519
301.52
301.52
301.52
301.52
301.52
301.521
301.521
301.521
301.521
301.521
301.521
301.521
301.522
301.522
301.522
301.522
301.522
301.522
301.522
301.522
301.522
301.522
301.521
301.521
301.521
301.521
301.521
301.521
301.52
301.52
301.52
301.52
301.519
301.519
301.518
301.518
301.517
301.517
301.516
301.516
301.515
301.514
301.513
301.513
301.512
301.511
301.51
301.509
301.508
301.507
301.506
301.504
301.503
301.502
301.501
301.499
301.498
301.496
301.495
301.493
301.491
301.49
301.488
301.486
301.484
301.482
301.48
301.478
301.476
301.474
301.472
301.47
301.467
301.465
301.462
301.46
301.457
301.455
301.452
301.449
301.446
301.444
301.442
301.44
301.442
301.452
301.487
301.588
301.881
302.715
305.087
311.803
330.362
376.945
470.497
608.414
763.322
914.965
1057.74
1188.13
1299.73
1394.6
1474.57
1538.01
1588.74
1631.65
1668.46
1700.56
1728.93
1754.29
1777.17
1797.97
1817.02
1834.55
1850.77
1865.84
1879.9
1893.05
1905.4
1917.02
1927.99
1938.37
1948.2
1957.53
1966.41
1974.87
1982.94
1990.64
1997.99
2004.82
2011.25
2017.48
2023.5
2029.33
2034.97
2040.44
2045.74
2050.89
2055.89
2060.75
2065.48
2070.07
2074.55
2078.91
2083.15
2087.29
2091.33
2095.27
2099.11
2102.87
2106.54
2110.13
2113.63
2117.06
2120.42
2123.7
2126.92
2130.07
2133.16
2136.18
2139.15
2142.05
2144.91
2147.7
2150.45
2153.15
2155.79
2158.39
2160.94
2163.45
2165.92
2168.34
2170.72
2173.07
2175.37
2177.64
2179.87
2182.06
2184.22
2186.35
2188.44
2190.5
2192.53
2194.53
2196.5
2198.45
2200.36
2202.24
2204.1
2205.93
2207.73
2209.51
2211.26
2212.98
2214.69
2216.38
2218.05
2219.7
2221.32
2222.92
2224.5
2226.07
2227.61
2229.14
2230.64
2232.13
2233.6
2235.05
2236.49
2237.9
2239.31
2240.69
2242.06
2243.42
2244.76
2246.08
2247.39
2248.69
2249.97
2251.24
2252.49
2253.74
2254.96
2256.18
2257.38
2258.57
2259.75
2260.92
2262.07
2263.21
2264.34
2265.46
2266.57
2267.67
2268.75
2269.83
2270.89
2271.94
2272.99
2274.02
2275.04
2276.05
2277.06
2278.05
2279.03
2280.01
2280.97
2281.93
2282.87
2283.81
2284.74
2285.66
2286.57
2287.48
2288.37
2289.26
2290.14
2291.01
2291.87
2292.72
2293.57
2294.41
2295.24
2296.06
2296.88
2297.68
2298.48
2299.27
2300.06
2300.83
2301.6
2302.36
2303.1
2303.84
2304.57
2305.29
2306
2306.7
2307.39
2308.07
2308.74
2309.39
2310.03
2310.67
2311.27
2311.91
2312.65
2313.29
2313.87
2314.43
2314.97
2315.5
2316.01
2316.51
2316.99
2317.46
2317.91
2318.35
2318.77
2319.18
2319.58
2319.96
2320.33
2320.69
2321.04
2321.38
2321.72
2322.05
2322.38
2322.7
2323.03
2323.37
2323.7
2324.04
2324.36
2324.65
2324.83
)
;

boundaryField
{
    boundary
    {
        type            empty;
    }
    inlet
    {
        type            fixedValue;
        value           uniform 300;
    }
    outlet
    {
        type            zeroGradient;
    }
}


// ************************************************************************* //
