/*--------------------------------*- C++ -*----------------------------------*\
  =========                 |
  \\      /  F ield         | OpenFOAM: The Open Source CFD Toolbox
   \\    /   O peration     | Website:  https://openfoam.org
    \\  /    A nd           | Version:  7
     \\/     M anipulation  |
\*---------------------------------------------------------------------------*/
FoamFile
{
    version     2.0;
    format      ascii;
    class       volScalarField;
    location    "0.00067";
    object      H;
}
// * * * * * * * * * * * * * * * * * * * * * * * * * * * * * * * * * * * * * //

dimensions      [0 0 0 0 0 0 0];

internalField   nonuniform List<scalar> 
500
(
1.4839e-41
2.00687e-41
2.11601e-41
2.13572e-41
2.13617e-41
2.1327e-41
2.12874e-41
2.12519e-41
2.12229e-41
2.12014e-41
2.11878e-41
2.11818e-41
2.1183e-41
2.11908e-41
2.12045e-41
2.12234e-41
2.12469e-41
2.12746e-41
2.13063e-41
2.13421e-41
2.13822e-41
2.1427e-41
2.14774e-41
2.15341e-41
2.15984e-41
2.16716e-41
2.17553e-41
2.18509e-41
2.19603e-41
2.20853e-41
2.22278e-41
2.23896e-41
2.25724e-41
2.27781e-41
2.3008e-41
2.32633e-41
2.35451e-41
2.38537e-41
2.41893e-41
2.45514e-41
2.49392e-41
2.53511e-41
2.5785e-41
2.62383e-41
2.67078e-41
2.71899e-41
2.76805e-41
2.81752e-41
2.86696e-41
2.9159e-41
2.96389e-41
3.01051e-41
3.05536e-41
3.09809e-41
3.13841e-41
3.17608e-41
3.21095e-41
3.24291e-41
3.27193e-41
3.29802e-41
3.32126e-41
3.34177e-41
3.35971e-41
3.37525e-41
3.38859e-41
3.39995e-41
3.40953e-41
3.41755e-41
3.4242e-41
3.42967e-41
3.43413e-41
3.43775e-41
3.44065e-41
3.44296e-41
3.44479e-41
3.44623e-41
3.44735e-41
3.44822e-41
3.44889e-41
3.44941e-41
3.4498e-41
3.45011e-41
3.45034e-41
3.45051e-41
3.45065e-41
3.45076e-41
3.45085e-41
3.45092e-41
3.45098e-41
3.45103e-41
3.45108e-41
3.45113e-41
3.45117e-41
3.45121e-41
3.45126e-41
3.4513e-41
3.45135e-41
3.45139e-41
3.45144e-41
3.45149e-41
3.45154e-41
3.4516e-41
3.45165e-41
3.45171e-41
3.45177e-41
3.45184e-41
3.4519e-41
3.45197e-41
3.45204e-41
3.45212e-41
3.45219e-41
3.45227e-41
3.45235e-41
3.45244e-41
3.45253e-41
3.45262e-41
3.45271e-41
3.45281e-41
3.45292e-41
3.45302e-41
3.45314e-41
3.45327e-41
3.45345e-41
3.45371e-41
3.45413e-41
3.45461e-41
3.45486e-41
3.45506e-41
3.45521e-41
3.45532e-41
3.45538e-41
3.45542e-41
3.45545e-41
3.45546e-41
3.45548e-41
3.45552e-41
3.45557e-41
3.45564e-41
3.45573e-41
3.45585e-41
3.45599e-41
3.45616e-41
3.45634e-41
3.45653e-41
3.45674e-41
3.45695e-41
3.45717e-41
3.45739e-41
3.45761e-41
3.45783e-41
3.45805e-41
3.45827e-41
3.4585e-41
3.45872e-41
3.45894e-41
3.45917e-41
3.4594e-41
3.45962e-41
3.45985e-41
3.46009e-41
3.46032e-41
3.46056e-41
3.4608e-41
3.46104e-41
3.46129e-41
3.46153e-41
3.46179e-41
3.46204e-41
3.4623e-41
3.46255e-41
3.46281e-41
3.46308e-41
3.46334e-41
3.4636e-41
3.46386e-41
3.46412e-41
3.46438e-41
3.46464e-41
3.46489e-41
3.46514e-41
3.46538e-41
3.46562e-41
3.46585e-41
3.46607e-41
3.46629e-41
3.46649e-41
3.46669e-41
3.46687e-41
3.46704e-41
3.4672e-41
3.46735e-41
3.46749e-41
3.46761e-41
3.46771e-41
3.4678e-41
3.46787e-41
3.46793e-41
3.46797e-41
3.46799e-41
3.46798e-41
3.46796e-41
3.46791e-41
3.46785e-41
3.46775e-41
3.46764e-41
3.46749e-41
3.46732e-41
3.46712e-41
3.4669e-41
3.46667e-41
3.46648e-41
3.46652e-41
3.46745e-41
3.4716e-41
3.48709e-41
3.54209e-41
3.73346e-41
4.39256e-41
6.64539e-41
1.42949e-40
4.01072e-40
1.26684e-39
4.15365e-39
1.37245e-38
4.52794e-38
1.48756e-37
4.86325e-37
1.58208e-36
5.12196e-36
1.65057e-35
5.2957e-35
1.69202e-34
5.38506e-34
1.70762e-33
5.39665e-33
1.70025e-32
5.34179e-32
1.67411e-31
5.23546e-31
1.63447e-30
5.09625e-30
1.58794e-29
4.94823e-29
1.54357e-28
4.82666e-28
1.51562e-27
4.79101e-27
1.52957e-26
4.95269e-26
1.6348e-25
5.53281e-25
1.94072e-24
7.02696e-24
2.63776e-23
1.02746e-22
4.14207e-22
1.72014e-21
7.31899e-21
3.1742e-20
1.3972e-19
6.22288e-19
2.79941e-18
1.27149e-17
5.8371e-17
2.71573e-16
1.28634e-15
6.24321e-15
3.12994e-14
1.63467e-13
9.20659e-13
6.12514e-12
5.33841e-11
5.20595e-10
4.85632e-09
4.5343e-08
4.09928e-07
3.34478e-06
2.18309e-05
9.67855e-05
0.000268014
0.000530955
0.000864956
0.00122822
0.00155133
0.00177749
0.00189746
0.00192934
0.00190532
0.00184986
0.00177935
0.0017037
0.00162842
0.00155633
0.0014887
0.00142592
0.00136794
0.00131448
0.00126517
0.00121962
0.00117746
0.00113835
0.00110196
0.00106803
0.00103631
0.00100659
0.000978675
0.000952408
0.000927639
0.000904241
0.0008821
0.000861115
0.000841196
0.000822818
0.000805698
0.000789269
0.00077349
0.000758322
0.000743729
0.000729678
0.000716138
0.000703081
0.00069048
0.000678311
0.000666552
0.00065518
0.000644177
0.000633523
0.000623203
0.000613201
0.0006035
0.000594088
0.00058495
0.000576076
0.000567453
0.00055907
0.000550917
0.000542985
0.000535264
0.000527747
0.000520424
0.000513288
0.000506331
0.000499548
0.000492931
0.000486475
0.000480172
0.000474018
0.000468008
0.000462136
0.000456398
0.000450789
0.000445304
0.00043994
0.000434692
0.000429556
0.00042453
0.000419609
0.000414791
0.000410071
0.000405448
0.000400917
0.000396477
0.000392125
0.000387857
0.000383672
0.000379568
0.000375541
0.000371591
0.000367714
0.000363909
0.000360174
0.000356508
0.000352909
0.000349375
0.000345905
0.000342498
0.000339146
0.000335844
0.000332599
0.000329409
0.000326273
0.000323189
0.000320157
0.000317174
0.00031424
0.000311353
0.000308513
0.000305718
0.000302968
0.000300261
0.000297597
0.000294973
0.000292391
0.000289848
0.000287344
0.000284878
0.000282449
0.000280056
0.0002777
0.000275378
0.00027309
0.000270836
0.000268614
0.000266425
0.000264267
0.000262141
0.000260044
0.000257978
0.000255941
0.000253932
0.000251952
0.000249999
0.000248074
0.000246175
0.000244303
0.000242456
0.000240635
0.000238839
0.000237067
0.00023532
0.000233597
0.000231897
0.00023022
0.000228566
0.000226935
0.000225326
0.000223739
0.000222173
0.000220629
0.000219106
0.000217604
0.000216123
0.000214662
0.000213221
0.0002118
0.000210399
0.000209017
0.000207655
0.000206312
0.000204988
0.000203683
0.000202397
0.000201129
0.00019988
0.000198649
0.000197436
0.000196241
0.000195063
0.000193904
0.000192762
0.000191638
0.000190531
0.000189441
0.000188368
0.000187312
0.000186272
0.000185248
0.00018424
0.000183245
0.000182258
0.000181275
0.000180198
0.000179248
0.000178319
0.000177407
0.000176511
0.000175628
0.000174758
0.000173901
0.000173056
0.000172223
0.0001714
0.000170589
0.000169787
0.000168995
0.000168212
0.000167438
0.000166672
0.000165913
0.000165161
0.000164416
0.000163677
0.000162943
0.000162214
0.000161489
0.000160768
0.000160052
0.000159338
0.000158628
0.000157921
0.000157218
0.00015652
0.000155829
0.000155147
0.000154479
0.000153836
0.000153231
0.000152691
0.000152257
0.000151997
)
;

boundaryField
{
    boundary
    {
        type            empty;
    }
    inlet
    {
        type            fixedValue;
        value           uniform 0;
    }
    outlet
    {
        type            zeroGradient;
    }
}


// ************************************************************************* //
