/*--------------------------------*- C++ -*----------------------------------*\
  =========                 |
  \\      /  F ield         | OpenFOAM: The Open Source CFD Toolbox
   \\    /   O peration     | Website:  https://openfoam.org
    \\  /    A nd           | Version:  7
     \\/     M anipulation  |
\*---------------------------------------------------------------------------*/
FoamFile
{
    version     2.0;
    format      ascii;
    class       volScalarField;
    location    "0.00067";
    object      H2;
}
// * * * * * * * * * * * * * * * * * * * * * * * * * * * * * * * * * * * * * //

dimensions      [0 0 0 0 0 0 0];

internalField   nonuniform List<scalar> 
500
(
0.0285116
0.0285116
0.0285116
0.0285116
0.0285116
0.0285116
0.0285116
0.0285116
0.0285116
0.0285116
0.0285116
0.0285116
0.0285116
0.0285116
0.0285116
0.0285116
0.0285116
0.0285116
0.0285116
0.0285116
0.0285116
0.0285116
0.0285116
0.0285116
0.0285116
0.0285116
0.0285116
0.0285116
0.0285116
0.0285116
0.0285116
0.0285116
0.0285116
0.0285116
0.0285116
0.0285116
0.0285116
0.0285116
0.0285116
0.0285116
0.0285116
0.0285116
0.0285116
0.0285116
0.0285116
0.0285116
0.0285116
0.0285116
0.0285116
0.0285116
0.0285116
0.0285116
0.0285116
0.0285116
0.0285116
0.0285116
0.0285116
0.0285116
0.0285116
0.0285116
0.0285116
0.0285116
0.0285116
0.0285116
0.0285116
0.0285116
0.0285116
0.0285116
0.0285116
0.0285116
0.0285116
0.0285116
0.0285116
0.0285116
0.0285116
0.0285116
0.0285116
0.0285116
0.0285116
0.0285116
0.0285116
0.0285116
0.0285116
0.0285116
0.0285116
0.0285116
0.0285116
0.0285116
0.0285116
0.0285116
0.0285116
0.0285116
0.0285116
0.0285116
0.0285116
0.0285116
0.0285116
0.0285116
0.0285116
0.0285116
0.0285116
0.0285116
0.0285116
0.0285116
0.0285116
0.0285116
0.0285116
0.0285116
0.0285116
0.0285116
0.0285116
0.0285116
0.0285116
0.0285116
0.0285116
0.0285116
0.0285116
0.0285116
0.0285116
0.0285116
0.0285116
0.0285116
0.0285116
0.0285116
0.0285116
0.0285116
0.0285116
0.0285116
0.0285116
0.0285116
0.0285116
0.0285116
0.0285116
0.0285116
0.0285116
0.0285116
0.0285116
0.0285116
0.0285116
0.0285116
0.0285116
0.0285116
0.0285116
0.0285116
0.0285116
0.0285116
0.0285116
0.0285116
0.0285116
0.0285116
0.0285116
0.0285116
0.0285116
0.0285116
0.0285116
0.0285116
0.0285116
0.0285116
0.0285116
0.0285116
0.0285116
0.0285116
0.0285116
0.0285116
0.0285116
0.0285116
0.0285116
0.0285116
0.0285116
0.0285116
0.0285116
0.0285116
0.0285116
0.0285116
0.0285116
0.0285116
0.0285116
0.0285116
0.0285116
0.0285116
0.0285116
0.0285116
0.0285116
0.0285116
0.0285116
0.0285116
0.0285116
0.0285116
0.0285116
0.0285116
0.0285116
0.0285116
0.0285116
0.0285116
0.0285116
0.0285116
0.0285116
0.0285116
0.0285116
0.0285116
0.0285116
0.0285116
0.0285116
0.0285116
0.0285116
0.0285116
0.0285116
0.0285116
0.0285116
0.0285116
0.0285116
0.0285116
0.0285116
0.0285116
0.0285116
0.0285116
0.0285116
0.0285116
0.0285116
0.0285116
0.0285116
0.0285116
0.0285116
0.0285116
0.0285116
0.0285116
0.0285116
0.0285116
0.0285116
0.0285116
0.0285116
0.0285116
0.0285116
0.0285116
0.0285116
0.0285116
0.0285116
0.0285116
0.0285116
0.0285116
0.0285116
0.0285116
0.0285116
0.0285116
0.0285116
0.0285116
0.0285116
0.0285116
0.0285116
0.0285116
0.0285116
0.0285116
0.0285116
0.0285116
0.0285116
0.0285116
0.0285116
0.0285116
0.0285116
0.0285116
0.0285116
0.0285116
0.0285115
0.0285115
0.0285113
0.0285111
0.0285105
0.0285093
0.0285069
0.0285018
0.0284912
0.0284692
0.0284236
0.0283292
0.0281357
0.0277488
0.0270171
0.0257657
0.0238989
0.0215268
0.018803
0.0158111
0.012753
0.00999347
0.00782831
0.00626496
0.00527004
0.00464492
0.00425888
0.00402051
0.00387093
0.00377387
0.00370754
0.00365905
0.00362084
0.00358856
0.00355967
0.00353277
0.00350705
0.00348205
0.00345756
0.00343345
0.00340966
0.00338616
0.00336296
0.00334006
0.00331746
0.00329518
0.00327322
0.00325159
0.00323029
0.00320933
0.00318934
0.00317013
0.00315117
0.00313246
0.003114
0.00309579
0.00307782
0.00306009
0.0030426
0.00302535
0.00300834
0.00299155
0.002975
0.00295867
0.00294257
0.00292668
0.002911
0.00289554
0.00288028
0.00286522
0.00285037
0.0028357
0.00282123
0.00280695
0.00279284
0.00277892
0.00276518
0.0027516
0.0027382
0.00272496
0.00271188
0.00269896
0.0026862
0.00267359
0.00266114
0.00264883
0.00263666
0.00262463
0.00261275
0.002601
0.00258938
0.0025779
0.00256654
0.00255531
0.0025442
0.00253322
0.00252235
0.0025116
0.00250097
0.00249045
0.00248004
0.00246974
0.00245954
0.00244945
0.00243947
0.00242958
0.0024198
0.00241011
0.00240053
0.00239104
0.00238164
0.00237234
0.00236313
0.00235402
0.00234498
0.002336
0.00232709
0.00231827
0.00230953
0.00230087
0.00229229
0.00228378
0.00227535
0.00226699
0.00225871
0.0022505
0.00224236
0.00223429
0.00222629
0.00221836
0.0022105
0.00220271
0.00219499
0.00218733
0.00217974
0.00217221
0.00216475
0.00215736
0.00215003
0.00214276
0.00213556
0.00212842
0.00212134
0.00211433
0.00210738
0.00210049
0.00209367
0.0020869
0.0020802
0.00207356
0.00206699
0.00206047
0.00205402
0.00204763
0.0020413
0.00203503
0.00202883
0.00202268
0.0020166
0.00201058
0.00200463
0.00199873
0.0019929
0.00198714
0.00198143
0.00197579
0.00197022
0.00196471
0.00195927
0.00195389
0.00194859
0.00194335
0.00193818
0.00193308
0.00192806
0.0019231
0.00191822
0.00191342
0.0019087
0.00190405
0.00189949
0.00189501
0.00189061
0.0018863
0.00188208
0.00187796
0.00187393
0.00186999
0.00186616
0.00186243
0.0018588
0.00185528
0.00185188
0.0018486
0.00184543
0.0018424
0.0018395
0.00183676
0.00183422
0.00183146
0.00182916
0.00182698
0.00182494
0.00182304
0.00182129
0.0018197
0.00181827
0.001817
0.0018159
0.00181498
0.00181422
0.00181365
0.00181324
0.00181302
0.00181298
0.00181312
0.00181344
0.00181394
0.00181462
0.00181548
0.00181651
0.00181772
0.0018191
0.00182064
0.00182235
0.00182422
0.00182623
0.0018284
0.00183071
0.00183315
0.00183571
0.00183838
0.00184113
0.00184391
0.00184666
0.00184923
0.00185139
0.00185275
)
;

boundaryField
{
    boundary
    {
        type            empty;
    }
    inlet
    {
        type            fixedValue;
        value           uniform 0.0285116;
    }
    outlet
    {
        type            zeroGradient;
    }
}


// ************************************************************************* //
