/*--------------------------------*- C++ -*----------------------------------*\
  =========                 |
  \\      /  F ield         | OpenFOAM: The Open Source CFD Toolbox
   \\    /   O peration     | Website:  https://openfoam.org
    \\  /    A nd           | Version:  7
     \\/     M anipulation  |
\*---------------------------------------------------------------------------*/
FoamFile
{
    version     2.0;
    format      ascii;
    class       volScalarField;
    location    "0.00067";
    object      H2O2;
}
// * * * * * * * * * * * * * * * * * * * * * * * * * * * * * * * * * * * * * //

dimensions      [0 0 0 0 0 0 0];

internalField   nonuniform List<scalar> 
500
(
1.9841e-52
6.36663e-52
1.26431e-51
2.08117e-51
3.08745e-51
4.28375e-51
5.67114e-51
7.25098e-51
9.02485e-51
1.09944e-50
1.31613e-50
1.55271e-50
1.80933e-50
2.08613e-50
2.38327e-50
2.70093e-50
3.03933e-50
3.39874e-50
3.77953e-50
4.18219e-50
4.60732e-50
5.05569e-50
5.52827e-50
6.02621e-50
6.55089e-50
7.10391e-50
7.68709e-50
8.30247e-50
8.95224e-50
9.63871e-50
1.03642e-49
1.11311e-49
1.19415e-49
1.27972e-49
1.36995e-49
1.46492e-49
1.56462e-49
1.66896e-49
1.77772e-49
1.89059e-49
2.00712e-49
2.12675e-49
2.24881e-49
2.3725e-49
2.49694e-49
2.62121e-49
2.7443e-49
2.86524e-49
2.98304e-49
3.09678e-49
3.20561e-49
3.3088e-49
3.40573e-49
3.49593e-49
3.57906e-49
3.65495e-49
3.72356e-49
3.785e-49
3.8395e-49
3.88736e-49
3.929e-49
3.96489e-49
3.99552e-49
4.02141e-49
4.04311e-49
4.06112e-49
4.07593e-49
4.08799e-49
4.09774e-49
4.10555e-49
4.11174e-49
4.11661e-49
4.12042e-49
4.12336e-49
4.12562e-49
4.12734e-49
4.12864e-49
4.12961e-49
4.13034e-49
4.13089e-49
4.13129e-49
4.13158e-49
4.1318e-49
4.13196e-49
4.13209e-49
4.13218e-49
4.13226e-49
4.13232e-49
4.13237e-49
4.13242e-49
4.13246e-49
4.13251e-49
4.13255e-49
4.13259e-49
4.13264e-49
4.13269e-49
4.13274e-49
4.13279e-49
4.13284e-49
4.1329e-49
4.13296e-49
4.13303e-49
4.13309e-49
4.13316e-49
4.13324e-49
4.13332e-49
4.1334e-49
4.13349e-49
4.13358e-49
4.13367e-49
4.13377e-49
4.13388e-49
4.13399e-49
4.1341e-49
4.13422e-49
4.13434e-49
4.13447e-49
4.1346e-49
4.13474e-49
4.13488e-49
4.135e-49
4.13505e-49
4.1348e-49
4.13335e-49
4.12713e-49
4.11472e-49
4.11491e-49
4.1151e-49
4.11529e-49
4.11548e-49
4.11568e-49
4.11588e-49
4.1161e-49
4.11635e-49
4.11664e-49
4.11698e-49
4.11738e-49
4.11787e-49
4.11845e-49
4.11914e-49
4.11995e-49
4.12088e-49
4.12194e-49
4.12311e-49
4.12437e-49
4.12572e-49
4.1271e-49
4.1285e-49
4.12986e-49
4.13116e-49
4.13236e-49
4.13343e-49
4.13435e-49
4.13509e-49
4.13568e-49
4.1361e-49
4.13638e-49
4.13654e-49
4.13662e-49
4.13664e-49
4.13664e-49
4.13665e-49
4.13671e-49
4.13684e-49
4.13706e-49
4.13738e-49
4.13781e-49
4.13835e-49
4.139e-49
4.13975e-49
4.14059e-49
4.1415e-49
4.14247e-49
4.14348e-49
4.14451e-49
4.14554e-49
4.14656e-49
4.14756e-49
4.14853e-49
4.14945e-49
4.15032e-49
4.15113e-49
4.15189e-49
4.15259e-49
4.15323e-49
4.15381e-49
4.15433e-49
4.1548e-49
4.15522e-49
4.15558e-49
4.15591e-49
4.15619e-49
4.15643e-49
4.15663e-49
4.15679e-49
4.15691e-49
4.157e-49
4.15706e-49
4.15707e-49
4.15705e-49
4.15701e-49
4.15697e-49
4.15716e-49
4.15881e-49
4.16869e-49
4.2237e-49
4.52367e-49
6.14129e-49
1.47872e-48
6.0613e-48
3.015e-47
1.55735e-46
8.05107e-46
4.13547e-45
2.10768e-44
1.0656e-43
5.34431e-43
2.65902e-42
1.31255e-41
6.42845e-41
3.12419e-40
1.50679e-39
7.21285e-39
3.42732e-38
1.61681e-37
7.57333e-37
3.52304e-36
1.62791e-35
7.47341e-35
3.40938e-34
1.54599e-33
6.96989e-33
3.12499e-32
1.3938e-31
6.18607e-31
2.73291e-30
1.20218e-29
5.26737e-29
2.29952e-28
1.00055e-27
4.34052e-27
1.87792e-26
8.10545e-26
3.49111e-25
1.5009e-24
6.44248e-24
2.76162e-23
1.18243e-22
5.05792e-22
2.16184e-21
9.23419e-21
3.96676e-20
1.69753e-19
7.24725e-19
3.09181e-18
1.31851e-17
5.62086e-17
2.3953e-16
1.02028e-15
4.34351e-15
1.84784e-14
7.85465e-14
3.33549e-13
1.4148e-12
5.99335e-12
2.53532e-11
1.07092e-10
4.51691e-10
1.90246e-09
8.00267e-09
3.3623e-08
1.41055e-07
5.89707e-07
2.43693e-06
9.66678e-06
3.35729e-05
8.19948e-05
0.000118296
0.000117187
7.30895e-05
3.28237e-05
1.31396e-05
6.23529e-06
4.51622e-06
4.58809e-06
5.20769e-06
5.82335e-06
6.29717e-06
6.59791e-06
6.74666e-06
6.7784e-06
6.72633e-06
6.61721e-06
6.47098e-06
6.30179e-06
6.11972e-06
5.93168e-06
5.74235e-06
5.55493e-06
5.37152e-06
5.19349e-06
5.02168e-06
4.85658e-06
4.69839e-06
4.54716e-06
4.40283e-06
4.26522e-06
4.13411e-06
4.00925e-06
3.8904e-06
3.77732e-06
3.6698e-06
3.57073e-06
3.47757e-06
3.3882e-06
3.30242e-06
3.22004e-06
3.1409e-06
3.06484e-06
2.9917e-06
2.92135e-06
2.85364e-06
2.78846e-06
2.72567e-06
2.66516e-06
2.60683e-06
2.55057e-06
2.49628e-06
2.44388e-06
2.39327e-06
2.34437e-06
2.29711e-06
2.25141e-06
2.2072e-06
2.16442e-06
2.12301e-06
2.0829e-06
2.04404e-06
2.00637e-06
1.96985e-06
1.93443e-06
1.90006e-06
1.8667e-06
1.83431e-06
1.80285e-06
1.77228e-06
1.74257e-06
1.71369e-06
1.6856e-06
1.65828e-06
1.63169e-06
1.6058e-06
1.5806e-06
1.55606e-06
1.53214e-06
1.50884e-06
1.48613e-06
1.46398e-06
1.44238e-06
1.42132e-06
1.40076e-06
1.3807e-06
1.36111e-06
1.34199e-06
1.32332e-06
1.30507e-06
1.28725e-06
1.26983e-06
1.25281e-06
1.23616e-06
1.21989e-06
1.20398e-06
1.18841e-06
1.17319e-06
1.15829e-06
1.14373e-06
1.12946e-06
1.11547e-06
1.10176e-06
1.08834e-06
1.07519e-06
1.0623e-06
1.04967e-06
1.0373e-06
1.02517e-06
1.01328e-06
1.00161e-06
9.90179e-07
9.78963e-07
9.6796e-07
9.57165e-07
9.46573e-07
9.36178e-07
9.25975e-07
9.15959e-07
9.06126e-07
8.9647e-07
8.86987e-07
8.77673e-07
8.68523e-07
8.59534e-07
8.507e-07
8.4202e-07
8.33488e-07
8.25101e-07
8.16856e-07
8.08748e-07
8.00776e-07
7.92935e-07
7.85222e-07
7.77635e-07
7.7017e-07
7.62824e-07
7.55596e-07
7.48482e-07
7.41479e-07
7.34585e-07
7.27797e-07
7.21114e-07
7.14533e-07
7.08051e-07
7.01667e-07
6.95378e-07
6.89183e-07
6.83079e-07
6.77064e-07
6.71137e-07
6.65296e-07
6.59538e-07
6.53862e-07
6.48267e-07
6.42751e-07
6.37311e-07
6.31947e-07
6.26657e-07
6.21439e-07
6.16291e-07
6.11213e-07
6.06202e-07
6.01257e-07
5.96377e-07
5.9156e-07
5.86805e-07
5.8211e-07
5.77473e-07
5.72894e-07
5.6837e-07
5.63901e-07
5.59485e-07
5.55119e-07
5.50804e-07
5.46538e-07
5.42317e-07
5.38142e-07
5.34011e-07
5.2992e-07
5.25868e-07
5.21855e-07
5.17886e-07
5.13892e-07
5.10062e-07
5.04803e-07
5.00955e-07
4.97087e-07
4.93221e-07
4.89365e-07
4.85521e-07
4.81687e-07
4.77861e-07
4.74041e-07
4.70224e-07
4.66407e-07
4.62588e-07
4.58763e-07
4.54931e-07
4.51088e-07
4.47232e-07
4.43361e-07
4.39471e-07
4.35562e-07
4.31631e-07
4.27675e-07
4.23692e-07
4.19683e-07
4.15643e-07
4.11574e-07
4.07475e-07
4.03345e-07
3.99186e-07
3.94998e-07
3.90784e-07
3.8655e-07
3.82303e-07
3.78059e-07
3.7384e-07
3.6969e-07
3.65685e-07
3.61964e-07
3.5879e-07
3.56678e-07
)
;

boundaryField
{
    boundary
    {
        type            empty;
    }
    inlet
    {
        type            fixedValue;
        value           uniform 0;
    }
    outlet
    {
        type            zeroGradient;
    }
}


// ************************************************************************* //
