/*--------------------------------*- C++ -*----------------------------------*\
  =========                 |
  \\      /  F ield         | OpenFOAM: The Open Source CFD Toolbox
   \\    /   O peration     | Website:  https://openfoam.org
    \\  /    A nd           | Version:  7
     \\/     M anipulation  |
\*---------------------------------------------------------------------------*/
FoamFile
{
    version     2.0;
    format      ascii;
    class       volScalarField;
    location    "0.00067";
    object      HO2;
}
// * * * * * * * * * * * * * * * * * * * * * * * * * * * * * * * * * * * * * //

dimensions      [0 0 0 0 0 0 0];

internalField   nonuniform List<scalar> 
500
(
5.57959e-38
1.26817e-37
1.97937e-37
2.68977e-37
3.39939e-37
4.10874e-37
4.81843e-37
5.52914e-37
6.24145e-37
6.95583e-37
7.67263e-37
8.39209e-37
9.11429e-37
9.83928e-37
1.0567e-36
1.12976e-36
1.20311e-36
1.27675e-36
1.35074e-36
1.42511e-36
1.49993e-36
1.57529e-36
1.65131e-36
1.72813e-36
1.80591e-36
1.88483e-36
1.96512e-36
2.04701e-36
2.13074e-36
2.21658e-36
2.30479e-36
2.3956e-36
2.48926e-36
2.58596e-36
2.68583e-36
2.78895e-36
2.89532e-36
3.00484e-36
3.11733e-36
3.23247e-36
3.34985e-36
3.46896e-36
3.58917e-36
3.70978e-36
3.83002e-36
3.94906e-36
4.06606e-36
4.18019e-36
4.29062e-36
4.3966e-36
4.49746e-36
4.59262e-36
4.68162e-36
4.76411e-36
4.83989e-36
4.90887e-36
4.97109e-36
5.0267e-36
5.07594e-36
5.11915e-36
5.15673e-36
5.1891e-36
5.21673e-36
5.24011e-36
5.25971e-36
5.276e-36
5.28942e-36
5.30037e-36
5.30924e-36
5.31636e-36
5.32202e-36
5.32649e-36
5.32998e-36
5.3327e-36
5.33479e-36
5.33639e-36
5.3376e-36
5.33852e-36
5.3392e-36
5.33972e-36
5.3401e-36
5.34038e-36
5.34059e-36
5.34075e-36
5.34087e-36
5.34096e-36
5.34103e-36
5.34109e-36
5.34114e-36
5.34119e-36
5.34123e-36
5.34127e-36
5.34131e-36
5.34136e-36
5.3414e-36
5.34144e-36
5.34149e-36
5.34154e-36
5.34159e-36
5.34164e-36
5.3417e-36
5.34176e-36
5.34182e-36
5.34189e-36
5.34196e-36
5.34203e-36
5.34211e-36
5.34219e-36
5.34227e-36
5.34236e-36
5.34245e-36
5.34255e-36
5.34265e-36
5.34275e-36
5.34286e-36
5.34297e-36
5.34309e-36
5.34321e-36
5.34334e-36
5.34347e-36
5.34359e-36
5.34366e-36
5.34354e-36
5.34264e-36
5.33865e-36
5.33068e-36
5.33085e-36
5.33103e-36
5.3312e-36
5.33137e-36
5.33154e-36
5.33171e-36
5.3319e-36
5.3321e-36
5.33234e-36
5.33261e-36
5.33293e-36
5.33332e-36
5.33377e-36
5.33431e-36
5.33492e-36
5.33562e-36
5.33641e-36
5.33726e-36
5.33818e-36
5.33914e-36
5.34012e-36
5.3411e-36
5.34204e-36
5.34293e-36
5.34374e-36
5.34445e-36
5.34505e-36
5.34554e-36
5.34591e-36
5.34618e-36
5.34637e-36
5.34648e-36
5.34654e-36
5.34659e-36
5.34663e-36
5.34671e-36
5.34682e-36
5.347e-36
5.34725e-36
5.34759e-36
5.348e-36
5.34851e-36
5.34908e-36
5.34973e-36
5.35044e-36
5.3512e-36
5.35199e-36
5.35281e-36
5.35363e-36
5.35445e-36
5.35526e-36
5.35605e-36
5.35681e-36
5.35753e-36
5.35821e-36
5.35886e-36
5.35945e-36
5.36e-36
5.36051e-36
5.36097e-36
5.36139e-36
5.36177e-36
5.36211e-36
5.36242e-36
5.36268e-36
5.36292e-36
5.36312e-36
5.36329e-36
5.36342e-36
5.36353e-36
5.36361e-36
5.36365e-36
5.36366e-36
5.36364e-36
5.36359e-36
5.3635e-36
5.36338e-36
5.36322e-36
5.36303e-36
5.36279e-36
5.36252e-36
5.3622e-36
5.36184e-36
5.36143e-36
5.36098e-36
5.36049e-36
5.35998e-36
5.35954e-36
5.35947e-36
5.36085e-36
5.36742e-36
5.39224e-36
5.48041e-36
5.78669e-36
6.83898e-36
1.04276e-35
2.25904e-35
6.35825e-35
2.01024e-34
6.59676e-34
2.18385e-33
7.23129e-33
2.39025e-32
7.8882e-32
2.60173e-31
8.5892e-31
2.84377e-30
9.46488e-30
3.17555e-29
1.07733e-28
3.70778e-28
1.29855e-27
4.63997e-27
1.69445e-26
6.32786e-26
2.41511e-25
9.40479e-25
3.72785e-24
1.49994e-23
6.10934e-23
2.51254e-22
1.04104e-21
4.3378e-21
1.81502e-20
7.61759e-20
3.22355e-19
1.36171e-18
5.74632e-18
2.42525e-17
1.02373e-16
4.32095e-16
1.82321e-15
7.68868e-15
3.23988e-14
1.36387e-13
5.73442e-13
2.40768e-12
1.00931e-11
4.22382e-11
1.76442e-10
7.35691e-10
3.06186e-09
1.27201e-08
5.27401e-08
2.18068e-07
8.96531e-07
3.6389e-06
1.43802e-05
5.34035e-05
0.000171702
0.000397043
0.00052045
0.000472493
0.000363335
0.000259698
0.000182266
0.000127494
8.89728e-05
6.26102e-05
4.41455e-05
3.28729e-05
2.56541e-05
2.0958e-05
1.78099e-05
1.56152e-05
1.40177e-05
1.28046e-05
1.18471e-05
1.10663e-05
1.04121e-05
9.85217e-06
9.36468e-06
8.9346e-06
8.55113e-06
8.20632e-06
7.89409e-06
7.60974e-06
7.34951e-06
7.11034e-06
6.88972e-06
6.68553e-06
6.496e-06
6.31961e-06
6.15507e-06
6.00131e-06
5.85746e-06
5.7268e-06
5.60535e-06
5.49006e-06
5.38047e-06
5.27616e-06
5.17675e-06
5.0819e-06
4.9913e-06
4.90467e-06
4.82175e-06
4.74231e-06
4.66614e-06
4.59304e-06
4.52284e-06
4.45535e-06
4.39044e-06
4.32796e-06
4.26778e-06
4.20978e-06
4.15384e-06
4.09985e-06
4.04773e-06
3.99738e-06
3.94871e-06
3.90165e-06
3.85611e-06
3.81202e-06
3.76933e-06
3.72797e-06
3.68787e-06
3.64899e-06
3.61127e-06
3.57466e-06
3.53912e-06
3.50461e-06
3.47107e-06
3.43847e-06
3.40678e-06
3.37596e-06
3.34597e-06
3.31679e-06
3.28838e-06
3.26072e-06
3.23377e-06
3.20752e-06
3.18193e-06
3.15698e-06
3.13266e-06
3.10894e-06
3.08579e-06
3.06321e-06
3.04116e-06
3.01964e-06
2.99863e-06
2.97811e-06
2.95806e-06
2.93848e-06
2.91934e-06
2.90063e-06
2.88235e-06
2.86447e-06
2.847e-06
2.82991e-06
2.81321e-06
2.79686e-06
2.78084e-06
2.76517e-06
2.74984e-06
2.73483e-06
2.72013e-06
2.70574e-06
2.69166e-06
2.67786e-06
2.66434e-06
2.6511e-06
2.63813e-06
2.62542e-06
2.61297e-06
2.60076e-06
2.58879e-06
2.57706e-06
2.56555e-06
2.55427e-06
2.5432e-06
2.53234e-06
2.52168e-06
2.51122e-06
2.50095e-06
2.49087e-06
2.48097e-06
2.47124e-06
2.46168e-06
2.45229e-06
2.44307e-06
2.43399e-06
2.42507e-06
2.41629e-06
2.40766e-06
2.39916e-06
2.3908e-06
2.38257e-06
2.37446e-06
2.36647e-06
2.35861e-06
2.35085e-06
2.34321e-06
2.33568e-06
2.32825e-06
2.32092e-06
2.31369e-06
2.30656e-06
2.29952e-06
2.29257e-06
2.2857e-06
2.27892e-06
2.27222e-06
2.26559e-06
2.25904e-06
2.25256e-06
2.24615e-06
2.23981e-06
2.23352e-06
2.2273e-06
2.22113e-06
2.21501e-06
2.20893e-06
2.2029e-06
2.19691e-06
2.19095e-06
2.18502e-06
2.17911e-06
2.17322e-06
2.16734e-06
2.16147e-06
2.1556e-06
2.14972e-06
2.14382e-06
2.13791e-06
2.13196e-06
2.12597e-06
2.11994e-06
2.11385e-06
2.1077e-06
2.10148e-06
2.09517e-06
2.08879e-06
2.08232e-06
2.0758e-06
2.0688e-06
2.05905e-06
2.05192e-06
2.04458e-06
2.03702e-06
2.02925e-06
2.02124e-06
2.013e-06
2.00451e-06
1.99577e-06
1.98676e-06
1.97747e-06
1.9679e-06
1.95804e-06
1.94788e-06
1.93742e-06
1.92665e-06
1.91558e-06
1.90419e-06
1.8925e-06
1.88051e-06
1.86823e-06
1.85566e-06
1.84282e-06
1.82972e-06
1.81637e-06
1.80281e-06
1.78903e-06
1.77509e-06
1.76099e-06
1.74678e-06
1.73248e-06
1.71816e-06
1.70386e-06
1.68966e-06
1.67569e-06
1.66213e-06
1.64938e-06
1.63821e-06
1.6304e-06
)
;

boundaryField
{
    boundary
    {
        type            empty;
    }
    inlet
    {
        type            fixedValue;
        value           uniform 0;
    }
    outlet
    {
        type            zeroGradient;
    }
}


// ************************************************************************* //
