/*--------------------------------*- C++ -*----------------------------------*\
  =========                 |
  \\      /  F ield         | OpenFOAM: The Open Source CFD Toolbox
   \\    /   O peration     | Website:  https://openfoam.org
    \\  /    A nd           | Version:  7
     \\/     M anipulation  |
\*---------------------------------------------------------------------------*/
FoamFile
{
    version     2.0;
    format      ascii;
    class       volScalarField;
    location    "0.00067";
    object      O2;
}
// * * * * * * * * * * * * * * * * * * * * * * * * * * * * * * * * * * * * * //

dimensions      [0 0 0 0 0 0 0];

internalField   nonuniform List<scalar> 
500
(
0.226269
0.226269
0.226269
0.226269
0.226269
0.226269
0.226269
0.226269
0.226269
0.226269
0.226269
0.226269
0.226269
0.226269
0.226269
0.226269
0.226269
0.226269
0.226269
0.226269
0.226269
0.226269
0.226269
0.226269
0.226269
0.226269
0.226269
0.226269
0.226269
0.226269
0.226269
0.226269
0.226269
0.226269
0.226269
0.226269
0.226269
0.226269
0.226269
0.226269
0.226269
0.226269
0.226269
0.226269
0.226269
0.226269
0.226269
0.226269
0.226269
0.226269
0.226269
0.226269
0.226269
0.226269
0.226269
0.226269
0.226269
0.226269
0.226269
0.226269
0.226269
0.226269
0.226269
0.226269
0.226269
0.226269
0.226269
0.226269
0.226269
0.226269
0.226269
0.226269
0.226269
0.226269
0.226269
0.226269
0.226269
0.226269
0.226269
0.226269
0.226269
0.226269
0.226269
0.226269
0.226269
0.226269
0.226269
0.226269
0.226269
0.226269
0.226269
0.226269
0.226269
0.226269
0.226269
0.226269
0.226269
0.226269
0.226269
0.226269
0.226269
0.226269
0.226269
0.226269
0.226269
0.226269
0.226269
0.226269
0.226269
0.226269
0.226269
0.226269
0.226269
0.226269
0.226269
0.226269
0.226269
0.226269
0.226269
0.226269
0.226269
0.226269
0.226269
0.226269
0.226269
0.226269
0.226269
0.226269
0.226269
0.226269
0.226269
0.226269
0.226269
0.226269
0.226269
0.226269
0.226269
0.226269
0.226269
0.226269
0.226269
0.226269
0.226269
0.226269
0.226269
0.226269
0.226269
0.226269
0.226269
0.226269
0.226269
0.226269
0.226269
0.226269
0.226269
0.226269
0.226269
0.226269
0.226269
0.226269
0.226269
0.226269
0.226269
0.226269
0.226269
0.226269
0.226269
0.226269
0.226269
0.226269
0.226269
0.226269
0.226269
0.226269
0.226269
0.226269
0.226269
0.226269
0.226269
0.226269
0.226269
0.226269
0.226269
0.226269
0.226269
0.226269
0.226269
0.226269
0.226269
0.226269
0.226269
0.226269
0.226269
0.226269
0.226269
0.226269
0.226269
0.226269
0.226269
0.226269
0.226269
0.226269
0.226269
0.226269
0.226269
0.226269
0.226269
0.226269
0.226269
0.226269
0.226269
0.226269
0.226269
0.226269
0.226269
0.226269
0.226269
0.226269
0.226269
0.226269
0.226269
0.226269
0.226269
0.226269
0.226269
0.226269
0.226269
0.226269
0.226269
0.226269
0.226269
0.226269
0.226269
0.226269
0.226269
0.226269
0.226269
0.226269
0.226269
0.226269
0.226269
0.226269
0.226269
0.226269
0.226269
0.226269
0.226269
0.226269
0.226269
0.226269
0.226269
0.226269
0.226269
0.226269
0.226269
0.226269
0.226269
0.226269
0.226269
0.226269
0.226269
0.226269
0.226269
0.226269
0.226269
0.226269
0.226269
0.226269
0.22627
0.226271
0.226273
0.226276
0.226278
0.22626
0.226148
0.225666
0.224026
0.21963
0.210669
0.197811
0.181576
0.160758
0.135707
0.109993
0.087929
0.0698889
0.0578691
0.0496923
0.0441709
0.0403948
0.0377403
0.0358025
0.0343257
0.0331499
0.0321756
0.0313402
0.0306043
0.0299424
0.029338
0.0287797
0.0282601
0.0277734
0.0273156
0.0268835
0.0264746
0.0260868
0.0257182
0.0253673
0.0250328
0.0247136
0.0244086
0.0241171
0.0238471
0.0235911
0.0233434
0.0231037
0.0228715
0.0226463
0.0224277
0.0222154
0.0220091
0.0218084
0.021613
0.0214227
0.0212373
0.0210565
0.0208801
0.0207079
0.0205398
0.0203755
0.020215
0.0200579
0.0199043
0.019754
0.0196068
0.0194627
0.0193215
0.0191831
0.0190474
0.0189143
0.0187838
0.0186557
0.01853
0.0184065
0.0182853
0.0181661
0.0180491
0.017934
0.0178209
0.0177097
0.0176003
0.0174927
0.0173868
0.0172826
0.0171799
0.0170789
0.0169794
0.0168814
0.0167849
0.0166898
0.0165961
0.0165037
0.0164127
0.0163229
0.0162344
0.0161471
0.0160611
0.0159762
0.0158925
0.0158099
0.0157284
0.015648
0.0155686
0.0154904
0.0154131
0.0153369
0.0152617
0.0151874
0.0151141
0.0150417
0.0149703
0.0148998
0.0148301
0.0147613
0.0146934
0.0146263
0.01456
0.0144946
0.0144299
0.014366
0.0143029
0.0142405
0.0141788
0.0141178
0.0140576
0.0139979
0.013939
0.0138807
0.013823
0.0137659
0.0137094
0.0136535
0.0135982
0.0135434
0.0134891
0.0134353
0.013382
0.0133292
0.0132768
0.0132249
0.0131735
0.0131224
0.0130718
0.0130216
0.0129717
0.0129222
0.0128731
0.0128243
0.0127759
0.0127278
0.01268
0.0126325
0.0125853
0.0125384
0.0124917
0.0124453
0.0123992
0.0123533
0.0123076
0.0122621
0.0122168
0.0121717
0.0121268
0.012082
0.0120374
0.0119929
0.0119485
0.0119041
0.0118599
0.0118156
0.0117714
0.0117272
0.0116829
0.0116385
0.0115941
0.0115495
0.0115047
0.0114598
0.0114145
0.0113691
0.0113232
0.011277
0.0112304
0.0111834
0.0111358
0.0110877
0.011039
0.0109897
0.0109398
0.0108891
0.0108358
0.0107609
0.0107063
0.0106505
0.0105934
0.0105349
0.0104749
0.0104135
0.0103507
0.0102862
0.0102202
0.0101525
0.0100832
0.0100121
0.00993931
0.00986474
0.00978838
0.00971024
0.00963032
0.00954863
0.0094652
0.00938008
0.0092933
0.00920493
0.00911505
0.00902374
0.0089311
0.00883726
0.00874233
0.00864648
0.00854986
0.00845269
0.00835522
0.00825777
0.00816085
0.00806522
0.00797229
0.00788469
0.00780798
0.00775467
)
;

boundaryField
{
    boundary
    {
        type            empty;
    }
    inlet
    {
        type            fixedValue;
        value           uniform 0.226269;
    }
    outlet
    {
        type            zeroGradient;
    }
}


// ************************************************************************* //
