/*--------------------------------*- C++ -*----------------------------------*\
  =========                 |
  \\      /  F ield         | OpenFOAM: The Open Source CFD Toolbox
   \\    /   O peration     | Website:  https://openfoam.org
    \\  /    A nd           | Version:  7
     \\/     M anipulation  |
\*---------------------------------------------------------------------------*/
FoamFile
{
    version     2.0;
    format      ascii;
    class       surfaceScalarField;
    location    "0.00067";
    object      phi;
}
// * * * * * * * * * * * * * * * * * * * * * * * * * * * * * * * * * * * * * //

dimensions      [1 0 -1 0 0 0 0];

internalField   nonuniform List<scalar> 
499
(
6.93021e-06
6.93041e-06
6.93064e-06
6.93089e-06
6.93115e-06
6.93141e-06
6.93165e-06
6.93188e-06
6.93208e-06
6.93226e-06
6.93241e-06
6.93253e-06
6.93263e-06
6.9327e-06
6.93275e-06
6.93278e-06
6.93279e-06
6.93279e-06
6.93277e-06
6.93274e-06
6.93269e-06
6.93264e-06
6.93256e-06
6.93247e-06
6.93235e-06
6.9322e-06
6.93203e-06
6.93181e-06
6.93156e-06
6.93126e-06
6.9309e-06
6.93049e-06
6.93002e-06
6.92947e-06
6.92886e-06
6.92817e-06
6.92741e-06
6.92657e-06
6.92566e-06
6.92468e-06
6.92364e-06
6.92253e-06
6.92138e-06
6.92019e-06
6.91897e-06
6.91773e-06
6.91648e-06
6.91524e-06
6.91401e-06
6.91282e-06
6.91166e-06
6.91055e-06
6.9095e-06
6.90852e-06
6.9076e-06
6.90676e-06
6.90599e-06
6.9053e-06
6.90469e-06
6.90415e-06
6.90368e-06
6.90328e-06
6.90294e-06
6.90266e-06
6.90243e-06
6.90225e-06
6.90211e-06
6.90201e-06
6.90194e-06
6.90191e-06
6.90189e-06
6.9019e-06
6.90193e-06
6.90197e-06
6.90202e-06
6.90208e-06
6.90215e-06
6.90223e-06
6.90231e-06
6.9024e-06
6.90249e-06
6.90259e-06
6.90269e-06
6.90279e-06
6.90289e-06
6.90299e-06
6.9031e-06
6.90321e-06
6.90331e-06
6.90342e-06
6.90353e-06
6.90365e-06
6.90376e-06
6.90387e-06
6.90399e-06
6.9041e-06
6.90422e-06
6.90434e-06
6.90446e-06
6.90458e-06
6.9047e-06
6.90482e-06
6.90494e-06
6.90507e-06
6.90519e-06
6.90532e-06
6.90545e-06
6.90558e-06
6.90571e-06
6.90584e-06
6.90597e-06
6.9061e-06
6.90624e-06
6.90637e-06
6.90651e-06
6.90664e-06
6.90678e-06
6.90692e-06
6.90706e-06
6.9072e-06
6.90734e-06
6.90748e-06
6.90762e-06
6.90777e-06
6.90791e-06
6.90805e-06
6.90819e-06
6.90834e-06
6.90849e-06
6.90864e-06
6.90879e-06
6.90894e-06
6.90909e-06
6.90925e-06
6.9094e-06
6.90956e-06
6.90972e-06
6.90988e-06
6.91003e-06
6.91019e-06
6.91035e-06
6.91051e-06
6.91067e-06
6.91083e-06
6.91099e-06
6.91115e-06
6.91131e-06
6.91147e-06
6.91163e-06
6.91179e-06
6.91196e-06
6.91212e-06
6.91228e-06
6.91245e-06
6.91261e-06
6.91278e-06
6.91295e-06
6.91312e-06
6.91328e-06
6.91345e-06
6.91362e-06
6.91379e-06
6.91396e-06
6.91413e-06
6.9143e-06
6.91448e-06
6.91465e-06
6.91482e-06
6.91499e-06
6.91517e-06
6.91534e-06
6.91551e-06
6.91569e-06
6.91586e-06
6.91604e-06
6.91622e-06
6.91639e-06
6.91657e-06
6.91675e-06
6.91692e-06
6.9171e-06
6.91728e-06
6.91746e-06
6.91764e-06
6.91782e-06
6.918e-06
6.91819e-06
6.91837e-06
6.91855e-06
6.91873e-06
6.91892e-06
6.9191e-06
6.91929e-06
6.91948e-06
6.91966e-06
6.91985e-06
6.92004e-06
6.92023e-06
6.92042e-06
6.92061e-06
6.9208e-06
6.92099e-06
6.92118e-06
6.92138e-06
6.92157e-06
6.92177e-06
6.92196e-06
6.92216e-06
6.92236e-06
6.92256e-06
6.92276e-06
6.92296e-06
6.92316e-06
6.92336e-06
6.92356e-06
6.92377e-06
6.92398e-06
6.92418e-06
6.92439e-06
6.9246e-06
6.92481e-06
6.92502e-06
6.92524e-06
6.92545e-06
6.92567e-06
6.92588e-06
6.9261e-06
6.92632e-06
6.92654e-06
6.92676e-06
6.92699e-06
6.92721e-06
6.92744e-06
6.92767e-06
6.9279e-06
6.92813e-06
6.92836e-06
6.92859e-06
6.92883e-06
6.92906e-06
6.9293e-06
6.92954e-06
6.92978e-06
6.93003e-06
6.93027e-06
6.93052e-06
6.93076e-06
6.93101e-06
6.93126e-06
6.93151e-06
6.93176e-06
6.93202e-06
6.93227e-06
6.93253e-06
6.93278e-06
6.93304e-06
6.93331e-06
6.93357e-06
6.93384e-06
6.9341e-06
6.93437e-06
6.93464e-06
6.93491e-06
6.93518e-06
6.93545e-06
6.93573e-06
6.936e-06
6.93628e-06
6.93656e-06
6.93687e-06
6.93726e-06
6.9379e-06
6.93928e-06
6.94282e-06
6.95245e-06
6.97685e-06
7.0243e-06
7.08244e-06
7.12897e-06
7.15959e-06
7.17974e-06
7.19366e-06
7.20329e-06
7.20914e-06
7.21325e-06
7.21732e-06
7.22086e-06
7.22361e-06
7.22584e-06
7.22771e-06
7.2293e-06
7.23067e-06
7.23185e-06
7.23289e-06
7.23379e-06
7.23458e-06
7.23527e-06
7.23586e-06
7.23637e-06
7.2368e-06
7.23718e-06
7.23751e-06
7.2378e-06
7.23806e-06
7.23829e-06
7.23851e-06
7.23872e-06
7.23892e-06
7.23912e-06
7.23932e-06
7.23951e-06
7.23971e-06
7.23989e-06
7.24007e-06
7.24025e-06
7.24043e-06
7.24061e-06
7.24079e-06
7.24097e-06
7.24114e-06
7.24131e-06
7.24147e-06
7.24163e-06
7.24179e-06
7.24194e-06
7.24209e-06
7.24223e-06
7.24238e-06
7.24251e-06
7.24264e-06
7.24277e-06
7.2429e-06
7.24302e-06
7.24314e-06
7.24326e-06
7.24337e-06
7.24348e-06
7.24359e-06
7.2437e-06
7.2438e-06
7.2439e-06
7.244e-06
7.2441e-06
7.2442e-06
7.24429e-06
7.24438e-06
7.24447e-06
7.24456e-06
7.24465e-06
7.24474e-06
7.24482e-06
7.24491e-06
7.24499e-06
7.24508e-06
7.24516e-06
7.24524e-06
7.24532e-06
7.2454e-06
7.24548e-06
7.24556e-06
7.24564e-06
7.24571e-06
7.24579e-06
7.24587e-06
7.24595e-06
7.24602e-06
7.2461e-06
7.24617e-06
7.24625e-06
7.24632e-06
7.2464e-06
7.24647e-06
7.24654e-06
7.24661e-06
7.24668e-06
7.24675e-06
7.24682e-06
7.24688e-06
7.24695e-06
7.24701e-06
7.24707e-06
7.24714e-06
7.2472e-06
7.24725e-06
7.24731e-06
7.24737e-06
7.24742e-06
7.24748e-06
7.24753e-06
7.24758e-06
7.24763e-06
7.24768e-06
7.24773e-06
7.24777e-06
7.24782e-06
7.24786e-06
7.2479e-06
7.24795e-06
7.24799e-06
7.24803e-06
7.24807e-06
7.24811e-06
7.24815e-06
7.24818e-06
7.24822e-06
7.24826e-06
7.2483e-06
7.24833e-06
7.24837e-06
7.2484e-06
7.24844e-06
7.24847e-06
7.24851e-06
7.24854e-06
7.24858e-06
7.24861e-06
7.24864e-06
7.24867e-06
7.24871e-06
7.24874e-06
7.24877e-06
7.24879e-06
7.24882e-06
7.24885e-06
7.24887e-06
7.2489e-06
7.24892e-06
7.24894e-06
7.24896e-06
7.24897e-06
7.24898e-06
7.249e-06
7.249e-06
7.24901e-06
7.24901e-06
7.24902e-06
7.24901e-06
7.24901e-06
7.249e-06
7.249e-06
7.24899e-06
7.24897e-06
7.24896e-06
7.24894e-06
7.24893e-06
7.24891e-06
7.24889e-06
7.24887e-06
7.24886e-06
7.24885e-06
7.24883e-06
7.24883e-06
7.24882e-06
7.24883e-06
7.24884e-06
7.24885e-06
7.24888e-06
7.2489e-06
7.24902e-06
7.24887e-06
7.24855e-06
7.2483e-06
7.24839e-06
7.24846e-06
7.24853e-06
7.24862e-06
7.24872e-06
7.24884e-06
7.24898e-06
7.24913e-06
7.2493e-06
7.24948e-06
7.24968e-06
7.2499e-06
7.25013e-06
7.25037e-06
7.25063e-06
7.25089e-06
7.25116e-06
7.25143e-06
7.25169e-06
7.25195e-06
7.2522e-06
7.25243e-06
7.25264e-06
7.25282e-06
7.25296e-06
7.25305e-06
7.25308e-06
7.25305e-06
7.25294e-06
7.25275e-06
7.25246e-06
7.25207e-06
7.25155e-06
7.25091e-06
7.25014e-06
7.24923e-06
7.24819e-06
)
;

boundaryField
{
    boundary
    {
        type            empty;
        value           nonuniform 0();
    }
    inlet
    {
        type            calculated;
        value           uniform -6.93005e-06;
    }
    outlet
    {
        type            calculated;
        value           uniform 7.24707e-06;
    }
}


// ************************************************************************* //
