/*--------------------------------*- C++ -*----------------------------------*\
  =========                 |
  \\      /  F ield         | OpenFOAM: The Open Source CFD Toolbox
   \\    /   O peration     | Website:  https://openfoam.org
    \\  /    A nd           | Version:  7
     \\/     M anipulation  |
\*---------------------------------------------------------------------------*/
FoamFile
{
    version     2.0;
    format      ascii;
    class       volScalarField;
    location    "0.00067";
    object      Qdot;
}
// * * * * * * * * * * * * * * * * * * * * * * * * * * * * * * * * * * * * * //

dimensions      [1 -1 -3 0 0 0 0];

internalField   nonuniform List<scalar> 
500
(
-2.44987e-27
-1.85717e-27
-1.72652e-27
-1.69538e-27
-1.68574e-27
-1.68092e-27
-1.67744e-27
-1.67465e-27
-1.67245e-27
-1.67086e-27
-1.66987e-27
-1.66947e-27
-1.66962e-27
-1.67027e-27
-1.67135e-27
-1.67283e-27
-1.67464e-27
-1.67677e-27
-1.6792e-27
-1.68192e-27
-1.68496e-27
-1.68836e-27
-1.69217e-27
-1.69647e-27
-1.70133e-27
-1.70688e-27
-1.71321e-27
-1.72045e-27
-1.72874e-27
-1.73822e-27
-1.74903e-27
-1.7613e-27
-1.77518e-27
-1.79078e-27
-1.80822e-27
-1.82759e-27
-1.84895e-27
-1.87235e-27
-1.89778e-27
-1.9252e-27
-1.95455e-27
-1.98571e-27
-2.0185e-27
-2.05273e-27
-2.08815e-27
-2.12449e-27
-2.16142e-27
-2.19862e-27
-2.23575e-27
-2.27246e-27
-2.30841e-27
-2.34327e-27
-2.37676e-27
-2.40862e-27
-2.43863e-27
-2.46662e-27
-2.49248e-27
-2.51614e-27
-2.53758e-27
-2.55682e-27
-2.57393e-27
-2.58899e-27
-2.60214e-27
-2.6135e-27
-2.62324e-27
-2.63152e-27
-2.63848e-27
-2.6443e-27
-2.64911e-27
-2.65306e-27
-2.65627e-27
-2.65887e-27
-2.66095e-27
-2.66261e-27
-2.66391e-27
-2.66493e-27
-2.66573e-27
-2.66635e-27
-2.66682e-27
-2.66719e-27
-2.66746e-27
-2.66767e-27
-2.66784e-27
-2.66796e-27
-2.66805e-27
-2.66813e-27
-2.66819e-27
-2.66824e-27
-2.66828e-27
-2.66832e-27
-2.66835e-27
-2.66838e-27
-2.66842e-27
-2.66845e-27
-2.66848e-27
-2.66851e-27
-2.66854e-27
-2.66857e-27
-2.66861e-27
-2.66864e-27
-2.66868e-27
-2.66872e-27
-2.66876e-27
-2.6688e-27
-2.66885e-27
-2.66889e-27
-2.66894e-27
-2.66899e-27
-2.66904e-27
-2.66909e-27
-2.66915e-27
-2.6692e-27
-2.66926e-27
-2.66933e-27
-2.66939e-27
-2.66946e-27
-2.66952e-27
-2.66959e-27
-2.66967e-27
-2.66975e-27
-2.66983e-27
-2.66992e-27
-2.67004e-27
-2.67021e-27
-2.6705e-27
-2.67092e-27
-2.67112e-27
-2.67127e-27
-2.67137e-27
-2.67144e-27
-2.67148e-27
-2.67151e-27
-2.67152e-27
-2.67153e-27
-2.67154e-27
-2.67156e-27
-2.67159e-27
-2.67164e-27
-2.67171e-27
-2.6718e-27
-2.67191e-27
-2.67203e-27
-2.67216e-27
-2.67231e-27
-2.67246e-27
-2.67262e-27
-2.67278e-27
-2.67294e-27
-2.6731e-27
-2.67327e-27
-2.67343e-27
-2.67359e-27
-2.67376e-27
-2.67392e-27
-2.67409e-27
-2.67425e-27
-2.67442e-27
-2.67459e-27
-2.67476e-27
-2.67493e-27
-2.6751e-27
-2.67528e-27
-2.67546e-27
-2.67563e-27
-2.67582e-27
-2.676e-27
-2.67618e-27
-2.67637e-27
-2.67656e-27
-2.67675e-27
-2.67695e-27
-2.67714e-27
-2.67733e-27
-2.67753e-27
-2.67772e-27
-2.67791e-27
-2.67811e-27
-2.6783e-27
-2.67848e-27
-2.67867e-27
-2.67885e-27
-2.67902e-27
-2.67919e-27
-2.67936e-27
-2.67951e-27
-2.67967e-27
-2.67981e-27
-2.67995e-27
-2.68007e-27
-2.68019e-27
-2.6803e-27
-2.6804e-27
-2.68049e-27
-2.68057e-27
-2.68063e-27
-2.68068e-27
-2.68072e-27
-2.68075e-27
-2.68076e-27
-2.68076e-27
-2.68074e-27
-2.68071e-27
-2.68066e-27
-2.68059e-27
-2.6805e-27
-2.68039e-27
-2.68026e-27
-2.6801e-27
-2.67988e-27
-2.67954e-27
-2.67878e-27
-2.67658e-27
-2.66933e-27
-2.64429e-27
-2.55687e-27
-2.25191e-27
-1.19327e-27
2.45991e-27
1.49878e-26
5.76805e-26
2.02268e-25
6.88953e-25
2.31736e-24
7.7341e-24
2.56499e-23
8.45793e-23
2.7738e-22
9.04929e-22
2.93751e-21
9.48992e-21
3.05187e-20
9.77225e-20
3.11642e-19
9.90065e-19
3.13425e-18
9.88978e-18
3.11134e-17
9.76224e-17
3.05588e-16
9.54695e-16
2.97796e-15
9.27939e-15
2.89027e-14
9.00602e-14
2.81044e-13
8.79637e-13
2.76688e-12
8.77015e-12
2.81126e-11
9.15448e-11
3.04465e-10
1.04548e-09
3.69811e-09
1.354e-08
5.14628e-08
2.02865e-07
8.26388e-07
3.46075e-06
1.4816e-05
6.45139e-05
0.000284455
0.00126623
0.00567787
0.0256173
0.116266
0.531211
2.44782
11.4136
55.8731
298.665
1887.24
13951.7
110952
997098
9.47333e+06
8.84779e+07
7.09756e+08
3.60279e+09
9.26807e+09
1.30445e+10
1.38661e+10
1.39253e+10
1.38587e+10
1.31655e+10
1.16098e+10
9.6588e+09
7.895e+09
6.48868e+09
5.40624e+09
4.5829e+09
3.95092e+09
3.4573e+09
3.064e+09
2.74447e+09
2.48014e+09
2.25808e+09
2.06895e+09
1.90601e+09
1.76422e+09
1.63979e+09
1.52978e+09
1.43188e+09
1.34426e+09
1.26545e+09
1.19422e+09
1.1296e+09
1.07073e+09
1.01692e+09
9.67584e+08
9.22219e+08
8.80414e+08
8.41869e+08
8.07189e+08
7.75445e+08
7.45594e+08
7.17581e+08
6.91224e+08
6.6639e+08
6.42944e+08
6.20785e+08
5.99815e+08
5.79944e+08
5.61094e+08
5.43191e+08
5.26171e+08
5.09974e+08
4.94544e+08
4.79832e+08
4.65791e+08
4.5238e+08
4.39559e+08
4.27293e+08
4.15549e+08
4.04296e+08
3.93506e+08
3.83153e+08
3.73212e+08
3.63661e+08
3.54479e+08
3.45646e+08
3.37145e+08
3.28957e+08
3.21067e+08
3.1346e+08
3.06123e+08
2.99041e+08
2.92203e+08
2.85598e+08
2.79214e+08
2.73041e+08
2.6707e+08
2.61292e+08
2.55697e+08
2.50279e+08
2.45029e+08
2.39941e+08
2.35007e+08
2.30221e+08
2.25577e+08
2.21069e+08
2.16692e+08
2.12441e+08
2.0831e+08
2.04296e+08
2.00393e+08
1.96597e+08
1.92904e+08
1.89311e+08
1.85814e+08
1.8241e+08
1.79094e+08
1.75865e+08
1.72719e+08
1.69654e+08
1.66669e+08
1.63763e+08
1.60928e+08
1.58153e+08
1.55444e+08
1.52801e+08
1.50221e+08
1.47702e+08
1.45242e+08
1.42839e+08
1.40491e+08
1.38198e+08
1.35956e+08
1.33765e+08
1.31623e+08
1.29528e+08
1.27479e+08
1.25475e+08
1.23514e+08
1.21595e+08
1.19717e+08
1.17878e+08
1.16078e+08
1.14315e+08
1.12589e+08
1.10898e+08
1.09241e+08
1.07618e+08
1.06027e+08
1.04468e+08
1.02939e+08
1.0144e+08
9.99707e+07
9.85295e+07
9.71158e+07
9.5729e+07
9.43685e+07
9.30335e+07
9.17231e+07
9.04372e+07
8.9175e+07
8.79359e+07
8.67192e+07
8.55246e+07
8.43514e+07
8.31992e+07
8.20675e+07
8.09558e+07
7.98636e+07
7.87906e+07
7.77362e+07
7.67001e+07
7.56819e+07
7.46811e+07
7.36974e+07
7.27303e+07
7.17802e+07
7.08457e+07
6.99269e+07
6.90235e+07
6.81352e+07
6.72617e+07
6.64027e+07
6.55578e+07
6.47268e+07
6.39094e+07
6.31054e+07
6.23145e+07
6.15364e+07
6.07709e+07
6.00178e+07
5.92767e+07
5.85476e+07
5.78303e+07
5.71234e+07
5.64289e+07
5.57451e+07
5.50721e+07
5.44096e+07
5.37576e+07
5.31158e+07
5.24846e+07
5.1865e+07
5.12608e+07
5.0716e+07
5.0109e+07
4.95756e+07
4.85374e+07
4.80774e+07
4.75496e+07
4.7004e+07
4.64554e+07
4.59094e+07
4.5368e+07
4.48318e+07
4.43008e+07
4.3775e+07
4.32541e+07
4.27378e+07
4.22258e+07
4.17177e+07
4.12131e+07
4.07118e+07
4.02133e+07
3.97173e+07
3.92233e+07
3.87312e+07
3.82403e+07
3.77504e+07
3.72611e+07
3.67721e+07
3.62829e+07
3.57933e+07
3.53028e+07
3.48112e+07
3.43181e+07
3.38229e+07
3.33253e+07
3.28243e+07
3.23186e+07
3.18059e+07
3.12835e+07
3.07482e+07
3.01974e+07
2.96482e+07
2.92145e+07
)
;

boundaryField
{
    boundary
    {
        type            empty;
    }
    inlet
    {
        type            calculated;
        value           uniform 0;
    }
    outlet
    {
        type            calculated;
        value           uniform 0;
    }
}


// ************************************************************************* //
