/*--------------------------------*- C++ -*----------------------------------*\
  =========                 |
  \\      /  F ield         | OpenFOAM: The Open Source CFD Toolbox
   \\    /   O peration     | Website:  https://openfoam.org
    \\  /    A nd           | Version:  7
     \\/     M anipulation  |
\*---------------------------------------------------------------------------*/
FoamFile
{
    version     2.0;
    format      ascii;
    class       volScalarField;
    location    "0.00067";
    object      rho;
}
// * * * * * * * * * * * * * * * * * * * * * * * * * * * * * * * * * * * * * //

dimensions      [1 -3 0 0 0 0 0];

internalField   nonuniform List<scalar> 
500
(
0.864671
0.864687
0.864707
0.864727
0.864748
0.864768
0.864787
0.864802
0.864815
0.864824
0.86483
0.864833
0.864832
0.864829
0.864823
0.864815
0.864804
0.864792
0.864779
0.864763
0.864746
0.864727
0.864705
0.864681
0.864653
0.864622
0.864587
0.864547
0.864501
0.864448
0.864389
0.864322
0.864248
0.864164
0.864072
0.86397
0.863859
0.863739
0.86361
0.863473
0.863329
0.863177
0.863021
0.86286
0.862696
0.862531
0.862366
0.862203
0.862042
0.861886
0.861735
0.861591
0.861455
0.861326
0.861207
0.861097
0.860996
0.860905
0.860823
0.86075
0.860685
0.860628
0.860579
0.860537
0.860501
0.86047
0.860444
0.860422
0.860405
0.86039
0.860378
0.860368
0.860361
0.860355
0.86035
0.860346
0.860343
0.860341
0.860339
0.860338
0.860337
0.860336
0.860335
0.860335
0.860335
0.860334
0.860334
0.860334
0.860334
0.860334
0.860334
0.860334
0.860334
0.860334
0.860333
0.860333
0.860333
0.860333
0.860333
0.860333
0.860333
0.860333
0.860333
0.860333
0.860332
0.860332
0.860332
0.860332
0.860332
0.860332
0.860332
0.860331
0.860331
0.860331
0.860331
0.860331
0.860331
0.86033
0.86033
0.86033
0.86033
0.860329
0.860329
0.860328
0.860327
0.860326
0.860325
0.860325
0.860324
0.860324
0.860324
0.860324
0.860324
0.860324
0.860324
0.860324
0.860324
0.860324
0.860324
0.860323
0.860323
0.860323
0.860322
0.860322
0.860321
0.860321
0.86032
0.86032
0.860319
0.860319
0.860318
0.860318
0.860317
0.860317
0.860316
0.860316
0.860315
0.860314
0.860314
0.860313
0.860313
0.860312
0.860312
0.860311
0.860311
0.86031
0.860309
0.860309
0.860308
0.860308
0.860307
0.860306
0.860306
0.860305
0.860304
0.860304
0.860303
0.860303
0.860302
0.860301
0.860301
0.8603
0.8603
0.860299
0.860299
0.860298
0.860298
0.860297
0.860297
0.860297
0.860296
0.860296
0.860296
0.860296
0.860295
0.860295
0.860295
0.860295
0.860295
0.860295
0.860296
0.860296
0.860296
0.860296
0.860297
0.860297
0.860298
0.860298
0.860299
0.8603
0.860301
0.860302
0.860303
0.860304
0.860305
0.860306
0.860308
0.860309
0.860311
0.860313
0.860315
0.860317
0.860319
0.860321
0.860323
0.860326
0.860329
0.860331
0.860334
0.860337
0.860341
0.860344
0.860347
0.860351
0.860355
0.860359
0.860363
0.860367
0.860372
0.860376
0.860381
0.860386
0.860391
0.860396
0.860402
0.860407
0.860413
0.860419
0.860425
0.860431
0.860437
0.860442
0.860449
0.860456
0.860462
0.86047
0.860477
0.860485
0.860492
0.8605
0.860509
0.860517
0.860525
0.860534
0.860543
0.860552
0.860561
0.860567
0.860562
0.860518
0.860347
0.859784
0.858043
0.852859
0.837969
0.798336
0.711428
0.580398
0.453958
0.364311
0.306016
0.266521
0.238506
0.218599
0.204296
0.193752
0.186132
0.18041
0.175897
0.172241
0.169205
0.166632
0.164415
0.162478
0.160766
0.159238
0.157864
0.156618
0.155483
0.154443
0.153486
0.152601
0.151779
0.151014
0.1503
0.149632
0.149004
0.148413
0.147856
0.14733
0.146833
0.146363
0.14593
0.145525
0.145135
0.144761
0.144402
0.144056
0.143723
0.143402
0.143092
0.142793
0.142503
0.142224
0.141953
0.141691
0.141436
0.14119
0.140951
0.140718
0.140492
0.140273
0.140059
0.139852
0.139649
0.139452
0.13926
0.139073
0.13889
0.138712
0.138538
0.138368
0.138202
0.13804
0.137882
0.137727
0.137575
0.137427
0.137282
0.137139
0.137
0.136864
0.13673
0.136599
0.136471
0.136345
0.136221
0.1361
0.135981
0.135864
0.13575
0.135637
0.135527
0.135418
0.135311
0.135206
0.135103
0.135002
0.134902
0.134804
0.134708
0.134613
0.13452
0.134428
0.134337
0.134248
0.134161
0.134074
0.133989
0.133905
0.133822
0.133741
0.133661
0.133581
0.133503
0.133426
0.13335
0.133275
0.133201
0.133128
0.133056
0.132985
0.132915
0.132845
0.132777
0.13271
0.132643
0.132577
0.132512
0.132448
0.132384
0.132322
0.13226
0.132198
0.132138
0.132078
0.132019
0.131961
0.131903
0.131846
0.13179
0.131734
0.131679
0.131624
0.131571
0.131517
0.131464
0.131412
0.131361
0.13131
0.131259
0.131209
0.131159
0.13111
0.131062
0.131014
0.130966
0.130919
0.130872
0.130826
0.13078
0.130735
0.13069
0.130645
0.130601
0.130557
0.130513
0.13047
0.130427
0.130385
0.130343
0.130301
0.13026
0.130219
0.130178
0.130138
0.130098
0.130058
0.130019
0.12998
0.129942
0.129904
0.129866
0.129829
0.129793
0.129756
0.129721
0.129685
0.129651
0.129615
0.129581
0.129535
0.129501
0.129468
0.129436
0.129404
0.129373
0.129342
0.129312
0.129282
0.129253
0.129225
0.129197
0.129169
0.129143
0.129116
0.12909
0.129064
0.129039
0.129014
0.128989
0.128964
0.128939
0.128914
0.128889
0.128863
0.128837
0.12881
0.128782
0.128753
0.128723
0.128692
0.128659
0.128625
0.128589
0.128552
0.128513
0.128476
0.128442
0.128419
)
;

boundaryField
{
    boundary
    {
        type            empty;
    }
    inlet
    {
        type            calculated;
        value           uniform 0.864662;
    }
    outlet
    {
        type            calculated;
        value           uniform 0.128419;
    }
}


// ************************************************************************* //
