/*--------------------------------*- C++ -*----------------------------------*\
  =========                 |
  \\      /  F ield         | OpenFOAM: The Open Source CFD Toolbox
   \\    /   O peration     | Website:  https://openfoam.org
    \\  /    A nd           | Version:  7
     \\/     M anipulation  |
\*---------------------------------------------------------------------------*/
FoamFile
{
    version     2.0;
    format      ascii;
    class       volScalarField;
    location    "0.00067";
    object      T;
}
// * * * * * * * * * * * * * * * * * * * * * * * * * * * * * * * * * * * * * //

dimensions      [0 0 0 1 0 0 0];

internalField   nonuniform List<scalar> 
500
(
299.997
299.991
299.985
299.977
299.97
299.963
299.957
299.951
299.947
299.944
299.942
299.941
299.941
299.942
299.944
299.947
299.951
299.955
299.96
299.965
299.971
299.978
299.985
299.994
300.003
300.014
300.026
300.04
300.056
300.074
300.095
300.118
300.144
300.173
300.205
300.241
300.279
300.321
300.366
300.413
300.464
300.516
300.571
300.627
300.684
300.741
300.799
300.856
300.912
300.967
301.019
301.07
301.117
301.162
301.204
301.242
301.278
301.31
301.338
301.364
301.387
301.406
301.424
301.439
301.451
301.462
301.471
301.479
301.485
301.49
301.494
301.498
301.5
301.502
301.504
301.505
301.507
301.507
301.508
301.508
301.509
301.509
301.509
301.509
301.51
301.51
301.51
301.51
301.51
301.51
301.51
301.51
301.51
301.51
301.51
301.51
301.51
301.51
301.51
301.51
301.51
301.51
301.51
301.511
301.511
301.511
301.511
301.511
301.511
301.511
301.511
301.511
301.511
301.511
301.511
301.511
301.511
301.512
301.512
301.512
301.512
301.512
301.512
301.512
301.513
301.513
301.513
301.514
301.514
301.514
301.514
301.514
301.514
301.514
301.514
301.514
301.514
301.514
301.514
301.514
301.514
301.515
301.515
301.515
301.515
301.515
301.516
301.516
301.516
301.516
301.516
301.517
301.517
301.517
301.517
301.517
301.518
301.518
301.518
301.518
301.519
301.519
301.519
301.519
301.519
301.52
301.52
301.52
301.52
301.521
301.521
301.521
301.521
301.522
301.522
301.522
301.522
301.523
301.523
301.523
301.523
301.523
301.524
301.524
301.524
301.524
301.524
301.525
301.525
301.525
301.525
301.525
301.525
301.525
301.525
301.526
301.526
301.526
301.526
301.526
301.526
301.526
301.526
301.525
301.525
301.525
301.525
301.525
301.525
301.524
301.524
301.524
301.523
301.523
301.523
301.522
301.522
301.521
301.521
301.52
301.52
301.519
301.518
301.517
301.517
301.516
301.515
301.514
301.513
301.512
301.511
301.51
301.508
301.507
301.506
301.505
301.503
301.502
301.5
301.499
301.497
301.495
301.494
301.492
301.49
301.488
301.486
301.484
301.482
301.48
301.478
301.476
301.474
301.471
301.469
301.466
301.464
301.461
301.459
301.456
301.453
301.45
301.447
301.445
301.442
301.44
301.438
301.439
301.448
301.478
301.569
301.83
302.574
304.685
310.656
327.208
369.418
456.957
590.863
745.226
897.795
1041.92
1174.39
1289.49
1386.07
1466.1
1530.15
1582.25
1626.12
1663.67
1696.36
1725.19
1750.94
1774.14
1795.22
1814.49
1832.23
1848.63
1863.86
1878.06
1891.34
1903.8
1915.53
1926.59
1937.05
1946.96
1956.36
1965.3
1973.82
1981.94
1989.68
1997.08
2003.95
2010.41
2016.67
2022.72
2028.58
2034.25
2039.74
2045.07
2050.24
2055.26
2060.14
2064.88
2069.5
2073.99
2078.37
2082.63
2086.78
2090.84
2094.79
2098.65
2102.42
2106.11
2109.71
2113.23
2116.67
2120.04
2123.34
2126.57
2129.73
2132.83
2135.86
2138.84
2141.75
2144.61
2147.42
2150.18
2152.88
2155.53
2158.14
2160.7
2163.22
2165.69
2168.12
2170.51
2172.85
2175.16
2177.43
2179.67
2181.87
2184.03
2186.16
2188.26
2190.32
2192.36
2194.36
2196.33
2198.28
2200.19
2202.08
2203.94
2205.78
2207.59
2209.37
2211.13
2212.86
2214.57
2216.27
2217.94
2219.59
2221.22
2222.83
2224.41
2225.98
2227.53
2229.06
2230.57
2232.06
2233.54
2235
2236.44
2237.86
2239.27
2240.66
2242.04
2243.4
2244.75
2246.08
2247.39
2248.69
2249.98
2251.25
2252.51
2253.75
2254.98
2256.2
2257.41
2258.6
2259.78
2260.95
2262.1
2263.24
2264.37
2265.49
2266.6
2267.7
2268.78
2269.85
2270.92
2271.97
2273.01
2274.04
2275.06
2276.08
2277.08
2278.07
2279.05
2280.02
2280.99
2281.94
2282.89
2283.82
2284.75
2285.67
2286.58
2287.48
2288.38
2289.26
2290.14
2291
2291.86
2292.71
2293.55
2294.38
2295.21
2296.02
2296.82
2297.62
2298.4
2299.17
2299.94
2300.69
2301.43
2302.15
2302.87
2303.57
2304.26
2304.93
2305.63
2306.28
2307.12
2307.77
2308.38
2308.98
2309.57
2310.14
2310.7
2311.23
2311.76
2312.26
2312.75
2313.23
2313.68
2314.13
2314.56
2314.97
2315.37
2315.76
2316.14
2316.51
2316.87
2317.23
2317.58
2317.94
2318.29
2318.65
2319.02
2319.39
2319.78
2320.19
2320.62
2321.08
2321.56
2322.06
2322.6
2323.15
2323.7
2324.2
2324.52
)
;

boundaryField
{
    boundary
    {
        type            empty;
    }
    inlet
    {
        type            fixedValue;
        value           uniform 300;
    }
    outlet
    {
        type            zeroGradient;
    }
}


// ************************************************************************* //
