/*--------------------------------*- C++ -*----------------------------------*\
  =========                 |
  \\      /  F ield         | OpenFOAM: The Open Source CFD Toolbox
   \\    /   O peration     | Website:  https://openfoam.org
    \\  /    A nd           | Version:  7
     \\/     M anipulation  |
\*---------------------------------------------------------------------------*/
FoamFile
{
    version     2.0;
    format      ascii;
    class       volVectorField;
    location    "0.00067";
    object      U;
}
// * * * * * * * * * * * * * * * * * * * * * * * * * * * * * * * * * * * * * //

dimensions      [0 1 -1 0 0 0 0];

internalField   nonuniform List<vector> 
500
(
(2.34893 0 0)
(2.34894 0 0)
(2.34897 0 0)
(2.349 0 0)
(2.34904 0 0)
(2.34907 0 0)
(2.3491 0 0)
(2.34914 0 0)
(2.34918 0 0)
(2.34922 0 0)
(2.34926 0 0)
(2.34929 0 0)
(2.34933 0 0)
(2.34937 0 0)
(2.34941 0 0)
(2.34944 0 0)
(2.34948 0 0)
(2.34951 0 0)
(2.34954 0 0)
(2.34958 0 0)
(2.34961 0 0)
(2.34965 0 0)
(2.34968 0 0)
(2.34972 0 0)
(2.34976 0 0)
(2.3498 0 0)
(2.34984 0 0)
(2.34989 0 0)
(2.34993 0 0)
(2.34998 0 0)
(2.35003 0 0)
(2.35008 0 0)
(2.35014 0 0)
(2.35019 0 0)
(2.35025 0 0)
(2.3503 0 0)
(2.35036 0 0)
(2.35041 0 0)
(2.35047 0 0)
(2.35052 0 0)
(2.35057 0 0)
(2.35062 0 0)
(2.35066 0 0)
(2.3507 0 0)
(2.35073 0 0)
(2.35076 0 0)
(2.35079 0 0)
(2.35081 0 0)
(2.35083 0 0)
(2.35084 0 0)
(2.35085 0 0)
(2.35086 0 0)
(2.35086 0 0)
(2.35087 0 0)
(2.35087 0 0)
(2.35087 0 0)
(2.35087 0 0)
(2.35087 0 0)
(2.35087 0 0)
(2.35088 0 0)
(2.35088 0 0)
(2.35089 0 0)
(2.3509 0 0)
(2.35091 0 0)
(2.35092 0 0)
(2.35094 0 0)
(2.35095 0 0)
(2.35097 0 0)
(2.35099 0 0)
(2.35102 0 0)
(2.35104 0 0)
(2.35107 0 0)
(2.35109 0 0)
(2.35112 0 0)
(2.35115 0 0)
(2.35118 0 0)
(2.35121 0 0)
(2.35124 0 0)
(2.35128 0 0)
(2.35131 0 0)
(2.35134 0 0)
(2.35138 0 0)
(2.35141 0 0)
(2.35145 0 0)
(2.35148 0 0)
(2.35152 0 0)
(2.35155 0 0)
(2.35159 0 0)
(2.35163 0 0)
(2.35166 0 0)
(2.3517 0 0)
(2.35174 0 0)
(2.35178 0 0)
(2.35182 0 0)
(2.35186 0 0)
(2.3519 0 0)
(2.35194 0 0)
(2.35198 0 0)
(2.35202 0 0)
(2.35206 0 0)
(2.3521 0 0)
(2.35214 0 0)
(2.35218 0 0)
(2.35223 0 0)
(2.35227 0 0)
(2.35231 0 0)
(2.35236 0 0)
(2.3524 0 0)
(2.35244 0 0)
(2.35249 0 0)
(2.35253 0 0)
(2.35258 0 0)
(2.35263 0 0)
(2.35267 0 0)
(2.35272 0 0)
(2.35277 0 0)
(2.35281 0 0)
(2.35286 0 0)
(2.35291 0 0)
(2.35296 0 0)
(2.35301 0 0)
(2.35306 0 0)
(2.35311 0 0)
(2.35316 0 0)
(2.35321 0 0)
(2.35327 0 0)
(2.35331 0 0)
(2.35336 0 0)
(2.35341 0 0)
(2.35346 0 0)
(2.35351 0 0)
(2.35357 0 0)
(2.35362 0 0)
(2.35367 0 0)
(2.35372 0 0)
(2.35377 0 0)
(2.35383 0 0)
(2.35388 0 0)
(2.35394 0 0)
(2.35399 0 0)
(2.35405 0 0)
(2.3541 0 0)
(2.35416 0 0)
(2.35421 0 0)
(2.35427 0 0)
(2.35432 0 0)
(2.35438 0 0)
(2.35443 0 0)
(2.35449 0 0)
(2.35455 0 0)
(2.3546 0 0)
(2.35466 0 0)
(2.35472 0 0)
(2.35478 0 0)
(2.35483 0 0)
(2.35489 0 0)
(2.35495 0 0)
(2.35501 0 0)
(2.35507 0 0)
(2.35513 0 0)
(2.35519 0 0)
(2.35524 0 0)
(2.3553 0 0)
(2.35536 0 0)
(2.35542 0 0)
(2.35548 0 0)
(2.35554 0 0)
(2.3556 0 0)
(2.35566 0 0)
(2.35572 0 0)
(2.35579 0 0)
(2.35585 0 0)
(2.35591 0 0)
(2.35597 0 0)
(2.35603 0 0)
(2.35609 0 0)
(2.35615 0 0)
(2.35622 0 0)
(2.35628 0 0)
(2.35634 0 0)
(2.3564 0 0)
(2.35646 0 0)
(2.35653 0 0)
(2.35659 0 0)
(2.35665 0 0)
(2.35672 0 0)
(2.35678 0 0)
(2.35684 0 0)
(2.35691 0 0)
(2.35697 0 0)
(2.35703 0 0)
(2.3571 0 0)
(2.35716 0 0)
(2.35722 0 0)
(2.35729 0 0)
(2.35735 0 0)
(2.35742 0 0)
(2.35748 0 0)
(2.35754 0 0)
(2.35761 0 0)
(2.35767 0 0)
(2.35774 0 0)
(2.3578 0 0)
(2.35787 0 0)
(2.35793 0 0)
(2.358 0 0)
(2.35806 0 0)
(2.35813 0 0)
(2.35819 0 0)
(2.35826 0 0)
(2.35832 0 0)
(2.35839 0 0)
(2.35846 0 0)
(2.35852 0 0)
(2.35859 0 0)
(2.35865 0 0)
(2.35872 0 0)
(2.35879 0 0)
(2.35885 0 0)
(2.35892 0 0)
(2.35898 0 0)
(2.35905 0 0)
(2.35912 0 0)
(2.35918 0 0)
(2.35925 0 0)
(2.35932 0 0)
(2.35938 0 0)
(2.35945 0 0)
(2.35952 0 0)
(2.35959 0 0)
(2.35965 0 0)
(2.35972 0 0)
(2.35979 0 0)
(2.35986 0 0)
(2.35992 0 0)
(2.35999 0 0)
(2.36006 0 0)
(2.36013 0 0)
(2.36019 0 0)
(2.36026 0 0)
(2.36033 0 0)
(2.3604 0 0)
(2.36047 0 0)
(2.36053 0 0)
(2.3606 0 0)
(2.36067 0 0)
(2.36074 0 0)
(2.36081 0 0)
(2.36088 0 0)
(2.36095 0 0)
(2.36102 0 0)
(2.36109 0 0)
(2.36116 0 0)
(2.36122 0 0)
(2.36129 0 0)
(2.36136 0 0)
(2.36143 0 0)
(2.3615 0 0)
(2.36156 0 0)
(2.36163 0 0)
(2.3617 0 0)
(2.36177 0 0)
(2.36184 0 0)
(2.36191 0 0)
(2.36198 0 0)
(2.36204 0 0)
(2.36211 0 0)
(2.3622 0 0)
(2.36232 0 0)
(2.36258 0 0)
(2.3633 0 0)
(2.36543 0 0)
(2.37167 0 0)
(2.38902 0 0)
(2.43339 0 0)
(2.53933 0 0)
(2.78101 0 0)
(3.29351 0 0)
(4.21602 0 0)
(5.40952 0 0)
(6.64102 0 0)
(7.77137 0 0)
(8.76376 0 0)
(9.61206 0 0)
(10.319 0 0)
(10.8966 0 0)
(11.3602 0 0)
(11.7315 0 0)
(12.0369 0 0)
(12.2957 0 0)
(12.5195 0 0)
(12.7156 0 0)
(12.8895 0 0)
(13.0453 0 0)
(13.186 0 0)
(13.3142 0 0)
(13.4315 0 0)
(13.5395 0 0)
(13.6394 0 0)
(13.7322 0 0)
(13.8187 0 0)
(13.8995 0 0)
(13.9754 0 0)
(14.0467 0 0)
(14.1139 0 0)
(14.1774 0 0)
(14.2376 0 0)
(14.2947 0 0)
(14.3489 0 0)
(14.4005 0 0)
(14.4497 0 0)
(14.4965 0 0)
(14.54 0 0)
(14.5808 0 0)
(14.6202 0 0)
(14.6584 0 0)
(14.6953 0 0)
(14.7309 0 0)
(14.7654 0 0)
(14.7988 0 0)
(14.8312 0 0)
(14.8627 0 0)
(14.8932 0 0)
(14.9228 0 0)
(14.9516 0 0)
(14.9796 0 0)
(15.0068 0 0)
(15.0333 0 0)
(15.0591 0 0)
(15.0843 0 0)
(15.1088 0 0)
(15.1327 0 0)
(15.156 0 0)
(15.1788 0 0)
(15.201 0 0)
(15.2227 0 0)
(15.244 0 0)
(15.2647 0 0)
(15.285 0 0)
(15.3049 0 0)
(15.3243 0 0)
(15.3433 0 0)
(15.362 0 0)
(15.3802 0 0)
(15.3981 0 0)
(15.4156 0 0)
(15.4328 0 0)
(15.4497 0 0)
(15.4662 0 0)
(15.4824 0 0)
(15.4983 0 0)
(15.514 0 0)
(15.5293 0 0)
(15.5444 0 0)
(15.5592 0 0)
(15.5737 0 0)
(15.588 0 0)
(15.6021 0 0)
(15.6159 0 0)
(15.6295 0 0)
(15.6429 0 0)
(15.656 0 0)
(15.6689 0 0)
(15.6817 0 0)
(15.6942 0 0)
(15.7066 0 0)
(15.7187 0 0)
(15.7307 0 0)
(15.7425 0 0)
(15.7541 0 0)
(15.7655 0 0)
(15.7768 0 0)
(15.7879 0 0)
(15.7988 0 0)
(15.8096 0 0)
(15.8202 0 0)
(15.8307 0 0)
(15.8411 0 0)
(15.8513 0 0)
(15.8614 0 0)
(15.8713 0 0)
(15.8811 0 0)
(15.8908 0 0)
(15.9004 0 0)
(15.9098 0 0)
(15.9191 0 0)
(15.9283 0 0)
(15.9374 0 0)
(15.9464 0 0)
(15.9552 0 0)
(15.964 0 0)
(15.9726 0 0)
(15.9812 0 0)
(15.9896 0 0)
(15.9979 0 0)
(16.0062 0 0)
(16.0143 0 0)
(16.0224 0 0)
(16.0303 0 0)
(16.0382 0 0)
(16.046 0 0)
(16.0537 0 0)
(16.0613 0 0)
(16.0688 0 0)
(16.0762 0 0)
(16.0836 0 0)
(16.0908 0 0)
(16.098 0 0)
(16.1052 0 0)
(16.1122 0 0)
(16.1192 0 0)
(16.1261 0 0)
(16.1329 0 0)
(16.1397 0 0)
(16.1463 0 0)
(16.153 0 0)
(16.1595 0 0)
(16.166 0 0)
(16.1724 0 0)
(16.1788 0 0)
(16.1851 0 0)
(16.1913 0 0)
(16.1975 0 0)
(16.2036 0 0)
(16.2097 0 0)
(16.2157 0 0)
(16.2216 0 0)
(16.2275 0 0)
(16.2334 0 0)
(16.2391 0 0)
(16.2449 0 0)
(16.2505 0 0)
(16.2562 0 0)
(16.2617 0 0)
(16.2673 0 0)
(16.2727 0 0)
(16.2782 0 0)
(16.2835 0 0)
(16.2889 0 0)
(16.2942 0 0)
(16.2994 0 0)
(16.3046 0 0)
(16.3097 0 0)
(16.3148 0 0)
(16.3199 0 0)
(16.3249 0 0)
(16.3299 0 0)
(16.3348 0 0)
(16.3397 0 0)
(16.3445 0 0)
(16.3493 0 0)
(16.3541 0 0)
(16.3588 0 0)
(16.3635 0 0)
(16.3681 0 0)
(16.3727 0 0)
(16.3773 0 0)
(16.3818 0 0)
(16.3864 0 0)
(16.3908 0 0)
(16.395 0 0)
(16.3994 0 0)
(16.4038 0 0)
(16.4083 0 0)
(16.4125 0 0)
(16.4167 0 0)
(16.4209 0 0)
(16.425 0 0)
(16.4292 0 0)
(16.4332 0 0)
(16.4373 0 0)
(16.4413 0 0)
(16.4453 0 0)
(16.4493 0 0)
(16.4532 0 0)
(16.4571 0 0)
(16.461 0 0)
(16.4649 0 0)
(16.4687 0 0)
(16.4725 0 0)
(16.4763 0 0)
(16.4801 0 0)
(16.4839 0 0)
(16.4876 0 0)
(16.4914 0 0)
(16.4951 0 0)
(16.4988 0 0)
(16.5025 0 0)
(16.5062 0 0)
(16.5099 0 0)
(16.5136 0 0)
(16.5173 0 0)
(16.521 0 0)
(16.5246 0 0)
(16.5282 0 0)
(16.5317 0 0)
(16.535 0 0)
(16.5379 0 0)
(16.5398 0 0)
(16.5396 0 0)
)
;

boundaryField
{
    boundary
    {
        type            empty;
    }
    inlet
    {
        type            fixedValue;
        value           uniform (2.34893 0 0);
    }
    outlet
    {
        type            zeroGradient;
    }
}


// ************************************************************************* //
