/*--------------------------------*- C++ -*----------------------------------*\
  =========                 |
  \\      /  F ield         | OpenFOAM: The Open Source CFD Toolbox
   \\    /   O peration     | Website:  https://openfoam.org
    \\  /    A nd           | Version:  7
     \\/     M anipulation  |
\*---------------------------------------------------------------------------*/
FoamFile
{
    version     2.0;
    format      ascii;
    class       volScalarField;
    location    "0.0009";
    object      T;
}
// * * * * * * * * * * * * * * * * * * * * * * * * * * * * * * * * * * * * * //

dimensions      [0 0 0 1 0 0 0];

internalField   nonuniform List<scalar> 
125
(
300.001
300.002
300.003
300.003
300.004
300.005
300.006
300.006
300.006
300.006
300.006
300.005
300.004
300.003
300.001
299.999
299.996
299.993
299.99
299.986
299.983
299.979
299.976
299.973
299.971
299.968
299.967
299.966
299.966
299.966
299.967
299.969
299.972
299.976
299.98
299.986
299.993
300
300.009
300.019
300.031
300.044
300.058
300.074
300.092
300.112
300.135
300.159
300.185
300.214
300.246
300.279
300.315
300.354
300.394
300.437
300.481
300.527
300.574
300.623
300.672
300.722
300.772
300.821
300.871
300.919
300.966
301.012
301.057
301.099
301.139
301.177
301.213
301.247
301.278
301.306
301.332
301.356
301.377
301.397
301.414
301.429
301.442
301.454
301.464
301.473
301.481
301.487
301.493
301.497
301.501
301.505
301.507
301.509
301.511
301.513
301.514
301.515
301.516
301.516
301.517
301.517
301.518
301.518
301.518
301.518
301.518
301.518
301.519
301.519
301.519
301.519
301.519
301.519
301.519
301.519
301.519
301.519
301.519
301.519
301.519
301.519
301.519
301.519
301.519
)
;

boundaryField
{
    boundary
    {
        type            empty;
    }
    inlet
    {
        type            fixedValue;
        value           uniform 300;
    }
    outlet
    {
        type            zeroGradient;
    }
    procBoundary2to3
    {
        type            processor;
        value           uniform 301.519;
    }
}


// ************************************************************************* //
