/*--------------------------------*- C++ -*----------------------------------*\
  =========                 |
  \\      /  F ield         | OpenFOAM: The Open Source CFD Toolbox
   \\    /   O peration     | Website:  https://openfoam.org
    \\  /    A nd           | Version:  7
     \\/     M anipulation  |
\*---------------------------------------------------------------------------*/
FoamFile
{
    version     2.0;
    format      ascii;
    class       surfaceScalarField;
    location    "0.0007";
    object      phi;
}
// * * * * * * * * * * * * * * * * * * * * * * * * * * * * * * * * * * * * * //

dimensions      [1 0 -1 0 0 0 0];

internalField   nonuniform List<scalar> 
123
(
7.23317e-06
7.23321e-06
7.23326e-06
7.2333e-06
7.23334e-06
7.23338e-06
7.23342e-06
7.23346e-06
7.2335e-06
7.23354e-06
7.23357e-06
7.23361e-06
7.23365e-06
7.23368e-06
7.23371e-06
7.23374e-06
7.23378e-06
7.2338e-06
7.23383e-06
7.23386e-06
7.23389e-06
7.23391e-06
7.23393e-06
7.23395e-06
7.23397e-06
7.23399e-06
7.23401e-06
7.23402e-06
7.23404e-06
7.23405e-06
7.23406e-06
7.23407e-06
7.23408e-06
7.23409e-06
7.2341e-06
7.23411e-06
7.23411e-06
7.23412e-06
7.23412e-06
7.23412e-06
7.23413e-06
7.23413e-06
7.23413e-06
7.23413e-06
7.23413e-06
7.23412e-06
7.23412e-06
7.23412e-06
7.23411e-06
7.23411e-06
7.2341e-06
7.2341e-06
7.23409e-06
7.23408e-06
7.23407e-06
7.23406e-06
7.23405e-06
7.23403e-06
7.23401e-06
7.234e-06
7.23398e-06
7.23395e-06
7.23393e-06
7.2339e-06
7.23387e-06
7.23384e-06
7.23381e-06
7.23377e-06
7.23373e-06
7.23369e-06
7.23364e-06
7.2336e-06
7.23355e-06
7.2335e-06
7.23344e-06
7.23339e-06
7.23333e-06
7.23328e-06
7.23322e-06
7.23317e-06
7.23311e-06
7.23306e-06
7.233e-06
7.23295e-06
7.23291e-06
7.23287e-06
7.23284e-06
7.23281e-06
7.23279e-06
7.23278e-06
7.23278e-06
7.23261e-06
7.23252e-06
7.23222e-06
7.23212e-06
7.2321e-06
7.23212e-06
7.23216e-06
7.23221e-06
7.23228e-06
7.23236e-06
7.23246e-06
7.23258e-06
7.2327e-06
7.23285e-06
7.233e-06
7.23317e-06
7.23335e-06
7.23354e-06
7.23373e-06
7.23393e-06
7.23413e-06
7.23432e-06
7.2345e-06
7.23467e-06
7.23482e-06
7.23494e-06
7.23503e-06
7.23508e-06
7.23508e-06
7.23503e-06
7.23492e-06
7.23476e-06
)
;

boundaryField
{
    boundary
    {
        type            empty;
        value           nonuniform 0();
    }
    inlet
    {
        type            calculated;
        value           nonuniform 0();
    }
    outlet
    {
        type            calculated;
        value           uniform 7.23456e-06;
    }
    procBoundary0to1
    {
        type            processor;
        value           uniform -7.23312e-06;
    }
}


// ************************************************************************* //
