/*--------------------------------*- C++ -*----------------------------------*\
  =========                 |
  \\      /  F ield         | OpenFOAM: The Open Source CFD Toolbox
   \\    /   O peration     | Website:  https://openfoam.org
    \\  /    A nd           | Version:  7
     \\/     M anipulation  |
\*---------------------------------------------------------------------------*/
FoamFile
{
    version     2.0;
    format      ascii;
    class       volScalarField;
    location    "0.0007";
    object      Qdot;
}
// * * * * * * * * * * * * * * * * * * * * * * * * * * * * * * * * * * * * * //

dimensions      [1 -1 -3 0 0 0 0];

internalField   nonuniform List<scalar> 
124
(
1.60715e+08
1.57947e+08
1.55243e+08
1.52605e+08
1.50029e+08
1.47514e+08
1.45058e+08
1.42658e+08
1.40314e+08
1.38024e+08
1.35785e+08
1.33596e+08
1.31456e+08
1.29364e+08
1.27317e+08
1.25315e+08
1.23355e+08
1.21438e+08
1.19561e+08
1.17724e+08
1.15926e+08
1.14164e+08
1.12439e+08
1.1075e+08
1.09094e+08
1.07472e+08
1.05883e+08
1.04325e+08
1.02797e+08
1.013e+08
9.98319e+07
9.83921e+07
9.69799e+07
9.55945e+07
9.42354e+07
9.29019e+07
9.15932e+07
9.03086e+07
8.90479e+07
8.78102e+07
8.6595e+07
8.54017e+07
8.42299e+07
8.30789e+07
8.19484e+07
8.08378e+07
7.97466e+07
7.86744e+07
7.76208e+07
7.65853e+07
7.55676e+07
7.45672e+07
7.35837e+07
7.26171e+07
7.16664e+07
7.07316e+07
6.98124e+07
6.89084e+07
6.80194e+07
6.71449e+07
6.62847e+07
6.54385e+07
6.46061e+07
6.37871e+07
6.29813e+07
6.21885e+07
6.14083e+07
6.06406e+07
5.98851e+07
5.91416e+07
5.84099e+07
5.76899e+07
5.69801e+07
5.62827e+07
5.55959e+07
5.49198e+07
5.42541e+07
5.35988e+07
5.29535e+07
5.23183e+07
5.16928e+07
5.1077e+07
5.047e+07
4.9873e+07
4.92849e+07
4.87057e+07
4.81353e+07
4.75737e+07
4.70213e+07
4.64795e+07
4.59532e+07
4.54696e+07
4.5084e+07
4.40922e+07
4.36135e+07
4.31585e+07
4.26782e+07
4.21915e+07
4.17047e+07
4.12208e+07
4.07408e+07
4.0265e+07
3.97936e+07
3.93263e+07
3.88629e+07
3.8403e+07
3.79464e+07
3.74927e+07
3.70418e+07
3.65929e+07
3.61461e+07
3.57009e+07
3.52569e+07
3.48137e+07
3.43708e+07
3.39275e+07
3.34829e+07
3.30358e+07
3.25836e+07
3.2124e+07
3.1654e+07
3.11714e+07
3.06919e+07
3.03187e+07
)
;

boundaryField
{
    boundary
    {
        type            empty;
    }
    inlet
    {
        type            calculated;
        value           nonuniform 0();
    }
    outlet
    {
        type            calculated;
        value           uniform 0;
    }
    procBoundary0to1
    {
        type            processor;
        value           uniform 0;
    }
}


// ************************************************************************* //
