/*--------------------------------*- C++ -*----------------------------------*\
  =========                 |
  \\      /  F ield         | OpenFOAM: The Open Source CFD Toolbox
   \\    /   O peration     | Website:  https://openfoam.org
    \\  /    A nd           | Version:  7
     \\/     M anipulation  |
\*---------------------------------------------------------------------------*/
FoamFile
{
    version     2.0;
    format      ascii;
    class       volVectorField;
    location    "0.0007";
    object      U;
}
// * * * * * * * * * * * * * * * * * * * * * * * * * * * * * * * * * * * * * //

dimensions      [0 1 -1 0 0 0 0];

internalField   nonuniform List<vector> 
124
(
(15.8024 0 0)
(15.8126 0 0)
(15.8228 0 0)
(15.8327 0 0)
(15.8426 0 0)
(15.8523 0 0)
(15.8619 0 0)
(15.8714 0 0)
(15.8807 0 0)
(15.89 0 0)
(15.8991 0 0)
(15.9081 0 0)
(15.917 0 0)
(15.9257 0 0)
(15.9344 0 0)
(15.9429 0 0)
(15.9514 0 0)
(15.9597 0 0)
(15.968 0 0)
(15.9761 0 0)
(15.9842 0 0)
(15.9922 0 0)
(16 0 0)
(16.0078 0 0)
(16.0155 0 0)
(16.0231 0 0)
(16.0306 0 0)
(16.038 0 0)
(16.0454 0 0)
(16.0526 0 0)
(16.0598 0 0)
(16.0669 0 0)
(16.074 0 0)
(16.0809 0 0)
(16.0878 0 0)
(16.0946 0 0)
(16.1013 0 0)
(16.108 0 0)
(16.1146 0 0)
(16.1211 0 0)
(16.1276 0 0)
(16.134 0 0)
(16.1403 0 0)
(16.1465 0 0)
(16.1527 0 0)
(16.1589 0 0)
(16.165 0 0)
(16.171 0 0)
(16.1769 0 0)
(16.1828 0 0)
(16.1887 0 0)
(16.1945 0 0)
(16.2002 0 0)
(16.2059 0 0)
(16.2115 0 0)
(16.2171 0 0)
(16.2226 0 0)
(16.2281 0 0)
(16.2335 0 0)
(16.2389 0 0)
(16.2442 0 0)
(16.2494 0 0)
(16.2547 0 0)
(16.2599 0 0)
(16.265 0 0)
(16.2701 0 0)
(16.2751 0 0)
(16.2801 0 0)
(16.2851 0 0)
(16.29 0 0)
(16.2949 0 0)
(16.2997 0 0)
(16.3045 0 0)
(16.3092 0 0)
(16.3139 0 0)
(16.3186 0 0)
(16.3232 0 0)
(16.3278 0 0)
(16.3323 0 0)
(16.3368 0 0)
(16.3413 0 0)
(16.3457 0 0)
(16.3501 0 0)
(16.3545 0 0)
(16.3588 0 0)
(16.363 0 0)
(16.3673 0 0)
(16.3715 0 0)
(16.3756 0 0)
(16.3798 0 0)
(16.3839 0 0)
(16.3878 0 0)
(16.3918 0 0)
(16.3961 0 0)
(16.4001 0 0)
(16.404 0 0)
(16.4079 0 0)
(16.4117 0 0)
(16.4155 0 0)
(16.4193 0 0)
(16.4231 0 0)
(16.4268 0 0)
(16.4305 0 0)
(16.4342 0 0)
(16.4378 0 0)
(16.4415 0 0)
(16.4451 0 0)
(16.4486 0 0)
(16.4522 0 0)
(16.4557 0 0)
(16.4592 0 0)
(16.4627 0 0)
(16.4662 0 0)
(16.4697 0 0)
(16.4731 0 0)
(16.4766 0 0)
(16.48 0 0)
(16.4834 0 0)
(16.4868 0 0)
(16.4901 0 0)
(16.4933 0 0)
(16.4962 0 0)
(16.4986 0 0)
(16.5 0 0)
)
;

boundaryField
{
    boundary
    {
        type            empty;
    }
    inlet
    {
        type            fixedValue;
        value           nonuniform 0();
    }
    outlet
    {
        type            zeroGradient;
    }
    procBoundary0to1
    {
        type            processor;
        value           uniform (15.792 0 0);
    }
}


// ************************************************************************* //
