/*--------------------------------*- C++ -*----------------------------------*\
  =========                 |
  \\      /  F ield         | OpenFOAM: The Open Source CFD Toolbox
   \\    /   O peration     | Website:  https://openfoam.org
    \\  /    A nd           | Version:  7
     \\/     M anipulation  |
\*---------------------------------------------------------------------------*/
FoamFile
{
    version     2.0;
    format      ascii;
    class       volScalarField;
    location    "0.0006";
    object      H;
}
// * * * * * * * * * * * * * * * * * * * * * * * * * * * * * * * * * * * * * //

dimensions      [0 0 0 0 0 0 0];

internalField   nonuniform List<scalar> 
125
(
1.48184e-41
2.00301e-41
2.11213e-41
2.13332e-41
2.13645e-41
2.13651e-41
2.13665e-41
2.13742e-41
2.13885e-41
2.14081e-41
2.1432e-41
2.14592e-41
2.14893e-41
2.15219e-41
2.1557e-41
2.15951e-41
2.16367e-41
2.16825e-41
2.17338e-41
2.17916e-41
2.18576e-41
2.19333e-41
2.20206e-41
2.21216e-41
2.22383e-41
2.23729e-41
2.25276e-41
2.27048e-41
2.29065e-41
2.31345e-41
2.33907e-41
2.36762e-41
2.3992e-41
2.43384e-41
2.47151e-41
2.51212e-41
2.55552e-41
2.60146e-41
2.64964e-41
2.69969e-41
2.75117e-41
2.8036e-41
2.85645e-41
2.90917e-41
2.96123e-41
3.01208e-41
3.06123e-41
3.10821e-41
3.15266e-41
3.19423e-41
3.23271e-41
3.26794e-41
3.29985e-41
3.32845e-41
3.35381e-41
3.37606e-41
3.39539e-41
3.412e-41
3.42614e-41
3.43806e-41
3.44801e-41
3.45624e-41
3.46297e-41
3.46844e-41
3.47283e-41
3.47633e-41
3.4791e-41
3.48127e-41
3.48295e-41
3.48425e-41
3.48524e-41
3.48599e-41
3.48656e-41
3.48699e-41
3.4873e-41
3.48754e-41
3.48772e-41
3.48785e-41
3.48796e-41
3.48803e-41
3.4881e-41
3.48815e-41
3.48819e-41
3.48823e-41
3.48826e-41
3.4883e-41
3.48833e-41
3.48836e-41
3.4884e-41
3.48843e-41
3.48847e-41
3.4885e-41
3.48854e-41
3.48859e-41
3.48863e-41
3.48867e-41
3.48872e-41
3.48877e-41
3.48882e-41
3.48888e-41
3.48893e-41
3.48899e-41
3.48905e-41
3.48912e-41
3.48919e-41
3.48925e-41
3.48933e-41
3.4894e-41
3.48948e-41
3.48956e-41
3.48965e-41
3.48974e-41
3.48983e-41
3.48992e-41
3.49002e-41
3.49012e-41
3.49023e-41
3.49034e-41
3.49045e-41
3.49057e-41
3.49069e-41
3.49083e-41
3.49101e-41
3.4913e-41
3.49189e-41
)
;

boundaryField
{
    boundary
    {
        type            empty;
    }
    inlet
    {
        type            fixedValue;
        value           uniform 0;
    }
    outlet
    {
        type            zeroGradient;
    }
    procBoundary2to3
    {
        type            processor;
        value           uniform 3.49248e-41;
    }
}


// ************************************************************************* //
