/*--------------------------------*- C++ -*----------------------------------*\
  =========                 |
  \\      /  F ield         | OpenFOAM: The Open Source CFD Toolbox
   \\    /   O peration     | Website:  https://openfoam.org
    \\  /    A nd           | Version:  7
     \\/     M anipulation  |
\*---------------------------------------------------------------------------*/
FoamFile
{
    version     2.0;
    format      ascii;
    class       volScalarField;
    location    "0.0006";
    object      HO2;
}
// * * * * * * * * * * * * * * * * * * * * * * * * * * * * * * * * * * * * * //

dimensions      [0 0 0 0 0 0 0];

internalField   nonuniform List<scalar> 
125
(
5.5828e-38
1.26967e-37
1.9836e-37
2.69873e-37
3.41518e-37
4.13325e-37
4.85316e-37
5.57498e-37
6.29869e-37
7.02424e-37
7.75159e-37
8.48077e-37
9.21187e-37
9.94514e-37
1.0681e-36
1.14199e-36
1.21626e-36
1.29101e-36
1.36636e-36
1.44245e-36
1.51945e-36
1.59756e-36
1.677e-36
1.75801e-36
1.84086e-36
1.92581e-36
2.01314e-36
2.1031e-36
2.19592e-36
2.29178e-36
2.3908e-36
2.49302e-36
2.59838e-36
2.70672e-36
2.81775e-36
2.93106e-36
3.04612e-36
3.16229e-36
3.27884e-36
3.39493e-36
3.5097e-36
3.62224e-36
3.73166e-36
3.83711e-36
3.9378e-36
4.03304e-36
4.12227e-36
4.20504e-36
4.28106e-36
4.35017e-36
4.41238e-36
4.4678e-36
4.51667e-36
4.55933e-36
4.59619e-36
4.62771e-36
4.6544e-36
4.67676e-36
4.69532e-36
4.71057e-36
4.72298e-36
4.73297e-36
4.74095e-36
4.74725e-36
4.75219e-36
4.75602e-36
4.75896e-36
4.7612e-36
4.7629e-36
4.76417e-36
4.76511e-36
4.76581e-36
4.76632e-36
4.76669e-36
4.76696e-36
4.76716e-36
4.7673e-36
4.76741e-36
4.76748e-36
4.76754e-36
4.76759e-36
4.76763e-36
4.76767e-36
4.7677e-36
4.76773e-36
4.76776e-36
4.76779e-36
4.76782e-36
4.76786e-36
4.76789e-36
4.76793e-36
4.76797e-36
4.76801e-36
4.76805e-36
4.7681e-36
4.76814e-36
4.7682e-36
4.76825e-36
4.76831e-36
4.76837e-36
4.76843e-36
4.7685e-36
4.76856e-36
4.76864e-36
4.76871e-36
4.76879e-36
4.76888e-36
4.76896e-36
4.76905e-36
4.76915e-36
4.76925e-36
4.76935e-36
4.76946e-36
4.76957e-36
4.76968e-36
4.7698e-36
4.76993e-36
4.77006e-36
4.77019e-36
4.77032e-36
4.77045e-36
4.77053e-36
4.77041e-36
4.7695e-36
4.76547e-36
)
;

boundaryField
{
    boundary
    {
        type            empty;
    }
    inlet
    {
        type            fixedValue;
        value           uniform 0;
    }
    outlet
    {
        type            zeroGradient;
    }
    procBoundary2to3
    {
        type            processor;
        value           uniform 4.75737e-36;
    }
}


// ************************************************************************* //
