/*--------------------------------*- C++ -*----------------------------------*\
  =========                 |
  \\      /  F ield         | OpenFOAM: The Open Source CFD Toolbox
   \\    /   O peration     | Website:  https://openfoam.org
    \\  /    A nd           | Version:  7
     \\/     M anipulation  |
\*---------------------------------------------------------------------------*/
FoamFile
{
    version     2.0;
    format      ascii;
    class       volScalarField;
    location    "0.0006";
    object      T;
}
// * * * * * * * * * * * * * * * * * * * * * * * * * * * * * * * * * * * * * //

dimensions      [0 0 0 1 0 0 0];

internalField   nonuniform List<scalar> 
125
(
299.993
299.985
299.979
299.974
299.971
299.969
299.969
299.97
299.972
299.975
299.979
299.983
299.987
299.992
299.997
300.003
300.009
300.016
300.023
300.032
300.042
300.053
300.065
300.08
300.097
300.116
300.138
300.163
300.191
300.223
300.258
300.297
300.34
300.386
300.435
300.487
300.542
300.599
300.658
300.719
300.779
300.84
300.9
300.959
301.017
301.071
301.124
301.173
301.219
301.261
301.3
301.335
301.366
301.394
301.418
301.44
301.458
301.474
301.487
301.498
301.508
301.515
301.522
301.527
301.531
301.534
301.537
301.539
301.54
301.541
301.542
301.543
301.543
301.544
301.544
301.544
301.544
301.545
301.545
301.545
301.545
301.545
301.545
301.545
301.545
301.545
301.545
301.545
301.545
301.545
301.545
301.545
301.545
301.545
301.545
301.545
301.545
301.545
301.545
301.546
301.546
301.546
301.546
301.546
301.546
301.546
301.546
301.546
301.546
301.546
301.546
301.546
301.546
301.546
301.547
301.547
301.547
301.547
301.547
301.547
301.547
301.547
301.547
301.548
301.548
)
;

boundaryField
{
    boundary
    {
        type            empty;
    }
    inlet
    {
        type            fixedValue;
        value           uniform 300;
    }
    outlet
    {
        type            zeroGradient;
    }
    procBoundary2to3
    {
        type            processor;
        value           uniform 301.549;
    }
}


// ************************************************************************* //
