/*--------------------------------*- C++ -*----------------------------------*\
  =========                 |
  \\      /  F ield         | OpenFOAM: The Open Source CFD Toolbox
   \\    /   O peration     | Website:  https://openfoam.org
    \\  /    A nd           | Version:  7
     \\/     M anipulation  |
\*---------------------------------------------------------------------------*/
FoamFile
{
    version     2.0;
    format      ascii;
    class       volScalarField;
    location    "0.00035";
    object      H2;
}
// * * * * * * * * * * * * * * * * * * * * * * * * * * * * * * * * * * * * * //

dimensions      [0 0 0 0 0 0 0];

internalField   nonuniform List<scalar> 
500
(
0.0285116
0.0285116
0.0285116
0.0285116
0.0285116
0.0285116
0.0285116
0.0285116
0.0285116
0.0285116
0.0285116
0.0285116
0.0285116
0.0285116
0.0285116
0.0285116
0.0285116
0.0285116
0.0285116
0.0285116
0.0285116
0.0285116
0.0285116
0.0285116
0.0285116
0.0285116
0.0285116
0.0285116
0.0285116
0.0285116
0.0285116
0.0285116
0.0285116
0.0285116
0.0285116
0.0285116
0.0285116
0.0285116
0.0285116
0.0285116
0.0285116
0.0285116
0.0285116
0.0285116
0.0285116
0.0285116
0.0285116
0.0285116
0.0285116
0.0285116
0.0285116
0.0285116
0.0285116
0.0285116
0.0285116
0.0285116
0.0285116
0.0285116
0.0285116
0.0285116
0.0285116
0.0285116
0.0285116
0.0285116
0.0285116
0.0285116
0.0285116
0.0285116
0.0285116
0.0285116
0.0285116
0.0285116
0.0285116
0.0285116
0.0285116
0.0285116
0.0285116
0.0285116
0.0285116
0.0285116
0.0285116
0.0285116
0.0285116
0.0285116
0.0285116
0.0285116
0.0285116
0.0285116
0.0285116
0.0285116
0.0285116
0.0285116
0.0285116
0.0285116
0.0285116
0.0285116
0.0285116
0.0285116
0.0285116
0.0285116
0.0285116
0.0285116
0.0285116
0.0285116
0.0285116
0.0285116
0.0285116
0.0285116
0.0285116
0.0285116
0.0285116
0.0285116
0.0285116
0.0285116
0.0285116
0.0285116
0.0285116
0.0285116
0.0285116
0.0285116
0.0285116
0.0285116
0.0285116
0.0285116
0.0285116
0.0285116
0.0285116
0.0285116
0.0285116
0.0285116
0.0285116
0.0285116
0.0285116
0.0285116
0.0285116
0.0285116
0.0285116
0.0285116
0.0285116
0.0285116
0.0285116
0.0285116
0.0285116
0.0285116
0.0285116
0.0285116
0.0285116
0.0285116
0.0285116
0.0285116
0.0285116
0.0285116
0.0285116
0.0285116
0.0285116
0.0285116
0.0285116
0.0285116
0.0285116
0.0285116
0.0285116
0.0285116
0.0285116
0.0285116
0.0285116
0.0285116
0.0285116
0.0285116
0.0285116
0.0285116
0.0285116
0.0285116
0.0285116
0.0285116
0.0285116
0.0285116
0.0285116
0.0285116
0.0285116
0.0285116
0.0285116
0.0285116
0.0285116
0.0285116
0.0285116
0.0285116
0.0285116
0.0285116
0.0285116
0.0285116
0.0285116
0.0285116
0.0285116
0.0285116
0.0285116
0.0285116
0.0285116
0.0285116
0.0285116
0.0285116
0.0285116
0.0285116
0.0285116
0.0285116
0.0285116
0.0285116
0.0285116
0.0285116
0.0285116
0.0285116
0.0285116
0.0285116
0.0285116
0.0285116
0.0285116
0.0285116
0.0285116
0.0285116
0.0285116
0.0285116
0.0285116
0.0285116
0.0285116
0.0285116
0.0285116
0.0285116
0.0285116
0.0285116
0.0285116
0.0285116
0.0285116
0.0285116
0.0285116
0.0285116
0.0285116
0.0285116
0.0285116
0.0285116
0.0285116
0.0285116
0.0285116
0.0285116
0.0285116
0.0285116
0.0285116
0.0285116
0.0285116
0.0285116
0.0285116
0.0285116
0.0285116
0.0285116
0.0285116
0.0285116
0.0285116
0.0285116
0.0285116
0.0285116
0.0285116
0.0285116
0.0285116
0.0285116
0.0285116
0.0285115
0.0285115
0.0285114
0.0285112
0.0285107
0.0285098
0.0285079
0.0285038
0.0284952
0.0284773
0.02844
0.0283623
0.0282019
0.0278771
0.0272497
0.026143
0.0244277
0.0221616
0.0195164
0.0165801
0.0135087
0.0106401
0.00831263
0.00664438
0.00545422
0.00475907
0.00432946
0.00406496
0.00390009
0.00379424
0.00372292
0.00367162
0.00363182
0.00359859
0.00356911
0.00354176
0.00351566
0.00349032
0.00346548
0.00344103
0.0034169
0.00339309
0.00336959
0.00334642
0.00332358
0.0033011
0.00327896
0.00325719
0.00323579
0.0032154
0.00319582
0.00317651
0.00315748
0.00313871
0.00312021
0.00310197
0.00308399
0.00306626
0.00304879
0.00303157
0.00301459
0.00299786
0.00298136
0.00296511
0.00294908
0.00293329
0.00291772
0.00290237
0.00288725
0.00287234
0.00285764
0.00284316
0.00282888
0.00281481
0.00280094
0.00278727
0.00277381
0.00276054
0.00274747
0.0027346
0.00272193
0.00270945
0.00269717
0.00268508
0.00267319
0.0026615
0.00265001
0.00263873
0.00262764
0.00261676
0.00260609
0.00259563
0.00258538
0.00257535
0.00256554
0.00255595
0.00254659
0.00253746
0.00252857
0.00251992
0.00251152
0.00250337
0.00249548
0.00248785
0.0024805
0.00247342
0.00246664
0.00246016
0.002454
0.00244819
0.00244277
0.0024378
0.00243339
0.00242893
0.00242402
0.00241951
0.00241535
0.0024115
0.00240797
0.00240476
0.00240186
0.00239926
0.00239696
0.00239495
0.00239322
0.00239177
0.00239059
0.00238965
0.00238895
0.00238848
0.00238822
0.00238815
0.00238826
0.00238852
0.00238892
0.00238943
0.00239003
0.00239069
0.00239139
0.0023921
0.00239278
0.00239341
0.00239396
0.00239439
0.00239466
0.00239475
0.00239461
0.00239421
0.00239351
0.00239248
0.00239107
0.00238926
0.00238701
0.00238428
0.00238104
0.00237726
0.0023729
0.00236795
0.00236236
0.00235613
0.00234922
0.00234161
0.0023333
0.00232426
0.00231449
0.00230398
0.00229272
0.00228072
0.00226797
0.00225449
0.00224028
0.00222535
0.00220972
0.00219341
0.00217644
0.00215883
0.00214061
0.00212182
0.00210249
0.00208264
0.00206233
0.00204158
0.00202044
0.00199895
0.00197716
0.00195511
0.00193286
0.00191043
0.0018879
0.00186529
0.00184266
0.00182006
0.00179754
0.00177513
0.00175289
0.00173086
0.00170908
0.0016876
0.00166644
0.00164566
0.00162528
0.00160534
0.00158586
0.00156688
0.00154841
0.00153048
0.00151312
0.00149633
0.00148012
0.00146452
0.00144953
0.00143514
0.00142138
0.00140823
0.00139569
0.00138376
0.00137243
0.0013617
0.00135155
0.00134197
0.00133295
0.00132447
0.00131652
0.00130908
0.00130214
0.00129567
0.00128966
0.00128409
0.00127896
0.00127425
0.00126996
0.00126609
0.00126265
0.00125968
0.00125723
0.00125541
0.00125438
)
;

boundaryField
{
    boundary
    {
        type            empty;
    }
    inlet
    {
        type            fixedValue;
        value           uniform 0.0285116;
    }
    outlet
    {
        type            zeroGradient;
    }
}


// ************************************************************************* //
