/*--------------------------------*- C++ -*----------------------------------*\
  =========                 |
  \\      /  F ield         | OpenFOAM: The Open Source CFD Toolbox
   \\    /   O peration     | Website:  https://openfoam.org
    \\  /    A nd           | Version:  7
     \\/     M anipulation  |
\*---------------------------------------------------------------------------*/
FoamFile
{
    version     2.0;
    format      ascii;
    class       volScalarField;
    location    "0.00035";
    object      H2O2;
}
// * * * * * * * * * * * * * * * * * * * * * * * * * * * * * * * * * * * * * //

dimensions      [0 0 0 0 0 0 0];

internalField   nonuniform List<scalar> 
500
(
2.00144e-52
6.43996e-52
1.28261e-51
2.11805e-51
3.15316e-51
4.39197e-51
5.83995e-51
7.50433e-51
9.39428e-51
1.15209e-50
1.38967e-50
1.65356e-50
1.94509e-50
2.26545e-50
2.61545e-50
2.9953e-50
3.40436e-50
3.84097e-50
4.30221e-50
4.78388e-50
5.28051e-50
5.78549e-50
6.29137e-50
6.79024e-50
7.27414e-50
7.73557e-50
8.1679e-50
8.56579e-50
8.92538e-50
9.24447e-50
9.52246e-50
9.76025e-50
9.95996e-50
1.01247e-49
1.02582e-49
1.03644e-49
1.04475e-49
1.05114e-49
1.05597e-49
1.05957e-49
1.0622e-49
1.06409e-49
1.06543e-49
1.06637e-49
1.06702e-49
1.06745e-49
1.06775e-49
1.06794e-49
1.06806e-49
1.06815e-49
1.0682e-49
1.06823e-49
1.06825e-49
1.06826e-49
1.06827e-49
1.06828e-49
1.06828e-49
1.06828e-49
1.06829e-49
1.06829e-49
1.06829e-49
1.0683e-49
1.0683e-49
1.06831e-49
1.06831e-49
1.06832e-49
1.06832e-49
1.06833e-49
1.06833e-49
1.06834e-49
1.06835e-49
1.06836e-49
1.06837e-49
1.06838e-49
1.06839e-49
1.0684e-49
1.06841e-49
1.06842e-49
1.06844e-49
1.06845e-49
1.06847e-49
1.06848e-49
1.0685e-49
1.06852e-49
1.06854e-49
1.06856e-49
1.06858e-49
1.0686e-49
1.06863e-49
1.06865e-49
1.06868e-49
1.06871e-49
1.06874e-49
1.06877e-49
1.0688e-49
1.06883e-49
1.06886e-49
1.0689e-49
1.06894e-49
1.06897e-49
1.06901e-49
1.06905e-49
1.0691e-49
1.06914e-49
1.06919e-49
1.06923e-49
1.06928e-49
1.06933e-49
1.06938e-49
1.06944e-49
1.06949e-49
1.06955e-49
1.06961e-49
1.06967e-49
1.06973e-49
1.06979e-49
1.06986e-49
1.06993e-49
1.07e-49
1.07007e-49
1.07014e-49
1.07021e-49
1.07025e-49
1.07001e-49
1.06811e-49
1.064e-49
1.0666e-49
1.06884e-49
1.0703e-49
1.07099e-49
1.0711e-49
1.07084e-49
1.07035e-49
1.06974e-49
1.06907e-49
1.06838e-49
1.06772e-49
1.06711e-49
1.06659e-49
1.06618e-49
1.06589e-49
1.06574e-49
1.06572e-49
1.06583e-49
1.06607e-49
1.06643e-49
1.06688e-49
1.06741e-49
1.068e-49
1.06862e-49
1.06924e-49
1.06986e-49
1.07045e-49
1.071e-49
1.0715e-49
1.07195e-49
1.07234e-49
1.07268e-49
1.07297e-49
1.07322e-49
1.07343e-49
1.0736e-49
1.07375e-49
1.07388e-49
1.07398e-49
1.07408e-49
1.07416e-49
1.07422e-49
1.07428e-49
1.07433e-49
1.07438e-49
1.07441e-49
1.07444e-49
1.07446e-49
1.07448e-49
1.07448e-49
1.07448e-49
1.07447e-49
1.07445e-49
1.07442e-49
1.07438e-49
1.07433e-49
1.07427e-49
1.0742e-49
1.07411e-49
1.07402e-49
1.07391e-49
1.07379e-49
1.07365e-49
1.0735e-49
1.07334e-49
1.07316e-49
1.07296e-49
1.07275e-49
1.07252e-49
1.07227e-49
1.07201e-49
1.07172e-49
1.07142e-49
1.0711e-49
1.07075e-49
1.07039e-49
1.07001e-49
1.0696e-49
1.06917e-49
1.06872e-49
1.06825e-49
1.06775e-49
1.06724e-49
1.06669e-49
1.06613e-49
1.06561e-49
1.06559e-49
1.06975e-49
1.10755e-49
1.41193e-49
3.80515e-49
2.23908e-48
1.65141e-47
1.24957e-46
9.39654e-46
6.99163e-45
5.14377e-44
3.7409e-43
2.68897e-42
1.91001e-41
1.34045e-40
9.29292e-40
6.36304e-39
4.30235e-38
2.87206e-37
1.89253e-36
1.23074e-35
7.89731e-35
4.99905e-34
3.12104e-33
1.92142e-32
1.16617e-31
6.97635e-31
4.11273e-30
2.38881e-29
1.36677e-28
7.70157e-28
4.27297e-27
2.33356e-26
1.254e-25
6.62867e-25
3.44626e-24
1.76289e-23
8.8828e-23
4.41629e-22
2.20969e-21
1.07815e-20
5.16718e-20
2.44307e-19
1.14082e-18
5.2654e-18
2.404e-17
1.08668e-16
4.86786e-16
2.16298e-15
9.54242e-15
4.18373e-14
1.82454e-13
7.92097e-13
3.42579e-12
1.47699e-11
6.35138e-11
2.72543e-10
1.16747e-09
4.99392e-09
2.13352e-08
9.10172e-08
3.87145e-07
1.63203e-06
6.6722e-06
2.46556e-05
6.84377e-05
0.000111788
0.000123259
8.58931e-05
4.10879e-05
1.65108e-05
7.27031e-06
4.69569e-06
4.48867e-06
4.99756e-06
5.71356e-06
6.21582e-06
6.54909e-06
6.72508e-06
6.77682e-06
6.73829e-06
6.63779e-06
6.49672e-06
6.33036e-06
6.14961e-06
5.96194e-06
5.77241e-06
5.58444e-06
5.4003e-06
5.22145e-06
5.04875e-06
4.88274e-06
4.72362e-06
4.57146e-06
4.42618e-06
4.28763e-06
4.15559e-06
4.02984e-06
3.91014e-06
3.79632e-06
3.69145e-06
3.59286e-06
3.49829e-06
3.40756e-06
3.32046e-06
3.23682e-06
3.15648e-06
3.07928e-06
3.00505e-06
2.93367e-06
2.86499e-06
2.79889e-06
2.73523e-06
2.6739e-06
2.6148e-06
2.55781e-06
2.50283e-06
2.44977e-06
2.39855e-06
2.34907e-06
2.30127e-06
2.25505e-06
2.21036e-06
2.16712e-06
2.12527e-06
2.08475e-06
2.0455e-06
2.00747e-06
1.9706e-06
1.93485e-06
1.90016e-06
1.8665e-06
1.83383e-06
1.80209e-06
1.77126e-06
1.74129e-06
1.71216e-06
1.68382e-06
1.65625e-06
1.62942e-06
1.60329e-06
1.57785e-06
1.55305e-06
1.52888e-06
1.50531e-06
1.48233e-06
1.45989e-06
1.43799e-06
1.4166e-06
1.39571e-06
1.37528e-06
1.35531e-06
1.33577e-06
1.31664e-06
1.29792e-06
1.27957e-06
1.26159e-06
1.24394e-06
1.22663e-06
1.20961e-06
1.19286e-06
1.17634e-06
1.16e-06
1.14376e-06
1.12775e-06
1.11238e-06
1.09725e-06
1.08233e-06
1.06759e-06
1.053e-06
1.03856e-06
1.02424e-06
1.01003e-06
9.95923e-07
9.81906e-07
9.67966e-07
9.54092e-07
9.40273e-07
9.26498e-07
9.12757e-07
8.9904e-07
8.85338e-07
8.71642e-07
8.57945e-07
8.44238e-07
8.30517e-07
8.16777e-07
8.03015e-07
7.89227e-07
7.75415e-07
7.61578e-07
7.47719e-07
7.33842e-07
7.19953e-07
7.06059e-07
6.92168e-07
6.78292e-07
6.64441e-07
6.50629e-07
6.3687e-07
6.23179e-07
6.09572e-07
5.96067e-07
5.8268e-07
5.69429e-07
5.56331e-07
5.43405e-07
5.30667e-07
5.18134e-07
5.05822e-07
4.93746e-07
4.8192e-07
4.70357e-07
4.59069e-07
4.48066e-07
4.37356e-07
4.26948e-07
4.16847e-07
4.07057e-07
3.97582e-07
3.88423e-07
3.7958e-07
3.71053e-07
3.62838e-07
3.54934e-07
3.47334e-07
3.40034e-07
3.33028e-07
3.26309e-07
3.1987e-07
3.13702e-07
3.07797e-07
3.02147e-07
2.96742e-07
2.91574e-07
2.86633e-07
2.81912e-07
2.77399e-07
2.73087e-07
2.68967e-07
2.6503e-07
2.61268e-07
2.57674e-07
2.54239e-07
2.50956e-07
2.47818e-07
2.44818e-07
2.4195e-07
2.39209e-07
2.36588e-07
2.34083e-07
2.31687e-07
2.29398e-07
2.2721e-07
2.25119e-07
2.23122e-07
2.21215e-07
2.19395e-07
2.17658e-07
2.16003e-07
2.14426e-07
2.12925e-07
2.11497e-07
2.1014e-07
2.08851e-07
2.0763e-07
2.06473e-07
2.05378e-07
2.04344e-07
2.03369e-07
2.0245e-07
2.01586e-07
2.00774e-07
2.00013e-07
1.99301e-07
1.98635e-07
1.98015e-07
1.97439e-07
1.96904e-07
1.9641e-07
1.95956e-07
1.95541e-07
1.95165e-07
1.94829e-07
1.94537e-07
1.94292e-07
1.94105e-07
1.93992e-07
)
;

boundaryField
{
    boundary
    {
        type            empty;
    }
    inlet
    {
        type            fixedValue;
        value           uniform 0;
    }
    outlet
    {
        type            zeroGradient;
    }
}


// ************************************************************************* //
