/*--------------------------------*- C++ -*----------------------------------*\
  =========                 |
  \\      /  F ield         | OpenFOAM: The Open Source CFD Toolbox
   \\    /   O peration     | Website:  https://openfoam.org
    \\  /    A nd           | Version:  7
     \\/     M anipulation  |
\*---------------------------------------------------------------------------*/
FoamFile
{
    version     2.0;
    format      ascii;
    class       volScalarField;
    location    "0.00035";
    object      HO2;
}
// * * * * * * * * * * * * * * * * * * * * * * * * * * * * * * * * * * * * * //

dimensions      [0 0 0 0 0 0 0];

internalField   nonuniform List<scalar> 
500
(
5.60242e-38
1.27627e-37
1.99668e-37
2.71997e-37
3.44651e-37
4.1773e-37
4.91382e-37
5.65797e-37
6.41211e-37
7.17901e-37
7.96175e-37
8.7636e-37
9.58779e-37
1.04372e-36
1.13138e-36
1.22186e-36
1.31509e-36
1.41082e-36
1.50858e-36
1.60769e-36
1.70724e-36
1.80619e-36
1.90335e-36
1.9975e-36
2.08744e-36
2.17206e-36
2.25043e-36
2.32185e-36
2.38584e-36
2.44223e-36
2.49106e-36
2.53264e-36
2.56743e-36
2.59605e-36
2.6192e-36
2.63761e-36
2.65201e-36
2.66308e-36
2.67147e-36
2.67771e-36
2.6823e-36
2.68561e-36
2.68796e-36
2.68961e-36
2.69075e-36
2.69153e-36
2.69205e-36
2.69239e-36
2.69262e-36
2.69277e-36
2.69286e-36
2.69292e-36
2.69296e-36
2.69298e-36
2.693e-36
2.69301e-36
2.69302e-36
2.69303e-36
2.69303e-36
2.69304e-36
2.69304e-36
2.69305e-36
2.69306e-36
2.69307e-36
2.69308e-36
2.69309e-36
2.6931e-36
2.69311e-36
2.69312e-36
2.69313e-36
2.69315e-36
2.69316e-36
2.69318e-36
2.6932e-36
2.69322e-36
2.69324e-36
2.69326e-36
2.69329e-36
2.69331e-36
2.69334e-36
2.69337e-36
2.69339e-36
2.69343e-36
2.69346e-36
2.69349e-36
2.69353e-36
2.69357e-36
2.69361e-36
2.69365e-36
2.6937e-36
2.69374e-36
2.69379e-36
2.69384e-36
2.6939e-36
2.69395e-36
2.69401e-36
2.69407e-36
2.69413e-36
2.6942e-36
2.69427e-36
2.69434e-36
2.69441e-36
2.69449e-36
2.69457e-36
2.69465e-36
2.69473e-36
2.69482e-36
2.69491e-36
2.695e-36
2.69509e-36
2.69519e-36
2.69529e-36
2.6954e-36
2.6955e-36
2.69561e-36
2.69573e-36
2.69584e-36
2.69596e-36
2.69608e-36
2.69621e-36
2.69633e-36
2.69646e-36
2.69658e-36
2.6965e-36
2.69475e-36
2.69069e-36
2.69433e-36
2.69664e-36
2.69772e-36
2.69794e-36
2.69759e-36
2.69689e-36
2.69594e-36
2.69483e-36
2.69364e-36
2.69246e-36
2.69136e-36
2.69043e-36
2.6897e-36
2.68923e-36
2.68901e-36
2.68906e-36
2.68934e-36
2.68983e-36
2.69049e-36
2.69129e-36
2.6922e-36
2.69317e-36
2.69417e-36
2.69518e-36
2.69616e-36
2.6971e-36
2.69798e-36
2.69879e-36
2.69951e-36
2.70016e-36
2.70073e-36
2.70122e-36
2.70164e-36
2.70201e-36
2.70232e-36
2.70258e-36
2.70281e-36
2.70301e-36
2.70318e-36
2.70333e-36
2.70346e-36
2.70357e-36
2.70367e-36
2.70376e-36
2.70383e-36
2.70389e-36
2.70394e-36
2.70398e-36
2.704e-36
2.70401e-36
2.704e-36
2.70398e-36
2.70395e-36
2.70389e-36
2.70382e-36
2.70373e-36
2.70363e-36
2.7035e-36
2.70335e-36
2.70318e-36
2.70299e-36
2.70277e-36
2.70253e-36
2.70226e-36
2.70197e-36
2.70165e-36
2.7013e-36
2.70093e-36
2.70052e-36
2.70008e-36
2.69961e-36
2.69911e-36
2.69858e-36
2.69801e-36
2.6974e-36
2.69676e-36
2.69608e-36
2.69536e-36
2.69461e-36
2.69381e-36
2.69298e-36
2.6921e-36
2.69118e-36
2.69022e-36
2.68921e-36
2.68817e-36
2.68707e-36
2.68594e-36
2.68476e-36
2.68353e-36
2.68226e-36
2.68094e-36
2.67958e-36
2.67818e-36
2.67676e-36
2.67547e-36
2.67495e-36
2.67826e-36
2.69992e-36
2.80788e-36
3.3171e-36
5.67439e-36
1.64689e-35
6.54743e-35
2.86309e-34
1.27532e-33
5.68372e-33
2.52766e-32
1.1229e-31
4.99361e-31
2.22852e-30
1.00052e-29
4.52892e-29
2.07021e-28
9.5631e-28
4.46304e-27
2.10169e-26
9.96631e-26
4.74711e-25
2.26494e-24
1.0795e-23
5.12623e-23
2.41987e-22
1.13358e-21
5.26632e-21
2.46454e-20
1.13656e-19
5.18326e-19
2.34356e-18
1.05108e-17
4.67816e-17
2.06734e-16
9.07609e-16
3.96096e-15
1.71943e-14
7.42866e-14
3.19611e-13
1.37005e-12
5.85395e-12
2.49417e-11
1.06e-10
4.49473e-10
1.90198e-09
8.03304e-09
3.38628e-08
1.42368e-07
5.95511e-07
2.46031e-06
9.93154e-06
3.80397e-05
0.000129403
0.000335805
0.000510977
0.00049413
0.000392415
0.00028354
0.000199334
0.000139536
9.7441e-05
6.84661e-05
4.94893e-05
3.49067e-05
2.69423e-05
2.17928e-05
1.83656e-05
1.59977e-05
1.42906e-05
1.30063e-05
1.20014e-05
1.11878e-05
1.05106e-05
9.93398e-06
9.43423e-06
8.99496e-06
8.60449e-06
8.25424e-06
7.9377e-06
7.64984e-06
7.38669e-06
7.14501e-06
6.92217e-06
6.71599e-06
6.52464e-06
6.34658e-06
6.18053e-06
6.02549e-06
5.88493e-06
5.75448e-06
5.63083e-06
5.51346e-06
5.40191e-06
5.29573e-06
5.19456e-06
5.09805e-06
5.00587e-06
4.91774e-06
4.83341e-06
4.75263e-06
4.67519e-06
4.60089e-06
4.52954e-06
4.46098e-06
4.39504e-06
4.33157e-06
4.27046e-06
4.21156e-06
4.15476e-06
4.09996e-06
4.04705e-06
3.99594e-06
3.94654e-06
3.89876e-06
3.85252e-06
3.80775e-06
3.76439e-06
3.72236e-06
3.6816e-06
3.64204e-06
3.60365e-06
3.56634e-06
3.53009e-06
3.49483e-06
3.46051e-06
3.42709e-06
3.39453e-06
3.36277e-06
3.33178e-06
3.30151e-06
3.27193e-06
3.24299e-06
3.21466e-06
3.18689e-06
3.15965e-06
3.13291e-06
3.10661e-06
3.08074e-06
3.05525e-06
3.03011e-06
3.00529e-06
2.98074e-06
2.95644e-06
2.93235e-06
2.90844e-06
2.88466e-06
2.86098e-06
2.83733e-06
2.81365e-06
2.7898e-06
2.76553e-06
2.7403e-06
2.71523e-06
2.69224e-06
2.6691e-06
2.64576e-06
2.6222e-06
2.59841e-06
2.5744e-06
2.55014e-06
2.52564e-06
2.50089e-06
2.4759e-06
2.45067e-06
2.42521e-06
2.39952e-06
2.37363e-06
2.34753e-06
2.32126e-06
2.29483e-06
2.26826e-06
2.24159e-06
2.21483e-06
2.18803e-06
2.16122e-06
2.13444e-06
2.10773e-06
2.08113e-06
2.0547e-06
2.02847e-06
2.00252e-06
1.97688e-06
1.95162e-06
1.92678e-06
1.90243e-06
1.87862e-06
1.85541e-06
1.83285e-06
1.81099e-06
1.7899e-06
1.76961e-06
1.75018e-06
1.73165e-06
1.71406e-06
1.69745e-06
1.68185e-06
1.66728e-06
1.65377e-06
1.64133e-06
1.62997e-06
1.6197e-06
1.61052e-06
1.60242e-06
1.59538e-06
1.58938e-06
1.5844e-06
1.58041e-06
1.57736e-06
1.57522e-06
1.57394e-06
1.57347e-06
1.57376e-06
1.57474e-06
1.57636e-06
1.57856e-06
1.58128e-06
1.58445e-06
1.58803e-06
1.59194e-06
1.59613e-06
1.60055e-06
1.60515e-06
1.60988e-06
1.61469e-06
1.61955e-06
1.62442e-06
1.62927e-06
1.63407e-06
1.63881e-06
1.64345e-06
1.64798e-06
1.6524e-06
1.65669e-06
1.66085e-06
1.66488e-06
1.66877e-06
1.67252e-06
1.67614e-06
1.67963e-06
1.683e-06
1.68624e-06
1.68936e-06
1.69237e-06
1.69528e-06
1.69807e-06
1.70077e-06
1.70338e-06
1.70589e-06
1.70831e-06
1.71064e-06
1.71289e-06
1.71506e-06
1.71714e-06
1.71914e-06
1.72106e-06
1.72291e-06
1.72467e-06
1.72636e-06
1.72796e-06
1.7295e-06
1.73095e-06
1.73233e-06
1.73364e-06
1.73488e-06
1.73604e-06
1.73713e-06
1.73816e-06
1.73912e-06
1.74001e-06
1.74084e-06
1.74161e-06
1.74231e-06
1.74294e-06
1.7435e-06
1.74396e-06
1.74426e-06
)
;

boundaryField
{
    boundary
    {
        type            empty;
    }
    inlet
    {
        type            fixedValue;
        value           uniform 0;
    }
    outlet
    {
        type            zeroGradient;
    }
}


// ************************************************************************* //
