/*--------------------------------*- C++ -*----------------------------------*\
  =========                 |
  \\      /  F ield         | OpenFOAM: The Open Source CFD Toolbox
   \\    /   O peration     | Website:  https://openfoam.org
    \\  /    A nd           | Version:  7
     \\/     M anipulation  |
\*---------------------------------------------------------------------------*/
FoamFile
{
    version     2.0;
    format      ascii;
    class       volScalarField;
    location    "0.00035";
    object      OH;
}
// * * * * * * * * * * * * * * * * * * * * * * * * * * * * * * * * * * * * * //

dimensions      [0 0 0 0 0 0 0];

internalField   nonuniform List<scalar> 
500
(
9.399e-48
1.83376e-47
2.44744e-47
2.86603e-47
3.15265e-47
3.35112e-47
3.49142e-47
3.59403e-47
3.67308e-47
3.73845e-47
3.79715e-47
3.85432e-47
3.91379e-47
3.97848e-47
4.05064e-47
4.13197e-47
4.22362e-47
4.32628e-47
4.44009e-47
4.56466e-47
4.69905e-47
4.8418e-47
4.99095e-47
5.14412e-47
5.29869e-47
5.45185e-47
5.60084e-47
5.74309e-47
5.87637e-47
5.9989e-47
6.10944e-47
6.20731e-47
6.29237e-47
6.36496e-47
6.42579e-47
6.47587e-47
6.51641e-47
6.54867e-47
6.57392e-47
6.59337e-47
6.60812e-47
6.61913e-47
6.62724e-47
6.63311e-47
6.63731e-47
6.64027e-47
6.64234e-47
6.64376e-47
6.64472e-47
6.64537e-47
6.64581e-47
6.6461e-47
6.64629e-47
6.64643e-47
6.64652e-47
6.64659e-47
6.64664e-47
6.64669e-47
6.64673e-47
6.64677e-47
6.64681e-47
6.64685e-47
6.64689e-47
6.64694e-47
6.64699e-47
6.64704e-47
6.64709e-47
6.64714e-47
6.6472e-47
6.64727e-47
6.64733e-47
6.6474e-47
6.64748e-47
6.64756e-47
6.64764e-47
6.64772e-47
6.64782e-47
6.64791e-47
6.64801e-47
6.64812e-47
6.64823e-47
6.64835e-47
6.64847e-47
6.6486e-47
6.64873e-47
6.64887e-47
6.64901e-47
6.64917e-47
6.64932e-47
6.64949e-47
6.64966e-47
6.64984e-47
6.65003e-47
6.65022e-47
6.65042e-47
6.65063e-47
6.65085e-47
6.65107e-47
6.6513e-47
6.65154e-47
6.65179e-47
6.65205e-47
6.65232e-47
6.65259e-47
6.65288e-47
6.65317e-47
6.65347e-47
6.65378e-47
6.6541e-47
6.65443e-47
6.65477e-47
6.65512e-47
6.65547e-47
6.65584e-47
6.65622e-47
6.6566e-47
6.657e-47
6.6574e-47
6.65782e-47
6.65824e-47
6.65867e-47
6.65911e-47
6.65956e-47
6.66e-47
6.66041e-47
6.66074e-47
6.66129e-47
6.66181e-47
6.66232e-47
6.66282e-47
6.66332e-47
6.66381e-47
6.66431e-47
6.6648e-47
6.66529e-47
6.66578e-47
6.66626e-47
6.66675e-47
6.66723e-47
6.66772e-47
6.66822e-47
6.66872e-47
6.66924e-47
6.66977e-47
6.67033e-47
6.6709e-47
6.67149e-47
6.67211e-47
6.67273e-47
6.67338e-47
6.67403e-47
6.67469e-47
6.67535e-47
6.67601e-47
6.67665e-47
6.67729e-47
6.67791e-47
6.67851e-47
6.67909e-47
6.67965e-47
6.68018e-47
6.68069e-47
6.68118e-47
6.68164e-47
6.68208e-47
6.68249e-47
6.68287e-47
6.68322e-47
6.68354e-47
6.68383e-47
6.68409e-47
6.68431e-47
6.6845e-47
6.68464e-47
6.68475e-47
6.68481e-47
6.68483e-47
6.68481e-47
6.68473e-47
6.6846e-47
6.68441e-47
6.68417e-47
6.68387e-47
6.68351e-47
6.68308e-47
6.68258e-47
6.68202e-47
6.68138e-47
6.68066e-47
6.67987e-47
6.67899e-47
6.67803e-47
6.67698e-47
6.67585e-47
6.67462e-47
6.67329e-47
6.67186e-47
6.67033e-47
6.6687e-47
6.66696e-47
6.66512e-47
6.66315e-47
6.66108e-47
6.65889e-47
6.65657e-47
6.65415e-47
6.65167e-47
6.64943e-47
6.64905e-47
6.65938e-47
6.72791e-47
7.10727e-47
9.12814e-47
1.973e-46
7.47396e-46
3.57246e-45
1.79331e-44
9.01832e-44
4.49909e-43
2.22215e-42
1.08607e-41
5.25165e-41
2.51205e-40
1.18852e-39
5.56136e-39
2.57338e-38
1.17741e-37
5.32613e-37
2.38184e-36
1.05291e-35
4.60061e-35
1.98681e-34
8.47994e-34
3.57693e-33
1.4911e-32
6.14317e-32
2.50149e-31
1.00687e-30
4.00686e-30
1.57691e-29
6.13976e-29
2.36632e-28
9.03421e-28
3.41999e-27
1.2854e-26
4.80452e-26
1.78972e-25
6.66168e-25
2.48553e-24
9.33e-24
3.53774e-23
1.36373e-22
5.34332e-22
2.13564e-21
8.71988e-21
3.6362e-20
1.54613e-19
6.68687e-19
2.93303e-18
1.30096e-17
5.82017e-17
2.62044e-16
1.18529e-15
5.37918e-15
2.44693e-14
1.1149e-13
5.08557e-13
2.32151e-12
1.06023e-11
4.84314e-11
2.21792e-10
1.02925e-09
4.82067e-09
2.27251e-08
1.08778e-07
5.48239e-07
3.14623e-06
2.1174e-05
0.000133096
0.000465018
0.000759459
0.000912388
0.00120245
0.00187555
0.00297779
0.00433041
0.0056934
0.00706734
0.00808495
0.00888863
0.0095162
0.0100052
0.0103881
0.0106906
0.0109317
0.0111255
0.0112822
0.0114094
0.0115128
0.0115968
0.0116646
0.0117189
0.0117619
0.0117951
0.01182
0.0118377
0.0118492
0.0118553
0.0118567
0.0118538
0.0118474
0.0118377
0.0118256
0.0118117
0.0117957
0.011778
0.0117587
0.0117379
0.0117157
0.0116924
0.0116679
0.0116425
0.0116162
0.0115892
0.0115614
0.011533
0.011504
0.0114745
0.0114446
0.0114143
0.0113836
0.0113527
0.0113214
0.01129
0.0112583
0.0112265
0.0111945
0.0111624
0.0111303
0.011098
0.0110657
0.0110334
0.011001
0.0109686
0.0109361
0.0109037
0.0108712
0.0108388
0.0108063
0.0107738
0.0107412
0.0107087
0.010676
0.0106434
0.0106106
0.0105778
0.0105449
0.0105118
0.0104786
0.0104452
0.0104116
0.0103778
0.0103437
0.0103094
0.0102747
0.0102397
0.0102044
0.0101686
0.0101324
0.0100957
0.0100585
0.0100207
0.00998219
0.00994297
0.00990291
0.009862
0.00982012
0.00977817
0.00973576
0.00969278
0.00964914
0.00960477
0.00955961
0.00951364
0.00946685
0.00941925
0.00937085
0.00932168
0.00927176
0.00922114
0.00916987
0.00911799
0.00906556
0.00901264
0.00895931
0.00890564
0.00885171
0.0087976
0.00874339
0.00868919
0.00863509
0.00858118
0.00852755
0.00847432
0.00842158
0.00836942
0.00831793
0.00826721
0.00821734
0.00816839
0.00812045
0.00807356
0.0080278
0.0079832
0.00793979
0.00789761
0.00785667
0.00781697
0.0077785
0.00774124
0.00770518
0.00767025
0.00763643
0.00760364
0.00757182
0.0075409
0.0075108
0.00748142
0.00745269
0.00742451
0.00739678
0.00736941
0.00734231
0.00731538
0.00728853
0.00726167
0.00723474
0.00720765
0.00718033
0.00715274
0.0071248
0.00709649
0.00706777
0.00703861
0.007009
0.00697894
0.00694841
0.00691745
0.00688606
0.00685427
0.00682213
0.00678967
0.00675694
0.006724
0.0066909
0.00665771
0.00662449
0.00659131
0.00655824
0.00652534
0.00649269
0.00646035
0.0064284
0.00639689
0.00636589
0.00633546
0.00630565
0.00627651
0.0062481
0.00622046
0.00619361
0.00616761
0.00614247
0.00611823
0.0060949
0.00607249
0.00605102
0.00603049
0.0060109
0.00599226
0.00597455
0.00595777
0.00594189
0.00592691
0.00591281
0.00589956
0.00588715
0.00587554
0.00586471
0.00585464
0.00584531
0.00583669
0.00582876
0.00582153
0.00581498
0.00580915
0.00580406
0.00579981
0.00579655
0.00579459
)
;

boundaryField
{
    boundary
    {
        type            empty;
    }
    inlet
    {
        type            fixedValue;
        value           uniform 0;
    }
    outlet
    {
        type            zeroGradient;
    }
}


// ************************************************************************* //
