/*--------------------------------*- C++ -*----------------------------------*\
  =========                 |
  \\      /  F ield         | OpenFOAM: The Open Source CFD Toolbox
   \\    /   O peration     | Website:  https://openfoam.org
    \\  /    A nd           | Version:  7
     \\/     M anipulation  |
\*---------------------------------------------------------------------------*/
FoamFile
{
    version     2.0;
    format      ascii;
    class       surfaceScalarField;
    location    "0.00035";
    object      phi;
}
// * * * * * * * * * * * * * * * * * * * * * * * * * * * * * * * * * * * * * //

dimensions      [1 0 -1 0 0 0 0];

internalField   nonuniform List<scalar> 
499
(
6.93195e-06
6.93166e-06
6.93136e-06
6.93104e-06
6.93071e-06
6.93035e-06
6.92997e-06
6.92954e-06
6.92907e-06
6.92854e-06
6.92793e-06
6.92722e-06
6.92641e-06
6.92548e-06
6.92441e-06
6.9232e-06
6.92184e-06
6.92033e-06
6.91869e-06
6.91691e-06
6.91503e-06
6.91306e-06
6.91105e-06
6.909e-06
6.90698e-06
6.90499e-06
6.90308e-06
6.90127e-06
6.89959e-06
6.89803e-06
6.89662e-06
6.89536e-06
6.89425e-06
6.89327e-06
6.89242e-06
6.89169e-06
6.89106e-06
6.89052e-06
6.89005e-06
6.88964e-06
6.88929e-06
6.88897e-06
6.88869e-06
6.88843e-06
6.88819e-06
6.88796e-06
6.88774e-06
6.88753e-06
6.88732e-06
6.88712e-06
6.88692e-06
6.88672e-06
6.88652e-06
6.88633e-06
6.88613e-06
6.88593e-06
6.88573e-06
6.88554e-06
6.88534e-06
6.88514e-06
6.88495e-06
6.88475e-06
6.88455e-06
6.88436e-06
6.88416e-06
6.88396e-06
6.88377e-06
6.88357e-06
6.88337e-06
6.88317e-06
6.88298e-06
6.88278e-06
6.88258e-06
6.88238e-06
6.88218e-06
6.88198e-06
6.88179e-06
6.88159e-06
6.88139e-06
6.88119e-06
6.88099e-06
6.88079e-06
6.88059e-06
6.88039e-06
6.88019e-06
6.87999e-06
6.87979e-06
6.87959e-06
6.87939e-06
6.87919e-06
6.87899e-06
6.87879e-06
6.87859e-06
6.87839e-06
6.87819e-06
6.87799e-06
6.87779e-06
6.87758e-06
6.87738e-06
6.87718e-06
6.87698e-06
6.87677e-06
6.87657e-06
6.87637e-06
6.87617e-06
6.87596e-06
6.87576e-06
6.87556e-06
6.87535e-06
6.87515e-06
6.87494e-06
6.87474e-06
6.87453e-06
6.87433e-06
6.87412e-06
6.87392e-06
6.87371e-06
6.87351e-06
6.8733e-06
6.8731e-06
6.87289e-06
6.87268e-06
6.87248e-06
6.87227e-06
6.87206e-06
6.87186e-06
6.87165e-06
6.87144e-06
6.87123e-06
6.87103e-06
6.87082e-06
6.87061e-06
6.8704e-06
6.87019e-06
6.86998e-06
6.86977e-06
6.86957e-06
6.86936e-06
6.86915e-06
6.86894e-06
6.86873e-06
6.86852e-06
6.86831e-06
6.8681e-06
6.86789e-06
6.86768e-06
6.86747e-06
6.86726e-06
6.86704e-06
6.86683e-06
6.86662e-06
6.86641e-06
6.8662e-06
6.86598e-06
6.86577e-06
6.86556e-06
6.86535e-06
6.86513e-06
6.86492e-06
6.86471e-06
6.8645e-06
6.86428e-06
6.86407e-06
6.86386e-06
6.86365e-06
6.86344e-06
6.86322e-06
6.86301e-06
6.8628e-06
6.86259e-06
6.86238e-06
6.86217e-06
6.86196e-06
6.86174e-06
6.86153e-06
6.86132e-06
6.86111e-06
6.8609e-06
6.86069e-06
6.86048e-06
6.86027e-06
6.86007e-06
6.85986e-06
6.85965e-06
6.85944e-06
6.85923e-06
6.85903e-06
6.85882e-06
6.85862e-06
6.85841e-06
6.85821e-06
6.858e-06
6.8578e-06
6.8576e-06
6.85739e-06
6.85719e-06
6.85699e-06
6.85679e-06
6.85659e-06
6.85639e-06
6.85619e-06
6.856e-06
6.8558e-06
6.8556e-06
6.85541e-06
6.85521e-06
6.85502e-06
6.85483e-06
6.85464e-06
6.85445e-06
6.85426e-06
6.85407e-06
6.85388e-06
6.85369e-06
6.85351e-06
6.85332e-06
6.85314e-06
6.85296e-06
6.85278e-06
6.85259e-06
6.85241e-06
6.85224e-06
6.85206e-06
6.85188e-06
6.8517e-06
6.85153e-06
6.85136e-06
6.85118e-06
6.85101e-06
6.85084e-06
6.85067e-06
6.8505e-06
6.85033e-06
6.85016e-06
6.85e-06
6.84983e-06
6.84966e-06
6.8495e-06
6.84934e-06
6.84917e-06
6.84901e-06
6.84885e-06
6.84869e-06
6.84852e-06
6.84836e-06
6.8482e-06
6.84804e-06
6.84789e-06
6.84773e-06
6.84757e-06
6.84741e-06
6.84725e-06
6.8471e-06
6.84694e-06
6.84679e-06
6.84663e-06
6.84648e-06
6.84632e-06
6.84617e-06
6.84601e-06
6.84586e-06
6.84571e-06
6.84556e-06
6.8454e-06
6.84525e-06
6.8451e-06
6.84496e-06
6.84481e-06
6.84466e-06
6.84453e-06
6.84442e-06
6.84439e-06
6.84462e-06
6.84559e-06
6.84874e-06
6.85805e-06
6.88278e-06
6.93493e-06
7.00647e-06
7.06849e-06
7.11007e-06
7.13711e-06
7.15574e-06
7.16905e-06
7.17855e-06
7.18535e-06
7.1902e-06
7.19379e-06
7.1965e-06
7.19865e-06
7.20039e-06
7.20183e-06
7.20306e-06
7.2041e-06
7.20501e-06
7.20581e-06
7.20652e-06
7.20716e-06
7.20772e-06
7.20824e-06
7.20871e-06
7.20913e-06
7.20952e-06
7.20988e-06
7.21021e-06
7.21052e-06
7.2108e-06
7.21106e-06
7.21131e-06
7.21154e-06
7.21175e-06
7.21195e-06
7.21213e-06
7.2123e-06
7.21245e-06
7.2126e-06
7.21275e-06
7.21288e-06
7.21301e-06
7.21313e-06
7.21325e-06
7.21336e-06
7.21346e-06
7.21356e-06
7.21365e-06
7.21374e-06
7.21382e-06
7.21389e-06
7.21397e-06
7.21403e-06
7.21409e-06
7.21415e-06
7.2142e-06
7.21424e-06
7.21428e-06
7.21431e-06
7.21434e-06
7.21436e-06
7.21438e-06
7.21439e-06
7.2144e-06
7.2144e-06
7.2144e-06
7.21439e-06
7.21438e-06
7.21436e-06
7.21434e-06
7.21432e-06
7.21429e-06
7.21426e-06
7.21423e-06
7.21421e-06
7.21418e-06
7.21415e-06
7.21413e-06
7.21412e-06
7.21411e-06
7.2141e-06
7.21411e-06
7.21413e-06
7.21416e-06
7.2142e-06
7.21426e-06
7.21434e-06
7.21444e-06
7.21457e-06
7.21471e-06
7.21489e-06
7.21509e-06
7.21533e-06
7.2156e-06
7.21591e-06
7.21626e-06
7.21665e-06
7.21708e-06
7.21745e-06
7.21763e-06
7.21816e-06
7.21877e-06
7.21941e-06
7.22007e-06
7.22074e-06
7.22141e-06
7.2221e-06
7.22279e-06
7.22348e-06
7.22417e-06
7.22484e-06
7.22549e-06
7.22611e-06
7.22668e-06
7.22719e-06
7.22762e-06
7.22797e-06
7.22821e-06
7.22832e-06
7.22828e-06
7.22808e-06
7.2277e-06
7.2271e-06
7.22628e-06
7.2252e-06
7.22385e-06
7.2222e-06
7.22024e-06
7.21794e-06
7.21529e-06
7.21226e-06
7.20884e-06
7.20503e-06
7.2008e-06
7.19615e-06
7.19107e-06
7.18557e-06
7.17964e-06
7.17329e-06
7.16653e-06
7.15936e-06
7.15181e-06
7.14389e-06
7.13563e-06
7.12705e-06
7.11818e-06
7.10906e-06
7.09971e-06
7.09018e-06
7.08051e-06
7.07072e-06
7.06088e-06
7.05101e-06
7.04116e-06
7.03137e-06
7.0217e-06
7.01216e-06
7.00282e-06
6.99369e-06
6.98483e-06
6.97626e-06
6.96802e-06
6.96013e-06
6.95261e-06
6.94549e-06
6.93879e-06
6.93253e-06
6.9267e-06
6.92133e-06
6.91642e-06
6.91196e-06
6.90796e-06
6.90441e-06
6.9013e-06
6.89862e-06
6.89636e-06
6.89451e-06
6.89304e-06
6.89193e-06
6.89118e-06
6.89075e-06
6.89061e-06
6.89076e-06
6.89116e-06
6.89179e-06
6.89263e-06
6.89365e-06
6.89483e-06
6.89614e-06
6.89757e-06
6.8991e-06
6.90069e-06
6.90235e-06
6.90404e-06
6.90575e-06
6.90748e-06
6.90919e-06
6.91089e-06
6.91256e-06
6.9142e-06
6.91579e-06
6.91733e-06
6.91881e-06
6.92023e-06
6.92158e-06
6.92287e-06
6.92409e-06
6.92524e-06
6.92631e-06
6.92732e-06
6.92825e-06
6.92912e-06
6.92993e-06
6.93066e-06
6.93134e-06
6.93196e-06
6.93252e-06
6.93304e-06
6.9335e-06
6.93392e-06
6.93431e-06
6.93466e-06
)
;

boundaryField
{
    boundary
    {
        type            empty;
        value           nonuniform 0();
    }
    inlet
    {
        type            calculated;
        value           uniform -6.93223e-06;
    }
    outlet
    {
        type            calculated;
        value           uniform 6.935e-06;
    }
}


// ************************************************************************* //
