/*--------------------------------*- C++ -*----------------------------------*\
  =========                 |
  \\      /  F ield         | OpenFOAM: The Open Source CFD Toolbox
   \\    /   O peration     | Website:  https://openfoam.org
    \\  /    A nd           | Version:  7
     \\/     M anipulation  |
\*---------------------------------------------------------------------------*/
FoamFile
{
    version     2.0;
    format      ascii;
    class       volScalarField;
    location    "0.00035";
    object      Qdot;
}
// * * * * * * * * * * * * * * * * * * * * * * * * * * * * * * * * * * * * * //

dimensions      [1 -1 -3 0 0 0 0];

internalField   nonuniform List<scalar> 
500
(
-2.45434e-27
-1.86682e-27
-1.74229e-27
-1.71787e-27
-1.71541e-27
-1.71818e-27
-1.72275e-27
-1.72857e-27
-1.73576e-27
-1.74463e-27
-1.75552e-27
-1.76882e-27
-1.78491e-27
-1.80418e-27
-1.82696e-27
-1.85354e-27
-1.88411e-27
-1.91873e-27
-1.95735e-27
-1.99971e-27
-2.04544e-27
-2.09396e-27
-2.14455e-27
-2.19637e-27
-2.2485e-27
-2.29997e-27
-2.34985e-27
-2.39728e-27
-2.44153e-27
-2.48203e-27
-2.5184e-27
-2.55045e-27
-2.57817e-27
-2.60172e-27
-2.62136e-27
-2.63746e-27
-2.65043e-27
-2.6607e-27
-2.66871e-27
-2.67486e-27
-2.6795e-27
-2.68296e-27
-2.68549e-27
-2.68732e-27
-2.68862e-27
-2.68954e-27
-2.69017e-27
-2.69061e-27
-2.69091e-27
-2.69111e-27
-2.69124e-27
-2.69133e-27
-2.69139e-27
-2.69143e-27
-2.69146e-27
-2.69148e-27
-2.6915e-27
-2.69151e-27
-2.69153e-27
-2.69154e-27
-2.69156e-27
-2.69157e-27
-2.69158e-27
-2.6916e-27
-2.69162e-27
-2.69163e-27
-2.69165e-27
-2.69167e-27
-2.69169e-27
-2.69171e-27
-2.69173e-27
-2.69176e-27
-2.69178e-27
-2.69181e-27
-2.69184e-27
-2.69187e-27
-2.6919e-27
-2.69193e-27
-2.69196e-27
-2.692e-27
-2.69204e-27
-2.69207e-27
-2.69212e-27
-2.69216e-27
-2.6922e-27
-2.69225e-27
-2.6923e-27
-2.69235e-27
-2.6924e-27
-2.69246e-27
-2.69251e-27
-2.69257e-27
-2.69263e-27
-2.6927e-27
-2.69276e-27
-2.69283e-27
-2.69291e-27
-2.69298e-27
-2.69306e-27
-2.69314e-27
-2.69322e-27
-2.6933e-27
-2.69339e-27
-2.69348e-27
-2.69358e-27
-2.69367e-27
-2.69377e-27
-2.69387e-27
-2.69398e-27
-2.69409e-27
-2.6942e-27
-2.69431e-27
-2.69443e-27
-2.69455e-27
-2.69468e-27
-2.6948e-27
-2.69493e-27
-2.69506e-27
-2.6952e-27
-2.69534e-27
-2.69548e-27
-2.69563e-27
-2.69577e-27
-2.69592e-27
-2.69607e-27
-2.69621e-27
-2.69638e-27
-2.69654e-27
-2.6967e-27
-2.69686e-27
-2.69702e-27
-2.69719e-27
-2.69735e-27
-2.69751e-27
-2.69768e-27
-2.69784e-27
-2.698e-27
-2.69816e-27
-2.69833e-27
-2.69849e-27
-2.69866e-27
-2.69883e-27
-2.699e-27
-2.69918e-27
-2.69937e-27
-2.69956e-27
-2.69975e-27
-2.69995e-27
-2.70015e-27
-2.70036e-27
-2.70057e-27
-2.70078e-27
-2.70099e-27
-2.7012e-27
-2.70141e-27
-2.70161e-27
-2.70181e-27
-2.702e-27
-2.70219e-27
-2.70237e-27
-2.70254e-27
-2.7027e-27
-2.70286e-27
-2.70301e-27
-2.70315e-27
-2.70328e-27
-2.70341e-27
-2.70352e-27
-2.70363e-27
-2.70372e-27
-2.70381e-27
-2.70388e-27
-2.70394e-27
-2.70399e-27
-2.70403e-27
-2.70405e-27
-2.70406e-27
-2.70405e-27
-2.70402e-27
-2.70398e-27
-2.70392e-27
-2.70385e-27
-2.70375e-27
-2.70363e-27
-2.7035e-27
-2.70333e-27
-2.70315e-27
-2.70295e-27
-2.70271e-27
-2.70246e-27
-2.70217e-27
-2.70186e-27
-2.70152e-27
-2.70115e-27
-2.70075e-27
-2.70032e-27
-2.69986e-27
-2.69937e-27
-2.69884e-27
-2.69827e-27
-2.69767e-27
-2.69704e-27
-2.69636e-27
-2.69565e-27
-2.6949e-27
-2.69411e-27
-2.69328e-27
-2.69241e-27
-2.69149e-27
-2.69053e-27
-2.68954e-27
-2.68849e-27
-2.6874e-27
-2.68627e-27
-2.68509e-27
-2.68387e-27
-2.68258e-27
-2.68118e-27
-2.67938e-27
-2.6758e-27
-2.66379e-27
-2.61151e-27
-2.36836e-27
-1.22982e-27
4.06311e-27
2.84164e-26
1.3923e-25
6.37762e-25
2.8549e-24
1.26013e-23
5.49473e-23
2.36771e-22
1.00827e-21
4.24295e-21
1.76437e-20
7.24988e-20
2.94371e-19
1.18113e-18
4.68362e-18
1.83571e-17
7.1132e-17
2.72584e-16
1.03349e-15
3.87923e-15
1.44273e-14
5.32238e-14
1.9505e-13
7.11444e-13
2.58912e-12
9.43017e-12
3.45046e-11
1.27536e-10
4.77392e-10
1.81847e-09
7.07607e-09
2.81928e-08
1.1508e-07
4.80728e-07
2.05016e-06
8.89819e-06
3.91739e-05
0.000174413
0.000783357
0.00354278
0.0161162
0.0737138
0.339152
1.57181
7.35747
35.3223
186.01
1147.07
8824.19
63606.7
560398
5.27932e+06
5.00763e+07
4.27943e+08
2.52937e+09
7.78824e+09
1.24536e+10
1.37978e+10
1.39131e+10
1.39112e+10
1.34289e+10
1.21403e+10
1.02678e+10
8.3096e+09
6.758e+09
5.61171e+09
4.73625e+09
4.06692e+09
3.54671e+09
3.13433e+09
2.8009e+09
2.52629e+09
2.29647e+09
2.10141e+09
1.93384e+09
1.7884e+09
1.66103e+09
1.54862e+09
1.44874e+09
1.35946e+09
1.27923e+09
1.20679e+09
1.1411e+09
1.0813e+09
1.02667e+09
9.76606e+08
9.30613e+08
8.8833e+08
8.50385e+08
8.15747e+08
7.83257e+08
7.5282e+08
7.24252e+08
6.97382e+08
6.72076e+08
6.48196e+08
6.25638e+08
6.04302e+08
5.84095e+08
5.64936e+08
5.46749e+08
5.29468e+08
5.13031e+08
4.9738e+08
4.82464e+08
4.68237e+08
4.54655e+08
4.41676e+08
4.29266e+08
4.17389e+08
4.06015e+08
3.95115e+08
3.84661e+08
3.74629e+08
3.64995e+08
3.55739e+08
3.46839e+08
3.38277e+08
3.30036e+08
3.22099e+08
3.14451e+08
3.07077e+08
2.99965e+08
2.931e+08
2.86472e+08
2.8007e+08
2.73883e+08
2.679e+08
2.62113e+08
2.56512e+08
2.51089e+08
2.45837e+08
2.40747e+08
2.35813e+08
2.31028e+08
2.26385e+08
2.21878e+08
2.17502e+08
2.1325e+08
2.09119e+08
2.05101e+08
2.01193e+08
1.9739e+08
1.93688e+08
1.90082e+08
1.86568e+08
1.83142e+08
1.798e+08
1.76534e+08
1.73338e+08
1.70201e+08
1.67119e+08
1.64034e+08
1.61178e+08
1.58347e+08
1.55562e+08
1.52826e+08
1.50136e+08
1.47493e+08
1.44894e+08
1.42335e+08
1.39815e+08
1.37331e+08
1.3488e+08
1.32461e+08
1.3007e+08
1.27707e+08
1.25367e+08
1.23051e+08
1.20755e+08
1.18479e+08
1.16219e+08
1.13974e+08
1.11744e+08
1.09526e+08
1.07319e+08
1.05123e+08
1.02936e+08
1.00758e+08
9.85872e+07
9.64243e+07
9.42688e+07
9.21202e+07
8.99792e+07
8.78457e+07
8.57201e+07
8.36028e+07
8.14946e+07
7.93962e+07
7.73084e+07
7.52321e+07
7.31682e+07
7.11179e+07
6.90828e+07
6.70628e+07
6.50597e+07
6.30747e+07
6.11089e+07
5.91634e+07
5.72392e+07
5.53376e+07
5.34595e+07
5.1606e+07
4.97781e+07
4.79769e+07
4.62033e+07
4.44584e+07
4.27432e+07
4.10586e+07
3.94051e+07
3.77844e+07
3.61972e+07
3.46442e+07
3.31265e+07
3.16449e+07
3.02002e+07
2.87932e+07
2.74246e+07
2.60951e+07
2.48052e+07
2.35555e+07
2.23462e+07
2.11777e+07
2.005e+07
1.89636e+07
1.79177e+07
1.69126e+07
1.59478e+07
1.50229e+07
1.41374e+07
1.32905e+07
1.24816e+07
1.17098e+07
1.09742e+07
1.02737e+07
9.60749e+06
8.97435e+06
8.37324e+06
7.80302e+06
7.26257e+06
6.75076e+06
6.26647e+06
5.80857e+06
5.37598e+06
4.96762e+06
4.58243e+06
4.21939e+06
3.87753e+06
3.55589e+06
3.25355e+06
2.96934e+06
2.70286e+06
2.45299e+06
2.21897e+06
2.00003e+06
1.79542e+06
1.60444e+06
1.42641e+06
1.26032e+06
1.10608e+06
962734
829687
706336
592077
486301
388400
297707
213491
134859
61187.7
-8665.1
-75981
-142605
-209784
-276879
-332447
)
;

boundaryField
{
    boundary
    {
        type            empty;
    }
    inlet
    {
        type            calculated;
        value           uniform 0;
    }
    outlet
    {
        type            calculated;
        value           uniform 0;
    }
}


// ************************************************************************* //
