/*--------------------------------*- C++ -*----------------------------------*\
  =========                 |
  \\      /  F ield         | OpenFOAM: The Open Source CFD Toolbox
   \\    /   O peration     | Website:  https://openfoam.org
    \\  /    A nd           | Version:  7
     \\/     M anipulation  |
\*---------------------------------------------------------------------------*/
FoamFile
{
    version     2.0;
    format      ascii;
    class       volScalarField;
    location    "0.00035";
    object      T;
}
// * * * * * * * * * * * * * * * * * * * * * * * * * * * * * * * * * * * * * //

dimensions      [0 0 0 1 0 0 0];

internalField   nonuniform List<scalar> 
500
(
300.003
300.007
300.012
300.018
300.025
300.033
300.042
300.054
300.067
300.084
300.105
300.13
300.16
300.196
300.237
300.285
300.339
300.4
300.466
300.537
300.612
300.69
300.769
300.849
300.927
301.003
301.075
301.142
301.203
301.259
301.308
301.351
301.388
301.419
301.445
301.466
301.483
301.496
301.506
301.514
301.521
301.525
301.528
301.531
301.533
301.534
301.535
301.535
301.536
301.536
301.536
301.536
301.536
301.536
301.536
301.536
301.536
301.536
301.536
301.536
301.536
301.537
301.537
301.537
301.537
301.537
301.537
301.537
301.537
301.537
301.537
301.537
301.537
301.537
301.537
301.537
301.537
301.537
301.537
301.537
301.537
301.537
301.537
301.537
301.537
301.537
301.537
301.537
301.538
301.538
301.538
301.538
301.538
301.538
301.538
301.538
301.538
301.538
301.538
301.538
301.539
301.539
301.539
301.539
301.539
301.539
301.539
301.539
301.54
301.54
301.54
301.54
301.54
301.54
301.54
301.541
301.541
301.541
301.541
301.541
301.541
301.542
301.542
301.542
301.542
301.542
301.542
301.543
301.543
301.543
301.543
301.543
301.544
301.544
301.544
301.544
301.545
301.545
301.545
301.545
301.545
301.546
301.546
301.546
301.546
301.546
301.547
301.547
301.547
301.547
301.548
301.548
301.548
301.548
301.549
301.549
301.549
301.549
301.55
301.55
301.55
301.55
301.551
301.551
301.551
301.551
301.551
301.551
301.552
301.552
301.552
301.552
301.552
301.552
301.552
301.552
301.552
301.552
301.552
301.552
301.552
301.552
301.552
301.552
301.551
301.551
301.551
301.551
301.55
301.55
301.55
301.549
301.549
301.548
301.548
301.547
301.547
301.546
301.546
301.545
301.544
301.543
301.543
301.542
301.541
301.54
301.539
301.538
301.536
301.535
301.534
301.533
301.531
301.53
301.528
301.527
301.525
301.524
301.522
301.52
301.518
301.517
301.515
301.513
301.511
301.508
301.506
301.504
301.502
301.499
301.497
301.495
301.492
301.49
301.487
301.484
301.482
301.479
301.476
301.473
301.471
301.468
301.465
301.462
301.459
301.456
301.453
301.45
301.447
301.443
301.44
301.437
301.434
301.431
301.427
301.424
301.421
301.417
301.414
301.411
301.407
301.404
301.4
301.397
301.394
301.39
301.387
301.384
301.384
301.389
301.409
301.473
301.664
302.214
303.791
308.298
320.998
354.628
429.368
553.466
705.737
860.036
1006.61
1142.46
1262.45
1361.25
1444.64
1515.66
1572.31
1617.62
1656.46
1690.13
1719.75
1746.13
1769.85
1791.36
1811
1829.05
1845.71
1861.18
1875.58
1889.03
1901.65
1913.52
1924.71
1935.28
1945.29
1954.79
1963.82
1972.41
1980.6
1988.39
1995.63
2002.43
2009.01
2015.36
2021.5
2027.43
2033.18
2038.74
2044.14
2049.38
2054.46
2059.4
2064.19
2068.86
2073.4
2077.82
2082.13
2086.33
2090.42
2094.42
2098.32
2102.12
2105.84
2109.47
2113.02
2116.5
2119.9
2123.22
2126.48
2129.67
2132.79
2135.85
2138.84
2141.78
2144.66
2147.49
2150.26
2152.97
2155.63
2158.24
2160.81
2163.32
2165.78
2168.19
2170.56
2172.88
2175.15
2177.38
2179.56
2181.69
2183.78
2185.83
2187.82
2189.78
2191.68
2193.54
2195.36
2197.12
2198.85
2200.53
2202.16
2203.75
2205.3
2206.82
2208.27
2209.69
2211.05
2212.36
2213.64
2214.89
2216.09
2217.27
2218.41
2219.53
2220.62
2221.69
2222.74
2223.77
2224.8
2225.83
2226.86
2227.89
2228.94
2230.02
2231.12
2232.26
2233.44
2234.67
2235.96
2237.31
2238.74
2240.25
2241.85
2243.54
2245.34
2247.24
2249.25
2251.39
2253.64
2256.02
2258.53
2261.17
2263.93
2266.83
2269.84
2272.99
2276.24
2279.61
2283.09
2286.67
2290.33
2294.08
2297.89
2301.76
2305.68
2309.64
2313.61
2317.59
2321.56
2325.52
2329.44
2333.32
2337.14
2340.88
2344.55
2348.12
2351.59
2354.94
2358.17
2361.27
2364.24
2367.07
2369.76
2372.29
2374.68
2376.92
2379.01
2380.95
2382.74
2384.39
2385.9
2387.28
2388.53
2389.65
2390.65
2391.54
2392.33
2393.02
2393.61
2394.13
2394.56
2394.92
2395.22
2395.46
2395.65
2395.8
2395.9
2395.97
2396.01
2396.03
2396.02
2396
2395.96
2395.91
2395.85
2395.78
2395.72
2395.64
2395.57
2395.5
2395.43
2395.36
2395.3
2395.24
2395.18
2395.13
2395.08
2395.03
2394.99
2394.96
2394.92
2394.89
2394.87
2394.85
2394.83
2394.81
2394.8
2394.79
)
;

boundaryField
{
    boundary
    {
        type            empty;
    }
    inlet
    {
        type            fixedValue;
        value           uniform 300;
    }
    outlet
    {
        type            zeroGradient;
    }
}


// ************************************************************************* //
