/*--------------------------------*- C++ -*----------------------------------*\
  =========                 |
  \\      /  F ield         | OpenFOAM: The Open Source CFD Toolbox
   \\    /   O peration     | Website:  https://openfoam.org
    \\  /    A nd           | Version:  7
     \\/     M anipulation  |
\*---------------------------------------------------------------------------*/
FoamFile
{
    version     2.0;
    format      ascii;
    class       volVectorField;
    location    "0.00035";
    object      U;
}
// * * * * * * * * * * * * * * * * * * * * * * * * * * * * * * * * * * * * * //

dimensions      [0 1 -1 0 0 0 0];

internalField   nonuniform List<vector> 
500
(
(2.34892 0 0)
(2.34886 0 0)
(2.34879 0 0)
(2.34873 0 0)
(2.34867 0 0)
(2.34862 0 0)
(2.34856 0 0)
(2.34852 0 0)
(2.34848 0 0)
(2.34844 0 0)
(2.34841 0 0)
(2.34838 0 0)
(2.34836 0 0)
(2.34834 0 0)
(2.34833 0 0)
(2.34832 0 0)
(2.34831 0 0)
(2.34829 0 0)
(2.34827 0 0)
(2.34825 0 0)
(2.34821 0 0)
(2.34816 0 0)
(2.3481 0 0)
(2.34803 0 0)
(2.34795 0 0)
(2.34786 0 0)
(2.34775 0 0)
(2.34764 0 0)
(2.34752 0 0)
(2.3474 0 0)
(2.34728 0 0)
(2.34716 0 0)
(2.34705 0 0)
(2.34693 0 0)
(2.34682 0 0)
(2.34672 0 0)
(2.34662 0 0)
(2.34653 0 0)
(2.34644 0 0)
(2.34635 0 0)
(2.34627 0 0)
(2.34619 0 0)
(2.34612 0 0)
(2.34604 0 0)
(2.34597 0 0)
(2.3459 0 0)
(2.34583 0 0)
(2.34576 0 0)
(2.3457 0 0)
(2.34563 0 0)
(2.34556 0 0)
(2.34549 0 0)
(2.34543 0 0)
(2.34536 0 0)
(2.34529 0 0)
(2.34523 0 0)
(2.34516 0 0)
(2.34509 0 0)
(2.34503 0 0)
(2.34496 0 0)
(2.34489 0 0)
(2.34483 0 0)
(2.34476 0 0)
(2.34469 0 0)
(2.34463 0 0)
(2.34456 0 0)
(2.34449 0 0)
(2.34442 0 0)
(2.34436 0 0)
(2.34429 0 0)
(2.34422 0 0)
(2.34416 0 0)
(2.34409 0 0)
(2.34402 0 0)
(2.34395 0 0)
(2.34389 0 0)
(2.34382 0 0)
(2.34375 0 0)
(2.34369 0 0)
(2.34362 0 0)
(2.34355 0 0)
(2.34348 0 0)
(2.34342 0 0)
(2.34335 0 0)
(2.34328 0 0)
(2.34321 0 0)
(2.34315 0 0)
(2.34308 0 0)
(2.34301 0 0)
(2.34294 0 0)
(2.34287 0 0)
(2.34281 0 0)
(2.34274 0 0)
(2.34267 0 0)
(2.3426 0 0)
(2.34254 0 0)
(2.34247 0 0)
(2.3424 0 0)
(2.34233 0 0)
(2.34226 0 0)
(2.3422 0 0)
(2.34213 0 0)
(2.34206 0 0)
(2.34199 0 0)
(2.34192 0 0)
(2.34185 0 0)
(2.34179 0 0)
(2.34172 0 0)
(2.34165 0 0)
(2.34158 0 0)
(2.34151 0 0)
(2.34144 0 0)
(2.34138 0 0)
(2.34131 0 0)
(2.34124 0 0)
(2.34117 0 0)
(2.3411 0 0)
(2.34103 0 0)
(2.34096 0 0)
(2.34089 0 0)
(2.34083 0 0)
(2.34076 0 0)
(2.34069 0 0)
(2.34062 0 0)
(2.34055 0 0)
(2.34048 0 0)
(2.34041 0 0)
(2.34034 0 0)
(2.34027 0 0)
(2.3402 0 0)
(2.34014 0 0)
(2.34007 0 0)
(2.34 0 0)
(2.33993 0 0)
(2.33986 0 0)
(2.33979 0 0)
(2.33972 0 0)
(2.33965 0 0)
(2.33958 0 0)
(2.33951 0 0)
(2.33944 0 0)
(2.33937 0 0)
(2.3393 0 0)
(2.33923 0 0)
(2.33916 0 0)
(2.33909 0 0)
(2.33902 0 0)
(2.33895 0 0)
(2.33888 0 0)
(2.33881 0 0)
(2.33874 0 0)
(2.33867 0 0)
(2.3386 0 0)
(2.33853 0 0)
(2.33846 0 0)
(2.33839 0 0)
(2.33832 0 0)
(2.33825 0 0)
(2.33818 0 0)
(2.33811 0 0)
(2.33804 0 0)
(2.33797 0 0)
(2.33789 0 0)
(2.33782 0 0)
(2.33775 0 0)
(2.33768 0 0)
(2.33761 0 0)
(2.33754 0 0)
(2.33747 0 0)
(2.3374 0 0)
(2.33733 0 0)
(2.33726 0 0)
(2.33718 0 0)
(2.33711 0 0)
(2.33704 0 0)
(2.33697 0 0)
(2.3369 0 0)
(2.33683 0 0)
(2.33675 0 0)
(2.33668 0 0)
(2.33661 0 0)
(2.33654 0 0)
(2.33647 0 0)
(2.3364 0 0)
(2.33632 0 0)
(2.33625 0 0)
(2.33618 0 0)
(2.33611 0 0)
(2.33603 0 0)
(2.33596 0 0)
(2.33589 0 0)
(2.33582 0 0)
(2.33574 0 0)
(2.33567 0 0)
(2.3356 0 0)
(2.33553 0 0)
(2.33545 0 0)
(2.33538 0 0)
(2.33531 0 0)
(2.33523 0 0)
(2.33516 0 0)
(2.33509 0 0)
(2.33501 0 0)
(2.33494 0 0)
(2.33486 0 0)
(2.33479 0 0)
(2.33472 0 0)
(2.33464 0 0)
(2.33457 0 0)
(2.33449 0 0)
(2.33442 0 0)
(2.33435 0 0)
(2.33427 0 0)
(2.3342 0 0)
(2.33412 0 0)
(2.33405 0 0)
(2.33397 0 0)
(2.3339 0 0)
(2.33382 0 0)
(2.33375 0 0)
(2.33367 0 0)
(2.33359 0 0)
(2.33352 0 0)
(2.33344 0 0)
(2.33337 0 0)
(2.33329 0 0)
(2.33321 0 0)
(2.33314 0 0)
(2.33306 0 0)
(2.33299 0 0)
(2.33291 0 0)
(2.33283 0 0)
(2.33275 0 0)
(2.33268 0 0)
(2.3326 0 0)
(2.33252 0 0)
(2.33245 0 0)
(2.33237 0 0)
(2.33229 0 0)
(2.33221 0 0)
(2.33214 0 0)
(2.33206 0 0)
(2.33198 0 0)
(2.3319 0 0)
(2.33183 0 0)
(2.33175 0 0)
(2.33167 0 0)
(2.33159 0 0)
(2.33151 0 0)
(2.33144 0 0)
(2.33136 0 0)
(2.33128 0 0)
(2.3312 0 0)
(2.33112 0 0)
(2.33104 0 0)
(2.33096 0 0)
(2.33089 0 0)
(2.33081 0 0)
(2.33073 0 0)
(2.33065 0 0)
(2.33057 0 0)
(2.33049 0 0)
(2.33042 0 0)
(2.33034 0 0)
(2.33026 0 0)
(2.33018 0 0)
(2.3301 0 0)
(2.33002 0 0)
(2.32994 0 0)
(2.32989 0 0)
(2.32994 0 0)
(2.33028 0 0)
(2.33164 0 0)
(2.33607 0 0)
(2.34912 0 0)
(2.38385 0 0)
(2.46873 0 0)
(2.66572 0 0)
(3.0882 0 0)
(3.91096 0 0)
(5.0577 0 0)
(6.29771 0 0)
(7.45858 0 0)
(8.48525 0 0)
(9.36567 0 0)
(10.0973 0 0)
(10.7013 0 0)
(11.2031 0 0)
(11.6097 0 0)
(11.933 0 0)
(12.1988 0 0)
(12.4272 0 0)
(12.6276 0 0)
(12.8052 0 0)
(12.9639 0 0)
(13.107 0 0)
(13.2369 0 0)
(13.3558 0 0)
(13.4651 0 0)
(13.5661 0 0)
(13.6598 0 0)
(13.7471 0 0)
(13.8287 0 0)
(13.9053 0 0)
(13.9772 0 0)
(14.045 0 0)
(14.109 0 0)
(14.1696 0 0)
(14.2271 0 0)
(14.2817 0 0)
(14.3335 0 0)
(14.3829 0 0)
(14.4286 0 0)
(14.4714 0 0)
(14.5127 0 0)
(14.5526 0 0)
(14.5912 0 0)
(14.6283 0 0)
(14.6643 0 0)
(14.699 0 0)
(14.7327 0 0)
(14.7653 0 0)
(14.7969 0 0)
(14.8275 0 0)
(14.8573 0 0)
(14.8862 0 0)
(14.9143 0 0)
(14.9417 0 0)
(14.9683 0 0)
(14.9941 0 0)
(15.0194 0 0)
(15.0439 0 0)
(15.0679 0 0)
(15.0913 0 0)
(15.1141 0 0)
(15.1363 0 0)
(15.1581 0 0)
(15.1793 0 0)
(15.2001 0 0)
(15.2204 0 0)
(15.2403 0 0)
(15.2597 0 0)
(15.2787 0 0)
(15.2973 0 0)
(15.3156 0 0)
(15.3334 0 0)
(15.3509 0 0)
(15.3681 0 0)
(15.3849 0 0)
(15.4014 0 0)
(15.4176 0 0)
(15.4335 0 0)
(15.4491 0 0)
(15.4644 0 0)
(15.4794 0 0)
(15.4942 0 0)
(15.5087 0 0)
(15.5229 0 0)
(15.5369 0 0)
(15.5506 0 0)
(15.5642 0 0)
(15.5774 0 0)
(15.5905 0 0)
(15.6034 0 0)
(15.616 0 0)
(15.6284 0 0)
(15.6407 0 0)
(15.6527 0 0)
(15.6646 0 0)
(15.6763 0 0)
(15.6878 0 0)
(15.6992 0 0)
(15.7104 0 0)
(15.7216 0 0)
(15.7327 0 0)
(15.7436 0 0)
(15.7538 0 0)
(15.7639 0 0)
(15.7741 0 0)
(15.7842 0 0)
(15.7942 0 0)
(15.804 0 0)
(15.8137 0 0)
(15.8233 0 0)
(15.8327 0 0)
(15.842 0 0)
(15.8513 0 0)
(15.8604 0 0)
(15.8694 0 0)
(15.8783 0 0)
(15.8871 0 0)
(15.8959 0 0)
(15.9046 0 0)
(15.9132 0 0)
(15.9217 0 0)
(15.9301 0 0)
(15.9385 0 0)
(15.9469 0 0)
(15.9551 0 0)
(15.9633 0 0)
(15.9714 0 0)
(15.9795 0 0)
(15.9875 0 0)
(15.9954 0 0)
(16.0033 0 0)
(16.011 0 0)
(16.0187 0 0)
(16.0262 0 0)
(16.0337 0 0)
(16.0411 0 0)
(16.0483 0 0)
(16.0554 0 0)
(16.0623 0 0)
(16.0691 0 0)
(16.0757 0 0)
(16.0821 0 0)
(16.0884 0 0)
(16.0944 0 0)
(16.1002 0 0)
(16.1058 0 0)
(16.1111 0 0)
(16.1162 0 0)
(16.121 0 0)
(16.1256 0 0)
(16.1299 0 0)
(16.1339 0 0)
(16.1377 0 0)
(16.1411 0 0)
(16.1443 0 0)
(16.1472 0 0)
(16.1498 0 0)
(16.1522 0 0)
(16.1543 0 0)
(16.1561 0 0)
(16.1577 0 0)
(16.1591 0 0)
(16.1602 0 0)
(16.1611 0 0)
(16.1619 0 0)
(16.1624 0 0)
(16.1628 0 0)
(16.1631 0 0)
(16.1632 0 0)
(16.1632 0 0)
(16.1632 0 0)
(16.163 0 0)
(16.1628 0 0)
(16.1625 0 0)
(16.1622 0 0)
(16.1619 0 0)
(16.1616 0 0)
(16.1612 0 0)
(16.1609 0 0)
(16.1607 0 0)
(16.1604 0 0)
(16.1602 0 0)
(16.1601 0 0)
(16.1599 0 0)
(16.1599 0 0)
(16.1599 0 0)
(16.1599 0 0)
(16.16 0 0)
(16.1602 0 0)
(16.1604 0 0)
(16.1607 0 0)
(16.161 0 0)
(16.1613 0 0)
(16.1617 0 0)
(16.1621 0 0)
(16.1626 0 0)
(16.163 0 0)
(16.1635 0 0)
(16.164 0 0)
(16.1646 0 0)
(16.1651 0 0)
(16.1656 0 0)
(16.1662 0 0)
(16.1667 0 0)
(16.1672 0 0)
(16.1677 0 0)
(16.1682 0 0)
(16.1686 0 0)
(16.1691 0 0)
(16.1695 0 0)
(16.1699 0 0)
(16.1703 0 0)
(16.1707 0 0)
(16.171 0 0)
(16.1713 0 0)
(16.1716 0 0)
(16.1718 0 0)
(16.172 0 0)
(16.1723 0 0)
(16.1725 0 0)
(16.1727 0 0)
(16.1729 0 0)
(16.1731 0 0)
(16.1733 0 0)
(16.1737 0 0)
(16.1744 0 0)
)
;

boundaryField
{
    boundary
    {
        type            empty;
    }
    inlet
    {
        type            fixedValue;
        value           uniform (2.34893 0 0);
    }
    outlet
    {
        type            zeroGradient;
    }
}


// ************************************************************************* //
