/*--------------------------------*- C++ -*----------------------------------*\
  =========                 |
  \\      /  F ield         | OpenFOAM: The Open Source CFD Toolbox
   \\    /   O peration     | Website:  https://openfoam.org
    \\  /    A nd           | Version:  7
     \\/     M anipulation  |
\*---------------------------------------------------------------------------*/
FoamFile
{
    version     2.0;
    format      ascii;
    class       volScalarField;
    location    "0.00071";
    object      H;
}
// * * * * * * * * * * * * * * * * * * * * * * * * * * * * * * * * * * * * * //

dimensions      [0 0 0 0 0 0 0];

internalField   nonuniform List<scalar> 
126
(
3.44919e-41
3.44942e-41
3.44965e-41
3.44988e-41
3.45008e-41
3.45026e-41
3.45041e-41
3.45052e-41
3.4506e-41
3.45066e-41
3.45071e-41
3.45075e-41
3.45079e-41
3.45083e-41
3.45089e-41
3.45097e-41
3.45106e-41
3.45118e-41
3.45131e-41
3.45146e-41
3.45163e-41
3.45181e-41
3.452e-41
3.4522e-41
3.4524e-41
3.45261e-41
3.45283e-41
3.45304e-41
3.45326e-41
3.45347e-41
3.45369e-41
3.45391e-41
3.45413e-41
3.45435e-41
3.45457e-41
3.45479e-41
3.45502e-41
3.45524e-41
3.45547e-41
3.45571e-41
3.45594e-41
3.45618e-41
3.45642e-41
3.45666e-41
3.45691e-41
3.45715e-41
3.4574e-41
3.45766e-41
3.45791e-41
3.45816e-41
3.45842e-41
3.45867e-41
3.45893e-41
3.45918e-41
3.45943e-41
3.45968e-41
3.45992e-41
3.46016e-41
3.46039e-41
3.46062e-41
3.46084e-41
3.46106e-41
3.46126e-41
3.46146e-41
3.46164e-41
3.46182e-41
3.46198e-41
3.46214e-41
3.46227e-41
3.4624e-41
3.46251e-41
3.46261e-41
3.46269e-41
3.46275e-41
3.46279e-41
3.46282e-41
3.46283e-41
3.46282e-41
3.46278e-41
3.46272e-41
3.46265e-41
3.46254e-41
3.46242e-41
3.46228e-41
3.46216e-41
3.46215e-41
3.46262e-41
3.4648e-41
3.47293e-41
3.50143e-41
3.599e-41
3.92938e-41
5.03976e-41
8.74861e-41
2.10666e-40
6.17565e-40
1.95467e-39
6.32639e-39
2.05505e-38
6.66144e-38
2.15123e-37
6.91861e-37
2.21607e-36
7.0705e-36
2.24755e-35
7.11961e-35
2.24798e-34
7.07654e-34
2.22149e-33
6.95619e-33
2.17326e-32
6.77613e-32
2.10914e-31
6.55572e-31
2.03558e-30
6.31684e-30
1.96019e-29
6.08695e-29
1.89333e-28
5.90678e-28
1.85166e-27
5.84683e-27
1.8657e-26
6.04137e-26
1.99523e-25
6.75864e-25
)
;

boundaryField
{
    boundary
    {
        type            empty;
    }
    inlet
    {
        type            fixedValue;
        value           nonuniform 0();
    }
    outlet
    {
        type            zeroGradient;
    }
    procBoundary3to1
    {
        type            processor;
        value           uniform 2.37313e-24;
    }
    procBoundary3to2
    {
        type            processor;
        value           uniform 3.4489e-41;
    }
}


// ************************************************************************* //
