/*--------------------------------*- C++ -*----------------------------------*\
  =========                 |
  \\      /  F ield         | OpenFOAM: The Open Source CFD Toolbox
   \\    /   O peration     | Website:  https://openfoam.org
    \\  /    A nd           | Version:  7
     \\/     M anipulation  |
\*---------------------------------------------------------------------------*/
FoamFile
{
    version     2.0;
    format      ascii;
    class       volScalarField;
    location    "0.00071";
    object      H2O;
}
// * * * * * * * * * * * * * * * * * * * * * * * * * * * * * * * * * * * * * //

dimensions      [0 0 0 0 0 0 0];

internalField   nonuniform List<scalar> 
126
(
2.23003e-45
2.23012e-45
2.23021e-45
2.23031e-45
2.2304e-45
2.2305e-45
2.2306e-45
2.2307e-45
2.2308e-45
2.23091e-45
2.23103e-45
2.23117e-45
2.23133e-45
2.23152e-45
2.23173e-45
2.23199e-45
2.23228e-45
2.23261e-45
2.23299e-45
2.23341e-45
2.23386e-45
2.23435e-45
2.23486e-45
2.23538e-45
2.23591e-45
2.23644e-45
2.23695e-45
2.23743e-45
2.23789e-45
2.2383e-45
2.23868e-45
2.239e-45
2.23929e-45
2.23953e-45
2.23973e-45
2.23989e-45
2.24003e-45
2.24014e-45
2.24024e-45
2.24033e-45
2.24041e-45
2.2405e-45
2.2406e-45
2.24071e-45
2.24084e-45
2.24098e-45
2.24115e-45
2.24134e-45
2.24154e-45
2.24177e-45
2.24202e-45
2.24227e-45
2.24254e-45
2.24282e-45
2.2431e-45
2.24338e-45
2.24366e-45
2.24394e-45
2.24421e-45
2.24447e-45
2.24472e-45
2.24496e-45
2.24518e-45
2.24539e-45
2.24558e-45
2.24576e-45
2.24592e-45
2.24607e-45
2.2462e-45
2.24632e-45
2.24642e-45
2.24653e-45
2.24669e-45
2.24711e-45
2.24854e-45
2.25386e-45
2.27388e-45
2.34908e-45
2.6298e-45
3.67176e-45
7.51739e-45
2.16351e-44
7.32068e-44
2.60754e-43
9.40155e-43
3.39362e-42
1.2234e-41
4.40534e-41
1.58609e-40
5.71767e-40
2.06711e-39
7.50819e-39
2.74497e-38
1.0119e-37
3.7671e-37
1.41789e-36
5.39903e-36
2.07989e-35
8.10171e-35
3.18763e-34
1.26505e-33
5.05597e-33
2.03166e-32
8.19552e-32
3.31422e-31
1.342e-30
5.43596e-30
2.20103e-29
8.90341e-29
3.59666e-28
1.45057e-27
5.84002e-27
2.34691e-26
9.41438e-26
3.76985e-25
1.50708e-24
6.01561e-24
2.39781e-23
9.54565e-23
3.7959e-22
1.50802e-21
5.98605e-21
2.37451e-20
9.41369e-20
3.73025e-19
1.47754e-18
)
;

boundaryField
{
    boundary
    {
        type            empty;
    }
    inlet
    {
        type            fixedValue;
        value           nonuniform 0();
    }
    outlet
    {
        type            zeroGradient;
    }
    procBoundary3to1
    {
        type            processor;
        value           uniform 5.88542e-18;
    }
    procBoundary3to2
    {
        type            processor;
        value           uniform 2.23336e-45;
    }
}


// ************************************************************************* //
