/*--------------------------------*- C++ -*----------------------------------*\
  =========                 |
  \\      /  F ield         | OpenFOAM: The Open Source CFD Toolbox
   \\    /   O peration     | Website:  https://openfoam.org
    \\  /    A nd           | Version:  7
     \\/     M anipulation  |
\*---------------------------------------------------------------------------*/
FoamFile
{
    version     2.0;
    format      ascii;
    class       volScalarField;
    location    "0.00071";
    object      H2O2;
}
// * * * * * * * * * * * * * * * * * * * * * * * * * * * * * * * * * * * * * //

dimensions      [0 0 0 0 0 0 0];

internalField   nonuniform List<scalar> 
126
(
4.63373e-49
4.63393e-49
4.63415e-49
4.63437e-49
4.63459e-49
4.63481e-49
4.63503e-49
4.63525e-49
4.63548e-49
4.63573e-49
4.636e-49
4.6363e-49
4.63665e-49
4.63706e-49
4.63755e-49
4.63812e-49
4.6388e-49
4.63958e-49
4.64048e-49
4.6415e-49
4.64264e-49
4.64387e-49
4.64519e-49
4.64656e-49
4.64797e-49
4.64938e-49
4.65075e-49
4.65205e-49
4.65325e-49
4.65433e-49
4.65527e-49
4.65605e-49
4.65668e-49
4.65716e-49
4.65752e-49
4.65777e-49
4.65794e-49
4.65806e-49
4.65817e-49
4.65829e-49
4.65845e-49
4.65867e-49
4.65898e-49
4.65938e-49
4.65989e-49
4.6605e-49
4.66122e-49
4.66203e-49
4.66293e-49
4.66389e-49
4.66492e-49
4.66598e-49
4.66706e-49
4.66815e-49
4.66922e-49
4.67028e-49
4.67131e-49
4.67229e-49
4.67322e-49
4.67409e-49
4.67491e-49
4.67567e-49
4.67636e-49
4.67699e-49
4.67757e-49
4.67809e-49
4.67855e-49
4.67896e-49
4.67932e-49
4.67963e-49
4.6799e-49
4.68012e-49
4.6803e-49
4.68044e-49
4.68054e-49
4.68063e-49
4.68085e-49
4.68196e-49
4.68798e-49
4.72027e-49
4.89101e-49
5.78537e-49
1.04313e-48
3.43758e-48
1.56825e-47
7.78197e-47
3.90724e-46
1.95444e-45
9.70997e-45
4.78873e-44
2.34426e-43
1.1392e-42
5.49589e-42
2.6325e-41
1.25209e-40
5.91424e-40
2.7747e-39
1.29316e-38
5.98799e-38
2.75537e-37
1.26018e-36
5.72969e-36
2.59044e-35
1.16483e-34
5.21084e-34
2.31967e-33
1.02787e-32
4.53488e-32
1.99269e-31
8.72341e-31
3.80573e-30
1.65509e-29
7.17742e-29
3.10456e-28
1.33979e-27
5.77021e-27
2.48071e-26
1.06485e-25
4.56484e-25
1.95467e-24
8.36195e-24
3.57438e-23
1.52691e-22
6.51923e-22
2.78222e-21
1.18692e-20
)
;

boundaryField
{
    boundary
    {
        type            empty;
    }
    inlet
    {
        type            fixedValue;
        value           nonuniform 0();
    }
    outlet
    {
        type            zeroGradient;
    }
    procBoundary3to1
    {
        type            processor;
        value           uniform 5.09366e-20;
    }
    procBoundary3to2
    {
        type            processor;
        value           uniform 4.64689e-49;
    }
}


// ************************************************************************* //
