/*--------------------------------*- C++ -*----------------------------------*\
  =========                 |
  \\      /  F ield         | OpenFOAM: The Open Source CFD Toolbox
   \\    /   O peration     | Website:  https://openfoam.org
    \\  /    A nd           | Version:  7
     \\/     M anipulation  |
\*---------------------------------------------------------------------------*/
FoamFile
{
    version     2.0;
    format      ascii;
    class       volScalarField;
    location    "0.00071";
    object      O;
}
// * * * * * * * * * * * * * * * * * * * * * * * * * * * * * * * * * * * * * //

dimensions      [0 0 0 0 0 0 0];

internalField   nonuniform List<scalar> 
126
(
1.93562e-45
1.9357e-45
1.93579e-45
1.93588e-45
1.93598e-45
1.93608e-45
1.93619e-45
1.9363e-45
1.93643e-45
1.93658e-45
1.93675e-45
1.93695e-45
1.93717e-45
1.93743e-45
1.93773e-45
1.93806e-45
1.93843e-45
1.93882e-45
1.93924e-45
1.93968e-45
1.94013e-45
1.94059e-45
1.94103e-45
1.94147e-45
1.94188e-45
1.94227e-45
1.94263e-45
1.94296e-45
1.94325e-45
1.94352e-45
1.94376e-45
1.94397e-45
1.94416e-45
1.94433e-45
1.94448e-45
1.94462e-45
1.94475e-45
1.94488e-45
1.94501e-45
1.94513e-45
1.94526e-45
1.94539e-45
1.94552e-45
1.94566e-45
1.94581e-45
1.94596e-45
1.94613e-45
1.9463e-45
1.94648e-45
1.94666e-45
1.94685e-45
1.94705e-45
1.94725e-45
1.94745e-45
1.94766e-45
1.94787e-45
1.94807e-45
1.94827e-45
1.94847e-45
1.94866e-45
1.94885e-45
1.94903e-45
1.9492e-45
1.94936e-45
1.94951e-45
1.94966e-45
1.94979e-45
1.94994e-45
1.95016e-45
1.95071e-45
1.95255e-45
1.95938e-45
1.98533e-45
2.08377e-45
2.45543e-45
3.84979e-45
9.04721e-45
2.82943e-44
9.91063e-44
3.57938e-43
1.29789e-42
4.68925e-42
1.68466e-41
6.01491e-41
2.13402e-40
7.5235e-40
2.63576e-39
9.17654e-39
3.17514e-38
1.09191e-37
3.73236e-37
1.26821e-36
4.284e-36
1.43882e-35
4.80518e-35
1.59594e-34
5.27219e-34
1.73259e-33
5.66506e-33
1.84329e-32
5.96957e-32
1.9246e-31
6.17837e-31
1.97532e-30
6.29109e-30
1.99635e-29
6.31349e-29
1.99032e-28
6.25595e-28
1.96102e-27
6.1317e-27
1.91288e-26
5.95513e-26
1.85046e-25
5.7403e-25
1.77803e-24
5.50002e-24
1.69935e-23
5.24516e-23
1.61753e-22
4.98445e-22
1.53498e-21
4.72446e-21
1.45346e-20
4.46973e-20
1.37407e-19
)
;

boundaryField
{
    boundary
    {
        type            empty;
    }
    inlet
    {
        type            fixedValue;
        value           nonuniform 0();
    }
    outlet
    {
        type            zeroGradient;
    }
    procBoundary3to1
    {
        type            processor;
        value           uniform 4.24289e-19;
    }
    procBoundary3to2
    {
        type            processor;
        value           uniform 1.93826e-45;
    }
}


// ************************************************************************* //
