/*--------------------------------*- C++ -*----------------------------------*\
  =========                 |
  \\      /  F ield         | OpenFOAM: The Open Source CFD Toolbox
   \\    /   O peration     | Website:  https://openfoam.org
    \\  /    A nd           | Version:  7
     \\/     M anipulation  |
\*---------------------------------------------------------------------------*/
FoamFile
{
    version     2.0;
    format      ascii;
    class       volScalarField;
    location    "0.00093";
    object      O;
}
// * * * * * * * * * * * * * * * * * * * * * * * * * * * * * * * * * * * * * //

dimensions      [0 0 0 0 0 0 0];

internalField   nonuniform List<scalar> 
126
(
2.53029e-45
2.53034e-45
2.5304e-45
2.53046e-45
2.53052e-45
2.53059e-45
2.53066e-45
2.53074e-45
2.53082e-45
2.5309e-45
2.53099e-45
2.53109e-45
2.53119e-45
2.5313e-45
2.53141e-45
2.53153e-45
2.53165e-45
2.53178e-45
2.53192e-45
2.53206e-45
2.53222e-45
2.53238e-45
2.53255e-45
2.53274e-45
2.53294e-45
2.53316e-45
2.53339e-45
2.53364e-45
2.53391e-45
2.5342e-45
2.53451e-45
2.53484e-45
2.53518e-45
2.53554e-45
2.53592e-45
2.5363e-45
2.53669e-45
2.53708e-45
2.53747e-45
2.53786e-45
2.53824e-45
2.53861e-45
2.53897e-45
2.53932e-45
2.53965e-45
2.53996e-45
2.54026e-45
2.54054e-45
2.54081e-45
2.54106e-45
2.5413e-45
2.54153e-45
2.54176e-45
2.54197e-45
2.54218e-45
2.54239e-45
2.5426e-45
2.5428e-45
2.54301e-45
2.54322e-45
2.54343e-45
2.54365e-45
2.54387e-45
2.54412e-45
2.54442e-45
2.54492e-45
2.54609e-45
2.54951e-45
2.56066e-45
2.59797e-45
2.72368e-45
3.14654e-45
4.56375e-45
9.29348e-45
2.50099e-44
7.70083e-44
2.48317e-43
8.10348e-43
2.64678e-42
8.62359e-42
2.80008e-41
9.05893e-41
2.92022e-40
9.38056e-40
3.0031e-39
9.58287e-39
3.04837e-38
9.66822e-38
3.05772e-37
9.64461e-37
3.03441e-36
9.52424e-36
2.98277e-35
9.32196e-35
2.90775e-34
9.05386e-34
2.81447e-33
8.73586e-33
2.7078e-32
8.38272e-32
2.59214e-31
8.00724e-31
2.47117e-30
7.61994e-30
2.34782e-29
7.22888e-29
2.22429e-28
6.83984e-28
2.10207e-27
6.45666e-27
1.98214e-26
6.08175e-26
1.86507e-25
5.71659e-25
1.75128e-24
5.36232e-24
1.6411e-23
5.02012e-23
1.53497e-22
4.69145e-22
1.43338e-21
4.3781e-21
1.33694e-20
4.08197e-20
1.24623e-19
3.8048e-19
)
;

boundaryField
{
    boundary
    {
        type            empty;
    }
    inlet
    {
        type            fixedValue;
        value           nonuniform 0();
    }
    outlet
    {
        type            zeroGradient;
    }
    procBoundary3to1
    {
        type            processor;
        value           uniform 1.16688e-18;
    }
    procBoundary3to2
    {
        type            processor;
        value           uniform 2.53292e-45;
    }
}


// ************************************************************************* //
