/*--------------------------------*- C++ -*----------------------------------*\
  =========                 |
  \\      /  F ield         | OpenFOAM: The Open Source CFD Toolbox
   \\    /   O peration     | Website:  https://openfoam.org
    \\  /    A nd           | Version:  7
     \\/     M anipulation  |
\*---------------------------------------------------------------------------*/
FoamFile
{
    version     2.0;
    format      ascii;
    class       surfaceScalarField;
    location    "0.00093";
    object      phi;
}
// * * * * * * * * * * * * * * * * * * * * * * * * * * * * * * * * * * * * * //

dimensions      [1 0 -1 0 0 0 0];

internalField   nonuniform List<scalar> 
125
(
6.89681e-06
6.8968e-06
6.89678e-06
6.89676e-06
6.89674e-06
6.89672e-06
6.8967e-06
6.89668e-06
6.89666e-06
6.89664e-06
6.89662e-06
6.8966e-06
6.89658e-06
6.89655e-06
6.89653e-06
6.89651e-06
6.89648e-06
6.89646e-06
6.89643e-06
6.8964e-06
6.89638e-06
6.89635e-06
6.89633e-06
6.8963e-06
6.89627e-06
6.89625e-06
6.89622e-06
6.89619e-06
6.89617e-06
6.89614e-06
6.89611e-06
6.89608e-06
6.89605e-06
6.89602e-06
6.89599e-06
6.89596e-06
6.89593e-06
6.8959e-06
6.89587e-06
6.89584e-06
6.8958e-06
6.89577e-06
6.89574e-06
6.8957e-06
6.89567e-06
6.89563e-06
6.8956e-06
6.89556e-06
6.89553e-06
6.89549e-06
6.89546e-06
6.89542e-06
6.89538e-06
6.89534e-06
6.89531e-06
6.89527e-06
6.89523e-06
6.89519e-06
6.89515e-06
6.89512e-06
6.89508e-06
6.89504e-06
6.895e-06
6.89496e-06
6.89492e-06
6.89488e-06
6.89483e-06
6.89479e-06
6.89475e-06
6.89471e-06
6.89467e-06
6.89463e-06
6.89459e-06
6.89454e-06
6.8945e-06
6.89446e-06
6.89442e-06
6.89438e-06
6.89433e-06
6.89429e-06
6.89425e-06
6.89421e-06
6.89417e-06
6.89412e-06
6.89408e-06
6.89404e-06
6.894e-06
6.89396e-06
6.89392e-06
6.89387e-06
6.89383e-06
6.89379e-06
6.89375e-06
6.89371e-06
6.89367e-06
6.89363e-06
6.89359e-06
6.89355e-06
6.89352e-06
6.89348e-06
6.89344e-06
6.8934e-06
6.89337e-06
6.89333e-06
6.8933e-06
6.89326e-06
6.89323e-06
6.89319e-06
6.89316e-06
6.89313e-06
6.8931e-06
6.89307e-06
6.89304e-06
6.89301e-06
6.89298e-06
6.89295e-06
6.89293e-06
6.8929e-06
6.89288e-06
6.89286e-06
6.89283e-06
6.89281e-06
6.89279e-06
6.89277e-06
6.89276e-06
)
;

boundaryField
{
    boundary
    {
        type            empty;
        value           nonuniform 0();
    }
    inlet
    {
        type            calculated;
        value           nonuniform 0();
    }
    outlet
    {
        type            calculated;
        value           nonuniform 0();
    }
    procBoundary3to1
    {
        type            processor;
        value           uniform 6.89274e-06;
    }
    procBoundary3to2
    {
        type            processor;
        value           uniform -6.89683e-06;
    }
}


// ************************************************************************* //
