/*--------------------------------*- C++ -*----------------------------------*\
  =========                 |
  \\      /  F ield         | OpenFOAM: The Open Source CFD Toolbox
   \\    /   O peration     | Website:  https://openfoam.org
    \\  /    A nd           | Version:  7
     \\/     M anipulation  |
\*---------------------------------------------------------------------------*/
FoamFile
{
    version     2.0;
    format      ascii;
    class       volScalarField;
    location    "0.00077";
    object      H2O;
}
// * * * * * * * * * * * * * * * * * * * * * * * * * * * * * * * * * * * * * //

dimensions      [0 0 0 0 0 0 0];

internalField   nonuniform List<scalar> 
500
(
7.8759e-48
2.27487e-47
4.09034e-47
6.12558e-47
8.30704e-47
1.0585e-46
1.2926e-46
1.53079e-46
1.77161e-46
2.01418e-46
2.25799e-46
2.5028e-46
2.74856e-46
2.99535e-46
3.24328e-46
3.49254e-46
3.74329e-46
3.99567e-46
4.24983e-46
4.50586e-46
4.76389e-46
5.02398e-46
5.28627e-46
5.55087e-46
5.81799e-46
6.08787e-46
6.36085e-46
6.63734e-46
6.91787e-46
7.20308e-46
7.49372e-46
7.79067e-46
8.09489e-46
8.40746e-46
8.72953e-46
9.0623e-46
9.40701e-46
9.76487e-46
1.0137e-45
1.05246e-45
1.09283e-45
1.1349e-45
1.17871e-45
1.22425e-45
1.27151e-45
1.32041e-45
1.37084e-45
1.42264e-45
1.47562e-45
1.52953e-45
1.58409e-45
1.63898e-45
1.69387e-45
1.74841e-45
1.80222e-45
1.85495e-45
1.90624e-45
1.95576e-45
2.00322e-45
2.04835e-45
2.09093e-45
2.13078e-45
2.1678e-45
2.20189e-45
2.23304e-45
2.26128e-45
2.28667e-45
2.30931e-45
2.32933e-45
2.34691e-45
2.3622e-45
2.37541e-45
2.38672e-45
2.39634e-45
2.40444e-45
2.41122e-45
2.41685e-45
2.42149e-45
2.42528e-45
2.42836e-45
2.43084e-45
2.43282e-45
2.4344e-45
2.43564e-45
2.43661e-45
2.43737e-45
2.43795e-45
2.43841e-45
2.43875e-45
2.43902e-45
2.43922e-45
2.43937e-45
2.43949e-45
2.43958e-45
2.43965e-45
2.43971e-45
2.43976e-45
2.4398e-45
2.43983e-45
2.43987e-45
2.4399e-45
2.43993e-45
2.43995e-45
2.43998e-45
2.44001e-45
2.44005e-45
2.44008e-45
2.44011e-45
2.44015e-45
2.44019e-45
2.44023e-45
2.44027e-45
2.44031e-45
2.44036e-45
2.44041e-45
2.44046e-45
2.44051e-45
2.44057e-45
2.44062e-45
2.44068e-45
2.44073e-45
2.44076e-45
2.44069e-45
2.44025e-45
2.43845e-45
2.4351e-45
2.43519e-45
2.43528e-45
2.43537e-45
2.43547e-45
2.43558e-45
2.43568e-45
2.43579e-45
2.43589e-45
2.436e-45
2.43612e-45
2.43623e-45
2.43635e-45
2.43648e-45
2.43662e-45
2.43677e-45
2.43695e-45
2.43715e-45
2.43738e-45
2.43764e-45
2.43794e-45
2.43828e-45
2.43865e-45
2.43905e-45
2.43949e-45
2.43996e-45
2.44045e-45
2.44095e-45
2.44146e-45
2.44197e-45
2.44247e-45
2.44295e-45
2.44341e-45
2.44383e-45
2.44422e-45
2.44458e-45
2.44489e-45
2.44517e-45
2.44542e-45
2.44563e-45
2.44581e-45
2.44597e-45
2.44611e-45
2.44625e-45
2.44637e-45
2.4465e-45
2.44663e-45
2.44677e-45
2.44692e-45
2.44709e-45
2.44727e-45
2.44747e-45
2.44769e-45
2.44792e-45
2.44817e-45
2.44843e-45
2.44871e-45
2.44899e-45
2.44928e-45
2.44957e-45
2.44986e-45
2.45014e-45
2.45042e-45
2.4507e-45
2.45096e-45
2.45121e-45
2.45145e-45
2.45168e-45
2.45189e-45
2.45209e-45
2.4523e-45
2.45258e-45
2.45315e-45
2.45483e-45
2.46063e-45
2.48146e-45
2.55662e-45
2.82713e-45
3.79613e-45
7.24996e-45
1.95014e-44
6.27653e-44
2.14927e-43
7.48217e-43
2.61204e-42
9.11326e-42
3.17692e-41
1.10746e-40
3.86531e-40
1.35278e-39
4.75545e-39
1.6821e-38
5.99763e-38
2.15914e-37
7.85842e-37
2.89422e-36
1.07902e-35
4.07139e-35
1.55368e-34
5.98965e-34
2.32946e-33
9.12576e-33
3.59577e-32
1.42305e-31
5.64963e-31
2.24772e-30
8.95418e-30
3.5693e-29
1.42299e-28
5.67188e-28
2.25972e-27
8.99741e-27
3.57999e-26
1.42343e-25
5.65563e-25
2.24561e-24
8.91085e-24
3.53393e-23
1.4008e-22
5.55e-22
2.19799e-21
8.7013e-21
3.44325e-20
1.36199e-19
5.38506e-19
2.12813e-18
8.45629e-18
3.34725e-17
1.32114e-16
5.20768e-16
2.05074e-15
8.06794e-15
3.17098e-14
1.2451e-13
4.88433e-13
1.9144e-12
7.4978e-12
2.93481e-11
1.1483e-10
4.49213e-10
1.7574e-09
6.87697e-09
2.6922e-08
1.05449e-07
4.13233e-07
1.6199e-06
6.34893e-06
2.48444e-05
9.66956e-05
0.000370339
0.0013567
0.00445929
0.0119467
0.0247575
0.0414421
0.061651
0.085693
0.111685
0.135601
0.154246
0.170454
0.180005
0.186419
0.190772
0.193812
0.196027
0.19772
0.199082
0.200225
0.201222
0.202115
0.202932
0.20369
0.204401
0.205073
0.205711
0.206319
0.2069
0.207456
0.20799
0.208503
0.208997
0.209472
0.209931
0.210373
0.2108
0.211212
0.211597
0.211965
0.212323
0.212672
0.213012
0.213344
0.213668
0.213984
0.214293
0.214595
0.214891
0.21518
0.215463
0.215739
0.216011
0.216276
0.216537
0.216792
0.217043
0.217289
0.21753
0.217768
0.218001
0.21823
0.218455
0.218676
0.218894
0.219108
0.219319
0.219526
0.21973
0.219932
0.22013
0.220325
0.220518
0.220708
0.220895
0.221079
0.221261
0.221441
0.221618
0.221793
0.221965
0.222135
0.222303
0.222469
0.222632
0.222794
0.222953
0.223111
0.223266
0.22342
0.223571
0.223721
0.223869
0.224015
0.224159
0.224301
0.224442
0.224581
0.224719
0.224854
0.224988
0.225121
0.225252
0.225382
0.22551
0.225637
0.225763
0.225887
0.22601
0.226131
0.226251
0.22637
0.226488
0.226604
0.22672
0.226834
0.226947
0.227059
0.227169
0.227279
0.227387
0.227495
0.227601
0.227707
0.227811
0.227915
0.228017
0.228119
0.228219
0.228319
0.228417
0.228515
0.228612
0.228708
0.228803
0.228897
0.22899
0.229083
0.229174
0.229265
0.229355
0.229444
0.229533
0.22962
0.229707
0.229793
0.229878
0.229963
0.230047
0.23013
0.230212
0.230294
0.230375
0.230455
0.230535
0.230614
0.230692
0.230769
0.230847
0.230923
0.230999
0.231074
0.231149
0.231223
0.231296
0.231369
0.231442
0.231514
0.231585
0.231656
0.231727
0.231797
0.231867
0.231936
0.232005
0.232073
0.232142
0.232209
0.232277
0.232344
0.232411
0.232477
0.232544
0.23261
0.232675
0.232741
0.232806
0.232872
0.232937
0.233002
0.233067
0.233132
0.233197
0.233262
0.233327
0.233392
0.233458
0.233523
0.233589
0.233655
0.233721
0.233788
0.233855
0.233922
0.23399
0.234059
0.234128
0.234198
0.234269
0.23434
0.234412
0.234486
0.234559
0.23463
0.23474
0.234819
0.234899
0.23498
0.235063
0.235146
0.235229
0.235312
0.235394
0.235471
0.235538
0.235584
)
;

boundaryField
{
    boundary
    {
        type            empty;
    }
    inlet
    {
        type            fixedValue;
        value           uniform 0;
    }
    outlet
    {
        type            zeroGradient;
    }
}


// ************************************************************************* //
