/*--------------------------------*- C++ -*----------------------------------*\
  =========                 |
  \\      /  F ield         | OpenFOAM: The Open Source CFD Toolbox
   \\    /   O peration     | Website:  https://openfoam.org
    \\  /    A nd           | Version:  7
     \\/     M anipulation  |
\*---------------------------------------------------------------------------*/
FoamFile
{
    version     2.0;
    format      ascii;
    class       volScalarField;
    location    "0.00077";
    object      O;
}
// * * * * * * * * * * * * * * * * * * * * * * * * * * * * * * * * * * * * * //

dimensions      [0 0 0 0 0 0 0];

internalField   nonuniform List<scalar> 
500
(
1.57652e-47
3.75964e-47
5.95204e-47
8.1413e-47
1.0324e-46
1.24988e-46
1.46651e-46
1.68229e-46
1.89727e-46
2.11155e-46
2.3253e-46
2.53871e-46
2.75202e-46
2.96547e-46
3.1793e-46
3.39376e-46
3.60905e-46
3.82534e-46
4.0428e-46
4.26155e-46
4.4817e-46
4.70338e-46
4.92669e-46
5.15179e-46
5.37886e-46
5.60815e-46
5.83997e-46
6.07468e-46
6.31276e-46
6.55476e-46
6.8013e-46
7.05311e-46
7.31098e-46
7.57576e-46
7.84836e-46
8.12971e-46
8.42075e-46
8.72239e-46
9.03547e-46
9.36074e-46
9.69883e-46
1.00502e-45
1.0415e-45
1.07933e-45
1.11848e-45
1.1589e-45
1.20048e-45
1.24312e-45
1.28665e-45
1.33089e-45
1.37563e-45
1.42064e-45
1.46565e-45
1.5104e-45
1.55462e-45
1.59803e-45
1.64036e-45
1.68136e-45
1.72078e-45
1.75842e-45
1.7941e-45
1.82767e-45
1.85903e-45
1.88809e-45
1.91483e-45
1.93924e-45
1.96135e-45
1.98124e-45
1.99898e-45
2.01469e-45
2.0285e-45
2.04054e-45
2.05096e-45
2.05991e-45
2.06754e-45
2.074e-45
2.07942e-45
2.08394e-45
2.08769e-45
2.09076e-45
2.09328e-45
2.09531e-45
2.09695e-45
2.09826e-45
2.0993e-45
2.10012e-45
2.10076e-45
2.10126e-45
2.10165e-45
2.10195e-45
2.10218e-45
2.10236e-45
2.1025e-45
2.10261e-45
2.10269e-45
2.10276e-45
2.10281e-45
2.10285e-45
2.10289e-45
2.10292e-45
2.10295e-45
2.10298e-45
2.10301e-45
2.10304e-45
2.10306e-45
2.10309e-45
2.10312e-45
2.10315e-45
2.10318e-45
2.10322e-45
2.10325e-45
2.10329e-45
2.10333e-45
2.10337e-45
2.10341e-45
2.10345e-45
2.1035e-45
2.10354e-45
2.10359e-45
2.10363e-45
2.10366e-45
2.10364e-45
2.10347e-45
2.10288e-45
2.10106e-45
2.09843e-45
2.09851e-45
2.09859e-45
2.09867e-45
2.09877e-45
2.09886e-45
2.09896e-45
2.09906e-45
2.09917e-45
2.09929e-45
2.09941e-45
2.09955e-45
2.09969e-45
2.09986e-45
2.10004e-45
2.10025e-45
2.10048e-45
2.10074e-45
2.10103e-45
2.10135e-45
2.1017e-45
2.10207e-45
2.10247e-45
2.10288e-45
2.1033e-45
2.10373e-45
2.10416e-45
2.10458e-45
2.10498e-45
2.10537e-45
2.10574e-45
2.10608e-45
2.1064e-45
2.10669e-45
2.10696e-45
2.1072e-45
2.10742e-45
2.10763e-45
2.10781e-45
2.10799e-45
2.10815e-45
2.10831e-45
2.10846e-45
2.10861e-45
2.10875e-45
2.1089e-45
2.10906e-45
2.10921e-45
2.10938e-45
2.10955e-45
2.10972e-45
2.10991e-45
2.11009e-45
2.11029e-45
2.11049e-45
2.1107e-45
2.11091e-45
2.11112e-45
2.11133e-45
2.11155e-45
2.11176e-45
2.11197e-45
2.11218e-45
2.11238e-45
2.11258e-45
2.11278e-45
2.113e-45
2.11333e-45
2.11406e-45
2.11633e-45
2.12434e-45
2.15345e-45
2.25968e-45
2.64603e-45
4.04353e-45
9.06896e-45
2.70332e-44
9.08672e-44
3.16352e-43
1.10816e-42
3.87237e-42
1.34663e-41
4.65732e-41
1.60169e-40
5.47744e-40
1.86277e-39
6.30018e-39
2.11933e-38
7.0915e-38
2.36057e-37
7.81782e-37
2.57631e-36
8.44914e-36
2.75799e-35
8.96201e-35
2.89949e-34
9.34144e-34
2.99752e-33
9.58175e-33
3.05173e-32
9.68615e-32
3.0644e-31
9.66532e-31
3.03985e-30
9.53538e-30
2.98375e-29
9.31555e-29
2.90242e-28
9.02605e-28
2.80219e-27
8.68633e-27
2.68894e-26
8.31384e-26
2.56777e-25
7.92327e-25
2.44284e-24
7.52619e-24
2.31731e-23
7.13102e-23
2.19333e-22
6.74309e-22
2.07217e-21
6.36506e-21
1.95429e-20
5.99757e-20
1.8397e-19
5.66722e-19
1.74149e-18
5.33717e-18
1.63358e-17
4.99564e-17
1.5266e-16
4.66204e-16
1.42291e-15
4.3408e-15
1.32377e-14
4.03614e-14
1.23056e-13
3.75226e-13
1.14445e-12
3.49194e-12
1.06594e-11
3.25545e-11
9.94719e-11
3.04097e-10
9.30354e-10
2.8519e-09
8.80631e-09
2.79902e-08
9.85162e-08
4.49135e-07
2.86774e-06
1.92149e-05
9.54798e-05
0.000376944
0.00110444
0.00230353
0.00367093
0.00485349
0.00568768
0.0061898
0.00640023
0.00644644
0.0063919
0.00627898
0.00613478
0.00597593
0.00581235
0.00564976
0.00549135
0.00533879
0.00519284
0.00505374
0.00492142
0.00479566
0.00467614
0.00456253
0.00445446
0.0043516
0.0042536
0.00416015
0.00407096
0.00398576
0.00390431
0.00382637
0.00375176
0.00368031
0.00361396
0.00355128
0.00349073
0.00343218
0.00337552
0.00332067
0.00326752
0.00321601
0.00316605
0.00311758
0.00307052
0.00302482
0.00298041
0.00293723
0.00289524
0.00285438
0.0028146
0.00277587
0.00273812
0.00270134
0.00266546
0.00263047
0.00259632
0.00256299
0.00253043
0.00249863
0.00246755
0.00243717
0.00240746
0.00237839
0.00234996
0.00232212
0.00229488
0.0022682
0.00224206
0.00221646
0.00219137
0.00216678
0.00214268
0.00211905
0.00209587
0.00207314
0.00205084
0.00202897
0.0020075
0.00198643
0.00196575
0.00194545
0.00192553
0.00190596
0.00188674
0.00186786
0.00184932
0.00183111
0.00181322
0.00179563
0.00177835
0.00176137
0.00174467
0.00172826
0.00171213
0.00169626
0.00168067
0.00166535
0.00165026
0.00163536
0.00162071
0.00160628
0.00159208
0.00157809
0.00156433
0.00155077
0.00153741
0.00152425
0.00151129
0.00149852
0.00148593
0.00147353
0.00146131
0.00144926
0.00143738
0.00142567
0.00141412
0.00140274
0.00139151
0.00138044
0.00136952
0.00135874
0.00134812
0.00133764
0.00132729
0.00131709
0.00130702
0.00129709
0.00128728
0.00127761
0.00126806
0.00125864
0.00124934
0.00124016
0.0012311
0.00122215
0.00121332
0.00120461
0.001196
0.0011875
0.00117911
0.00117083
0.00116265
0.00115457
0.00114659
0.00113871
0.00113092
0.00112324
0.00111564
0.00110814
0.00110073
0.00109341
0.00108617
0.00107903
0.00107196
0.00106498
0.00105808
0.00105126
0.00104452
0.00103785
0.00103126
0.00102475
0.0010183
0.00101193
0.00100563
0.000999397
0.000993231
0.000987131
0.000981096
0.000975125
0.000969217
0.000963369
0.000957582
0.000951853
0.000946182
0.000940568
0.000935009
0.000929504
0.000924053
0.000918654
0.000913306
0.000908007
0.000902757
0.000897554
0.000892397
0.000887285
0.000882216
0.000877189
0.000872202
0.000867254
0.000862343
0.000857468
0.000852626
0.000847816
0.000843036
0.000838283
0.000833556
0.000828851
0.000824168
0.000819502
0.000814851
0.000810213
0.000805584
0.000800961
0.00079634
0.000791718
0.000787088
0.000782446
0.000777815
0.000773367
0.000767032
0.000762218
0.00075743
0.000752642
0.000747848
0.000743059
0.000738301
0.000733624
0.00072912
0.000724957
0.000721442
0.000719143
)
;

boundaryField
{
    boundary
    {
        type            empty;
    }
    inlet
    {
        type            fixedValue;
        value           uniform 0;
    }
    outlet
    {
        type            zeroGradient;
    }
}


// ************************************************************************* //
