/*--------------------------------*- C++ -*----------------------------------*\
  =========                 |
  \\      /  F ield         | OpenFOAM: The Open Source CFD Toolbox
   \\    /   O peration     | Website:  https://openfoam.org
    \\  /    A nd           | Version:  7
     \\/     M anipulation  |
\*---------------------------------------------------------------------------*/
FoamFile
{
    version     2.0;
    format      ascii;
    class       volScalarField;
    location    "0.00077";
    object      rho;
}
// * * * * * * * * * * * * * * * * * * * * * * * * * * * * * * * * * * * * * //

dimensions      [1 -3 0 0 0 0 0];

internalField   nonuniform List<scalar> 
500
(
0.864655
0.864654
0.864654
0.864656
0.86466
0.864667
0.864676
0.864686
0.864698
0.864711
0.864726
0.86474
0.864754
0.864767
0.864779
0.864789
0.864797
0.864803
0.864807
0.864808
0.864806
0.864802
0.864796
0.864787
0.864776
0.864762
0.864747
0.864729
0.864708
0.864684
0.864657
0.864627
0.864592
0.864553
0.864509
0.864459
0.864404
0.864342
0.864273
0.864196
0.864112
0.86402
0.863919
0.863811
0.863695
0.863572
0.863442
0.863305
0.863163
0.863017
0.862866
0.862714
0.862559
0.862405
0.862252
0.862101
0.861953
0.86181
0.861672
0.86154
0.861415
0.861297
0.861187
0.861086
0.860992
0.860907
0.860829
0.86076
0.860698
0.860643
0.860594
0.860552
0.860515
0.860484
0.860457
0.860434
0.860415
0.860399
0.860385
0.860374
0.860365
0.860358
0.860352
0.860347
0.860343
0.86034
0.860338
0.860336
0.860335
0.860334
0.860333
0.860332
0.860331
0.860331
0.860331
0.86033
0.86033
0.86033
0.86033
0.86033
0.86033
0.860329
0.860329
0.860329
0.860329
0.860329
0.860329
0.860329
0.860329
0.860328
0.860328
0.860328
0.860328
0.860328
0.860328
0.860327
0.860327
0.860327
0.860327
0.860327
0.860326
0.860326
0.860326
0.860326
0.860326
0.860325
0.860325
0.860324
0.860324
0.860323
0.860323
0.860322
0.860321
0.860321
0.86032
0.86032
0.86032
0.860319
0.860319
0.860319
0.860319
0.860319
0.860318
0.860318
0.860318
0.860318
0.860317
0.860317
0.860317
0.860316
0.860316
0.860315
0.860315
0.860314
0.860314
0.860313
0.860313
0.860312
0.860312
0.860311
0.86031
0.86031
0.860309
0.860309
0.860308
0.860307
0.860307
0.860306
0.860306
0.860305
0.860304
0.860304
0.860303
0.860302
0.860302
0.860301
0.8603
0.8603
0.860299
0.860298
0.860298
0.860297
0.860296
0.860296
0.860295
0.860294
0.860294
0.860293
0.860293
0.860292
0.860291
0.860291
0.86029
0.86029
0.860289
0.860289
0.860289
0.860288
0.860288
0.860288
0.860287
0.860287
0.860287
0.860287
0.860287
0.860287
0.860287
0.860287
0.860287
0.860287
0.860287
0.860288
0.860288
0.860289
0.860289
0.86029
0.860291
0.860291
0.860292
0.860293
0.860294
0.860295
0.860297
0.860298
0.8603
0.860301
0.860303
0.860305
0.860307
0.860309
0.860311
0.860313
0.860316
0.860318
0.860321
0.860324
0.860327
0.86033
0.860333
0.860336
0.86034
0.860344
0.860348
0.860352
0.860356
0.86036
0.860365
0.860369
0.860374
0.860379
0.860385
0.86039
0.860395
0.860401
0.860406
0.860412
0.860418
0.860424
0.86043
0.860436
0.860443
0.86045
0.860457
0.860464
0.860472
0.860481
0.860488
0.860491
0.860476
0.860399
0.860125
0.859247
0.856565
0.848639
0.826285
0.769966
0.661475
0.52556
0.41284
0.337596
0.288233
0.254042
0.229683
0.212639
0.200037
0.190346
0.183394
0.17827
0.174161
0.170796
0.167976
0.165569
0.163482
0.16165
0.160024
0.158568
0.157255
0.156063
0.154974
0.153974
0.153052
0.152199
0.151406
0.150666
0.149975
0.149327
0.148718
0.148144
0.147602
0.14709
0.146605
0.146146
0.145723
0.145327
0.144945
0.144579
0.144227
0.143887
0.143561
0.143245
0.142941
0.142646
0.142362
0.142087
0.14182
0.141562
0.141311
0.141068
0.140832
0.140603
0.140381
0.140164
0.139953
0.139748
0.139549
0.139354
0.139165
0.13898
0.1388
0.138624
0.138452
0.138284
0.138121
0.137961
0.137804
0.137651
0.137502
0.137355
0.137212
0.137071
0.136934
0.136799
0.136667
0.136538
0.136411
0.136287
0.136165
0.136045
0.135927
0.135812
0.135699
0.135587
0.135478
0.135371
0.135265
0.135161
0.135059
0.134959
0.13486
0.134763
0.134667
0.134573
0.134481
0.13439
0.134301
0.134213
0.134126
0.134041
0.133956
0.133873
0.133791
0.13371
0.133631
0.133552
0.133475
0.133398
0.133323
0.133249
0.133176
0.133104
0.133032
0.132962
0.132893
0.132824
0.132756
0.13269
0.132624
0.132559
0.132495
0.132431
0.132369
0.132307
0.132246
0.132185
0.132125
0.132067
0.132008
0.131951
0.131894
0.131838
0.131782
0.131727
0.131673
0.131619
0.131566
0.131513
0.131461
0.131409
0.131359
0.131308
0.131258
0.131209
0.13116
0.131112
0.131064
0.131017
0.13097
0.130923
0.130877
0.130832
0.130787
0.130742
0.130698
0.130654
0.130611
0.130568
0.130525
0.130483
0.130441
0.1304
0.130359
0.130318
0.130278
0.130238
0.130198
0.130159
0.13012
0.130081
0.130043
0.130005
0.129968
0.12993
0.129893
0.129857
0.12982
0.129784
0.129748
0.129713
0.129678
0.129643
0.129608
0.129573
0.129539
0.129505
0.129471
0.129438
0.129404
0.129371
0.129339
0.129306
0.129274
0.129242
0.12921
0.129178
0.129147
0.129116
0.129085
0.129055
0.129024
0.128995
0.128965
0.128936
0.128907
0.128879
0.12885
0.128822
0.128795
0.128767
0.128732
0.128702
0.128676
0.12865
0.128625
0.128599
0.128575
0.128551
0.128527
0.128505
0.128486
0.128474
)
;

boundaryField
{
    boundary
    {
        type            empty;
    }
    inlet
    {
        type            calculated;
        value           uniform 0.864658;
    }
    outlet
    {
        type            calculated;
        value           uniform 0.128474;
    }
}


// ************************************************************************* //
