/*--------------------------------*- C++ -*----------------------------------*\
  =========                 |
  \\      /  F ield         | OpenFOAM: The Open Source CFD Toolbox
   \\    /   O peration     | Website:  https://openfoam.org
    \\  /    A nd           | Version:  7
     \\/     M anipulation  |
\*---------------------------------------------------------------------------*/
FoamFile
{
    version     2.0;
    format      ascii;
    class       volScalarField;
    location    "0.00077";
    object      T;
}
// * * * * * * * * * * * * * * * * * * * * * * * * * * * * * * * * * * * * * //

dimensions      [0 0 0 1 0 0 0];

internalField   nonuniform List<scalar> 
500
(
300.001
300.001
300.001
300.001
299.999
299.997
299.994
299.99
299.986
299.981
299.977
299.972
299.967
299.962
299.958
299.954
299.952
299.95
299.948
299.948
299.949
299.95
299.952
299.955
299.959
299.964
299.969
299.975
299.983
299.991
300
300.011
300.023
300.036
300.052
300.069
300.088
300.11
300.134
300.16
300.19
300.222
300.256
300.294
300.334
300.377
300.422
300.47
300.519
300.57
300.623
300.676
300.73
300.784
300.837
300.89
300.941
300.991
301.04
301.086
301.129
301.17
301.209
301.244
301.277
301.307
301.334
301.359
301.38
301.4
301.417
301.431
301.444
301.455
301.465
301.473
301.479
301.485
301.49
301.494
301.497
301.499
301.501
301.503
301.504
301.505
301.506
301.507
301.507
301.508
301.508
301.508
301.509
301.509
301.509
301.509
301.509
301.509
301.509
301.509
301.509
301.509
301.509
301.509
301.509
301.509
301.509
301.509
301.509
301.51
301.51
301.51
301.51
301.51
301.51
301.51
301.51
301.51
301.51
301.51
301.51
301.51
301.51
301.51
301.51
301.511
301.511
301.511
301.511
301.511
301.512
301.512
301.512
301.512
301.512
301.512
301.512
301.513
301.513
301.513
301.513
301.513
301.513
301.513
301.513
301.513
301.513
301.513
301.513
301.514
301.514
301.514
301.514
301.514
301.514
301.515
301.515
301.515
301.515
301.515
301.516
301.516
301.516
301.516
301.516
301.517
301.517
301.517
301.517
301.518
301.518
301.518
301.518
301.518
301.519
301.519
301.519
301.519
301.52
301.52
301.52
301.52
301.52
301.521
301.521
301.521
301.521
301.522
301.522
301.522
301.522
301.522
301.523
301.523
301.523
301.523
301.523
301.523
301.523
301.523
301.524
301.524
301.524
301.524
301.524
301.524
301.524
301.524
301.524
301.524
301.523
301.523
301.523
301.523
301.523
301.523
301.522
301.522
301.522
301.521
301.521
301.521
301.52
301.52
301.519
301.519
301.518
301.517
301.517
301.516
301.515
301.514
301.514
301.513
301.512
301.511
301.51
301.509
301.507
301.506
301.505
301.504
301.502
301.501
301.499
301.498
301.496
301.495
301.493
301.491
301.489
301.487
301.485
301.484
301.482
301.48
301.478
301.475
301.473
301.471
301.469
301.466
301.464
301.462
301.459
301.457
301.457
301.46
301.475
301.522
301.659
302.052
303.174
306.369
315.4
339.97
398.645
506.864
652.897
808.158
957.53
1097.26
1223.03
1328.5
1418.2
1494.15
1554.56
1602.65
1643.59
1678.89
1709.8
1737.22
1761.79
1784.01
1804.26
1822.82
1839.93
1855.78
1870.52
1884.28
1897.17
1909.27
1920.68
1931.44
1941.63
1951.3
1960.48
1969.21
1977.54
1985.49
1993.08
2000.32
2007.07
2013.41
2019.57
2025.51
2031.27
2036.86
2042.27
2047.52
2052.62
2057.57
2062.38
2067.07
2071.63
2076.06
2080.39
2084.6
2088.71
2092.72
2096.64
2100.46
2104.19
2107.83
2111.4
2114.88
2118.29
2121.63
2124.89
2128.09
2131.22
2134.28
2137.29
2140.23
2143.12
2145.95
2148.73
2151.46
2154.13
2156.76
2159.34
2161.87
2164.36
2166.8
2169.2
2171.57
2173.89
2176.17
2178.42
2180.63
2182.81
2184.95
2187.06
2189.14
2191.18
2193.2
2195.18
2197.13
2199.06
2200.96
2202.83
2204.68
2206.49
2208.29
2210.05
2211.78
2213.49
2215.19
2216.87
2218.53
2220.17
2221.78
2223.37
2224.95
2226.5
2228.03
2229.55
2231.05
2232.52
2233.98
2235.43
2236.85
2238.26
2239.66
2241.03
2242.39
2243.74
2245.07
2246.38
2247.68
2248.97
2250.24
2251.49
2252.74
2253.97
2255.18
2256.39
2257.58
2258.76
2259.93
2261.08
2262.22
2263.35
2264.47
2265.58
2266.68
2267.77
2268.84
2269.91
2270.96
2272.01
2273.05
2274.07
2275.09
2276.09
2277.09
2278.08
2279.06
2280.03
2280.99
2281.94
2282.89
2283.82
2284.75
2285.67
2286.58
2287.48
2288.38
2289.27
2290.14
2291.02
2291.88
2292.74
2293.58
2294.43
2295.26
2296.09
2296.91
2297.72
2298.52
2299.32
2300.11
2300.9
2301.67
2302.45
2303.21
2303.97
2304.72
2305.46
2306.2
2306.93
2307.66
2308.38
2309.09
2309.79
2310.49
2311.19
2311.87
2312.55
2313.22
2313.89
2314.55
2315.2
2315.84
2316.47
2317.1
2317.72
2318.33
2318.93
2319.52
2320.1
2320.67
2321.23
2321.78
2322.32
2322.85
2323.36
2323.89
2324.51
2325.05
2325.52
2325.98
2326.42
2326.85
2327.27
2327.67
2328.05
2328.4
2328.7
2328.88
)
;

boundaryField
{
    boundary
    {
        type            empty;
    }
    inlet
    {
        type            fixedValue;
        value           uniform 300;
    }
    outlet
    {
        type            zeroGradient;
    }
}


// ************************************************************************* //
