/*--------------------------------*- C++ -*----------------------------------*\
  =========                 |
  \\      /  F ield         | OpenFOAM: The Open Source CFD Toolbox
   \\    /   O peration     | Website:  https://openfoam.org
    \\  /    A nd           | Version:  7
     \\/     M anipulation  |
\*---------------------------------------------------------------------------*/
FoamFile
{
    version     2.0;
    format      ascii;
    class       volScalarField;
    location    "0.00078";
    object      H2O2;
}
// * * * * * * * * * * * * * * * * * * * * * * * * * * * * * * * * * * * * * //

dimensions      [0 0 0 0 0 0 0];

internalField   nonuniform List<scalar> 
126
(
5.61563e-49
5.61584e-49
5.61606e-49
5.6163e-49
5.61654e-49
5.6168e-49
5.61706e-49
5.61732e-49
5.61759e-49
5.61786e-49
5.61814e-49
5.61842e-49
5.61871e-49
5.61902e-49
5.61935e-49
5.61971e-49
5.62012e-49
5.62058e-49
5.62111e-49
5.62172e-49
5.62242e-49
5.62322e-49
5.62414e-49
5.62516e-49
5.62629e-49
5.62752e-49
5.62883e-49
5.63022e-49
5.63165e-49
5.6331e-49
5.63454e-49
5.63595e-49
5.63729e-49
5.63855e-49
5.63969e-49
5.64071e-49
5.6416e-49
5.64236e-49
5.64299e-49
5.64351e-49
5.64394e-49
5.64429e-49
5.6446e-49
5.64489e-49
5.64519e-49
5.64552e-49
5.6459e-49
5.64635e-49
5.64689e-49
5.64752e-49
5.64824e-49
5.64906e-49
5.64997e-49
5.65096e-49
5.65202e-49
5.65313e-49
5.65428e-49
5.65546e-49
5.65664e-49
5.65783e-49
5.65899e-49
5.66013e-49
5.66123e-49
5.66228e-49
5.66327e-49
5.66421e-49
5.66508e-49
5.66589e-49
5.66664e-49
5.66732e-49
5.66794e-49
5.66849e-49
5.66899e-49
5.66944e-49
5.66987e-49
5.67045e-49
5.67207e-49
5.67913e-49
5.7139e-49
5.8877e-49
6.75362e-49
1.10402e-48
3.21161e-48
1.35034e-47
6.34213e-47
3.0392e-46
1.45498e-45
6.92832e-45
3.27878e-44
1.54197e-43
7.20697e-43
3.34809e-42
1.54621e-41
7.09965e-41
3.2417e-40
1.47216e-39
6.65071e-39
2.9895e-38
1.33734e-37
5.95516e-37
2.64033e-36
1.16585e-35
5.12805e-35
2.24751e-34
9.81755e-34
4.27532e-33
1.85656e-32
8.04153e-32
3.47506e-31
1.4986e-30
6.45072e-30
2.7722e-29
1.18967e-28
5.09906e-28
2.1832e-27
9.33907e-27
3.99186e-26
1.70513e-25
7.27923e-25
3.10589e-24
1.32457e-23
5.6462e-23
2.40561e-22
1.0244e-21
4.35977e-21
1.85432e-20
)
;

boundaryField
{
    boundary
    {
        type            empty;
    }
    inlet
    {
        type            fixedValue;
        value           nonuniform 0();
    }
    outlet
    {
        type            zeroGradient;
    }
    procBoundary3to1
    {
        type            processor;
        value           uniform 7.93036e-20;
    }
    procBoundary3to2
    {
        type            processor;
        value           uniform 5.63015e-49;
    }
}


// ************************************************************************* //
