/*--------------------------------*- C++ -*----------------------------------*\
  =========                 |
  \\      /  F ield         | OpenFOAM: The Open Source CFD Toolbox
   \\    /   O peration     | Website:  https://openfoam.org
    \\  /    A nd           | Version:  7
     \\/     M anipulation  |
\*---------------------------------------------------------------------------*/
FoamFile
{
    version     2.0;
    format      ascii;
    class       volScalarField;
    location    "0.00087";
    object      Qdot;
}
// * * * * * * * * * * * * * * * * * * * * * * * * * * * * * * * * * * * * * //

dimensions      [1 -1 -3 0 0 0 0];

internalField   nonuniform List<scalar> 
126
(
-2.67467e-27
-2.67473e-27
-2.6748e-27
-2.67487e-27
-2.67495e-27
-2.67505e-27
-2.67515e-27
-2.67526e-27
-2.67538e-27
-2.6755e-27
-2.67564e-27
-2.67577e-27
-2.67591e-27
-2.67604e-27
-2.67617e-27
-2.67629e-27
-2.67641e-27
-2.67652e-27
-2.67662e-27
-2.67671e-27
-2.67679e-27
-2.67686e-27
-2.67694e-27
-2.67701e-27
-2.67708e-27
-2.67715e-27
-2.67722e-27
-2.6773e-27
-2.67739e-27
-2.67748e-27
-2.67758e-27
-2.67769e-27
-2.67781e-27
-2.67793e-27
-2.67806e-27
-2.6782e-27
-2.67834e-27
-2.67848e-27
-2.67863e-27
-2.67878e-27
-2.67893e-27
-2.67909e-27
-2.67925e-27
-2.67941e-27
-2.67957e-27
-2.67973e-27
-2.6799e-27
-2.68006e-27
-2.68023e-27
-2.6804e-27
-2.68057e-27
-2.68074e-27
-2.68092e-27
-2.68109e-27
-2.68127e-27
-2.68145e-27
-2.68163e-27
-2.68181e-27
-2.68199e-27
-2.68217e-27
-2.68235e-27
-2.68254e-27
-2.68272e-27
-2.6829e-27
-2.68308e-27
-2.68326e-27
-2.68343e-27
-2.68361e-27
-2.68378e-27
-2.68394e-27
-2.6841e-27
-2.68426e-27
-2.68441e-27
-2.68456e-27
-2.6847e-27
-2.68483e-27
-2.68495e-27
-2.68507e-27
-2.68517e-27
-2.68527e-27
-2.68533e-27
-2.68534e-27
-2.68517e-27
-2.68444e-27
-2.68195e-27
-2.67377e-27
-2.64722e-27
-2.56167e-27
-2.28715e-27
-1.40939e-27
1.38776e-27
1.02729e-26
3.84105e-26
1.27261e-25
4.07065e-25
1.28597e-24
4.04015e-24
1.26518e-23
3.95231e-23
1.23213e-22
3.83415e-22
1.19114e-21
3.6949e-21
1.14461e-20
3.54146e-20
1.09455e-19
3.3796e-19
1.04261e-18
3.21408e-18
9.90164e-18
3.04872e-17
9.38278e-17
2.88668e-16
8.87929e-16
2.73116e-15
8.40251e-15
2.58654e-14
7.97075e-14
2.46079e-13
7.61945e-13
2.36993e-12
7.42146e-12
2.34714e-11
7.52802e-11
2.46137e-10
8.25349e-10
)
;

boundaryField
{
    boundary
    {
        type            empty;
    }
    inlet
    {
        type            calculated;
        value           nonuniform 0();
    }
    outlet
    {
        type            calculated;
        value           nonuniform 0();
    }
    procBoundary3to1
    {
        type            processor;
        value           uniform 0;
    }
    procBoundary3to2
    {
        type            processor;
        value           uniform 0;
    }
}


// ************************************************************************* //
