/*--------------------------------*- C++ -*----------------------------------*\
  =========                 |
  \\      /  F ield         | OpenFOAM: The Open Source CFD Toolbox
   \\    /   O peration     | Website:  https://openfoam.org
    \\  /    A nd           | Version:  7
     \\/     M anipulation  |
\*---------------------------------------------------------------------------*/
FoamFile
{
    version     2.0;
    format      ascii;
    class       volScalarField;
    location    "0.0002";
    object      Qdot;
}
// * * * * * * * * * * * * * * * * * * * * * * * * * * * * * * * * * * * * * //

dimensions      [1 -1 -3 0 0 0 0];

internalField   nonuniform List<scalar> 
126
(
-2.64409e-27
-2.64423e-27
-2.64439e-27
-2.64456e-27
-2.64473e-27
-2.6449e-27
-2.64508e-27
-2.64526e-27
-2.64545e-27
-2.64565e-27
-2.64587e-27
-2.6461e-27
-2.64634e-27
-2.64659e-27
-2.64684e-27
-2.6471e-27
-2.64735e-27
-2.6476e-27
-2.64785e-27
-2.64808e-27
-2.64831e-27
-2.64853e-27
-2.64874e-27
-2.64894e-27
-2.64914e-27
-2.64933e-27
-2.64951e-27
-2.64968e-27
-2.64985e-27
-2.65001e-27
-2.65016e-27
-2.6503e-27
-2.65044e-27
-2.65056e-27
-2.65068e-27
-2.65078e-27
-2.65088e-27
-2.65096e-27
-2.65103e-27
-2.65109e-27
-2.65113e-27
-2.65116e-27
-2.65117e-27
-2.65116e-27
-2.65114e-27
-2.6511e-27
-2.65105e-27
-2.65097e-27
-2.65087e-27
-2.65075e-27
-2.65061e-27
-2.65044e-27
-2.65026e-27
-2.65004e-27
-2.6498e-27
-2.64954e-27
-2.64924e-27
-2.64892e-27
-2.64857e-27
-2.64819e-27
-2.64777e-27
-2.64733e-27
-2.64685e-27
-2.64633e-27
-2.64578e-27
-2.6452e-27
-2.64458e-27
-2.64392e-27
-2.64322e-27
-2.64248e-27
-2.64171e-27
-2.64089e-27
-2.64003e-27
-2.63913e-27
-2.63818e-27
-2.6372e-27
-2.63617e-27
-2.63509e-27
-2.63397e-27
-2.63281e-27
-2.6316e-27
-2.63034e-27
-2.62904e-27
-2.62769e-27
-2.6263e-27
-2.62486e-27
-2.62338e-27
-2.62185e-27
-2.62027e-27
-2.61865e-27
-2.61699e-27
-2.61528e-27
-2.61353e-27
-2.61173e-27
-2.6099e-27
-2.60802e-27
-2.60611e-27
-2.60415e-27
-2.60216e-27
-2.6001e-27
-2.59786e-27
-2.59462e-27
-2.58504e-27
-2.53491e-27
-2.22698e-27
-2.97472e-28
1.17199e-26
8.57826e-26
5.37046e-25
3.25453e-24
1.94249e-23
1.14488e-22
6.66528e-22
3.83275e-21
2.17664e-20
1.22068e-19
6.75978e-19
3.69619e-18
1.99556e-17
1.06383e-16
5.60033e-16
2.9116e-15
1.4952e-14
7.58594e-14
3.8035e-13
1.88524e-12
)
;

boundaryField
{
    boundary
    {
        type            empty;
    }
    inlet
    {
        type            calculated;
        value           nonuniform 0();
    }
    outlet
    {
        type            calculated;
        value           nonuniform 0();
    }
    procBoundary3to1
    {
        type            processor;
        value           uniform 0;
    }
    procBoundary3to2
    {
        type            processor;
        value           uniform 0;
    }
}


// ************************************************************************* //
