/*--------------------------------*- C++ -*----------------------------------*\
  =========                 |
  \\      /  F ield         | OpenFOAM: The Open Source CFD Toolbox
   \\    /   O peration     | Website:  https://openfoam.org
    \\  /    A nd           | Version:  7
     \\/     M anipulation  |
\*---------------------------------------------------------------------------*/
FoamFile
{
    version     2.0;
    format      ascii;
    class       surfaceScalarField;
    location    "0.00068";
    object      phi;
}
// * * * * * * * * * * * * * * * * * * * * * * * * * * * * * * * * * * * * * //

dimensions      [1 0 -1 0 0 0 0];

internalField   nonuniform List<scalar> 
124
(
6.9208e-06
6.92097e-06
6.92115e-06
6.92134e-06
6.92152e-06
6.92171e-06
6.9219e-06
6.92209e-06
6.92228e-06
6.92247e-06
6.92267e-06
6.92287e-06
6.92307e-06
6.92327e-06
6.92347e-06
6.92367e-06
6.92387e-06
6.92409e-06
6.92433e-06
6.92466e-06
6.92526e-06
6.92665e-06
6.9304e-06
6.94074e-06
6.96685e-06
7.01662e-06
7.07606e-06
7.12278e-06
7.15331e-06
7.17339e-06
7.18726e-06
7.19686e-06
7.20274e-06
7.2069e-06
7.21087e-06
7.21431e-06
7.21698e-06
7.21914e-06
7.22094e-06
7.22248e-06
7.2238e-06
7.22497e-06
7.226e-06
7.22693e-06
7.22776e-06
7.22851e-06
7.2292e-06
7.22982e-06
7.23038e-06
7.23089e-06
7.23135e-06
7.23177e-06
7.23215e-06
7.2325e-06
7.23281e-06
7.23309e-06
7.23335e-06
7.23359e-06
7.23382e-06
7.23403e-06
7.23422e-06
7.2344e-06
7.23457e-06
7.23474e-06
7.23491e-06
7.23507e-06
7.23523e-06
7.23538e-06
7.23554e-06
7.2357e-06
7.23585e-06
7.236e-06
7.23615e-06
7.2363e-06
7.23644e-06
7.23658e-06
7.23672e-06
7.23686e-06
7.23699e-06
7.23712e-06
7.23725e-06
7.23738e-06
7.2375e-06
7.23762e-06
7.23773e-06
7.23785e-06
7.23796e-06
7.23806e-06
7.23817e-06
7.23827e-06
7.23837e-06
7.23847e-06
7.23856e-06
7.23865e-06
7.23874e-06
7.23883e-06
7.23892e-06
7.23901e-06
7.23909e-06
7.23917e-06
7.23925e-06
7.23933e-06
7.23941e-06
7.23949e-06
7.23956e-06
7.23964e-06
7.23971e-06
7.23979e-06
7.23986e-06
7.23993e-06
7.24e-06
7.24007e-06
7.24014e-06
7.24021e-06
7.24028e-06
7.24035e-06
7.24042e-06
7.24048e-06
7.24055e-06
7.24062e-06
7.24068e-06
7.24075e-06
7.24081e-06
7.24088e-06
)
;

boundaryField
{
    boundary
    {
        type            empty;
        value           nonuniform 0();
    }
    inlet
    {
        type            calculated;
        value           nonuniform 0();
    }
    outlet
    {
        type            calculated;
        value           nonuniform 0();
    }
    procBoundary1to0
    {
        type            processor;
        value           uniform 7.24094e-06;
    }
    procBoundary1to3
    {
        type            processor;
        value           uniform -6.92062e-06;
    }
}


// ************************************************************************* //
