/*--------------------------------*- C++ -*----------------------------------*\
  =========                 |
  \\      /  F ield         | OpenFOAM: The Open Source CFD Toolbox
   \\    /   O peration     | Website:  https://openfoam.org
    \\  /    A nd           | Version:  7
     \\/     M anipulation  |
\*---------------------------------------------------------------------------*/
FoamFile
{
    version     2.0;
    format      ascii;
    class       volScalarField;
    location    "0.00068";
    object      Qdot;
}
// * * * * * * * * * * * * * * * * * * * * * * * * * * * * * * * * * * * * * //

dimensions      [1 -1 -3 0 0 0 0];

internalField   nonuniform List<scalar> 
125
(
1.09924e-09
3.88983e-09
1.42463e-08
5.41571e-08
2.1349e-07
8.69559e-07
3.64072e-06
1.55824e-05
6.78345e-05
0.000299052
0.00133113
0.00596958
0.0269412
0.122335
0.559346
2.58008
12.0465
59.2364
318.127
2017.11
15104.8
120470
1.08622e+06
1.03244e+07
9.62127e+07
7.63539e+08
3.78405e+09
9.47657e+09
1.31079e+10
1.38632e+10
1.39185e+10
1.38432e+10
1.31332e+10
1.15549e+10
9.58e+09
7.81856e+09
6.42895e+09
5.35992e+09
4.54684e+09
3.92245e+09
3.43447e+09
3.04543e+09
2.72919e+09
2.46747e+09
2.24753e+09
2.06015e+09
1.89866e+09
1.7581e+09
1.63468e+09
1.52552e+09
1.42832e+09
1.34127e+09
1.26292e+09
1.19207e+09
1.12774e+09
1.06911e+09
1.01548e+09
9.66285e+08
9.21031e+08
8.79312e+08
8.40837e+08
8.06213e+08
7.74516e+08
7.44706e+08
7.1673e+08
6.90408e+08
6.65607e+08
6.42192e+08
6.20063e+08
5.99123e+08
5.79281e+08
5.60459e+08
5.42583e+08
5.2559e+08
5.09418e+08
4.94013e+08
4.79324e+08
4.65305e+08
4.51916e+08
4.39115e+08
4.26869e+08
4.15144e+08
4.03908e+08
3.93135e+08
3.82798e+08
3.72873e+08
3.63337e+08
3.54168e+08
3.45349e+08
3.3686e+08
3.28684e+08
3.20806e+08
3.1321e+08
3.05884e+08
2.98812e+08
2.91984e+08
2.85388e+08
2.79013e+08
2.72848e+08
2.66885e+08
2.61114e+08
2.55527e+08
2.50116e+08
2.44873e+08
2.39791e+08
2.34863e+08
2.30083e+08
2.25444e+08
2.20942e+08
2.1657e+08
2.12323e+08
2.08197e+08
2.04187e+08
2.00288e+08
1.96496e+08
1.92807e+08
1.89218e+08
1.85724e+08
1.82323e+08
1.7901e+08
1.75784e+08
1.72641e+08
1.69578e+08
1.66597e+08
1.63694e+08
)
;

boundaryField
{
    boundary
    {
        type            empty;
    }
    inlet
    {
        type            calculated;
        value           nonuniform 0();
    }
    outlet
    {
        type            calculated;
        value           nonuniform 0();
    }
    procBoundary1to0
    {
        type            processor;
        value           uniform 0;
    }
    procBoundary1to3
    {
        type            processor;
        value           uniform 0;
    }
}


// ************************************************************************* //
