/*--------------------------------*- C++ -*----------------------------------*\
  =========                 |
  \\      /  F ield         | OpenFOAM: The Open Source CFD Toolbox
   \\    /   O peration     | Website:  https://openfoam.org
    \\  /    A nd           | Version:  7
     \\/     M anipulation  |
\*---------------------------------------------------------------------------*/
FoamFile
{
    version     2.0;
    format      ascii;
    class       volVectorField;
    location    "0.00068";
    object      U;
}
// * * * * * * * * * * * * * * * * * * * * * * * * * * * * * * * * * * * * * //

dimensions      [0 1 -1 0 0 0 0];

internalField   nonuniform List<vector> 
125
(
(2.35733 0 0)
(2.35737 0 0)
(2.35741 0 0)
(2.35745 0 0)
(2.3575 0 0)
(2.35754 0 0)
(2.35759 0 0)
(2.35763 0 0)
(2.35767 0 0)
(2.35772 0 0)
(2.35776 0 0)
(2.35781 0 0)
(2.35785 0 0)
(2.35789 0 0)
(2.35794 0 0)
(2.35799 0 0)
(2.35804 0 0)
(2.35814 0 0)
(2.35839 0 0)
(2.35911 0 0)
(2.36129 0 0)
(2.36775 0 0)
(2.3857 0 0)
(2.43156 0 0)
(2.54095 0 0)
(2.78997 0 0)
(3.31694 0 0)
(4.25366 0 0)
(5.45217 0 0)
(6.68048 0 0)
(7.80448 0 0)
(8.78918 0 0)
(9.62912 0 0)
(10.3302 0 0)
(10.9061 0 0)
(11.3685 0 0)
(11.7373 0 0)
(12.0396 0 0)
(12.296 0 0)
(12.518 0 0)
(12.7128 0 0)
(12.8856 0 0)
(13.0404 0 0)
(13.1803 0 0)
(13.3078 0 0)
(13.4245 0 0)
(13.5321 0 0)
(13.6316 0 0)
(13.7241 0 0)
(13.8103 0 0)
(13.891 0 0)
(13.9666 0 0)
(14.0379 0 0)
(14.105 0 0)
(14.1685 0 0)
(14.2286 0 0)
(14.2856 0 0)
(14.3398 0 0)
(14.3914 0 0)
(14.4404 0 0)
(14.4872 0 0)
(14.5307 0 0)
(14.5714 0 0)
(14.6108 0 0)
(14.6489 0 0)
(14.6856 0 0)
(14.7212 0 0)
(14.7556 0 0)
(14.789 0 0)
(14.8213 0 0)
(14.8527 0 0)
(14.8831 0 0)
(14.9126 0 0)
(14.9414 0 0)
(14.9693 0 0)
(14.9965 0 0)
(15.0229 0 0)
(15.0487 0 0)
(15.0738 0 0)
(15.0982 0 0)
(15.1221 0 0)
(15.1454 0 0)
(15.1681 0 0)
(15.1903 0 0)
(15.212 0 0)
(15.2332 0 0)
(15.2539 0 0)
(15.2742 0 0)
(15.294 0 0)
(15.3134 0 0)
(15.3324 0 0)
(15.351 0 0)
(15.3692 0 0)
(15.387 0 0)
(15.4045 0 0)
(15.4217 0 0)
(15.4385 0 0)
(15.455 0 0)
(15.4712 0 0)
(15.487 0 0)
(15.5026 0 0)
(15.5179 0 0)
(15.533 0 0)
(15.5478 0 0)
(15.5623 0 0)
(15.5765 0 0)
(15.5906 0 0)
(15.6043 0 0)
(15.6179 0 0)
(15.6312 0 0)
(15.6444 0 0)
(15.6573 0 0)
(15.67 0 0)
(15.6825 0 0)
(15.6948 0 0)
(15.7069 0 0)
(15.7188 0 0)
(15.7306 0 0)
(15.7422 0 0)
(15.7536 0 0)
(15.7648 0 0)
(15.7759 0 0)
(15.7868 0 0)
(15.7976 0 0)
(15.8081 0 0)
)
;

boundaryField
{
    boundary
    {
        type            empty;
    }
    inlet
    {
        type            fixedValue;
        value           nonuniform 0();
    }
    outlet
    {
        type            zeroGradient;
    }
    procBoundary1to0
    {
        type            processor;
        value           uniform (15.8186 0 0);
    }
    procBoundary1to3
    {
        type            processor;
        value           uniform (2.35729 0 0);
    }
}


// ************************************************************************* //
