/*--------------------------------*- C++ -*----------------------------------*\
  =========                 |
  \\      /  F ield         | OpenFOAM: The Open Source CFD Toolbox
   \\    /   O peration     | Website:  https://openfoam.org
    \\  /    A nd           | Version:  7
     \\/     M anipulation  |
\*---------------------------------------------------------------------------*/
FoamFile
{
    version     2.0;
    format      ascii;
    class       volScalarField;
    location    "8e-05";
    object      H;
}
// * * * * * * * * * * * * * * * * * * * * * * * * * * * * * * * * * * * * * //

dimensions      [0 0 0 0 0 0 0];

internalField   nonuniform List<scalar> 
126
(
3.26094e-41
3.26116e-41
3.26155e-41
3.26207e-41
3.26263e-41
3.26318e-41
3.26368e-41
3.26413e-41
3.26453e-41
3.2649e-41
3.26524e-41
3.26556e-41
3.26587e-41
3.26617e-41
3.26645e-41
3.26672e-41
3.26698e-41
3.26723e-41
3.26746e-41
3.26769e-41
3.26789e-41
3.26809e-41
3.26826e-41
3.26842e-41
3.26857e-41
3.26869e-41
3.2688e-41
3.26889e-41
3.26895e-41
3.269e-41
3.26902e-41
3.26903e-41
3.269e-41
3.26896e-41
3.26889e-41
3.26879e-41
3.26866e-41
3.26851e-41
3.26832e-41
3.26811e-41
3.26786e-41
3.26758e-41
3.26727e-41
3.26692e-41
3.26653e-41
3.26611e-41
3.26565e-41
3.26515e-41
3.26461e-41
3.26402e-41
3.2634e-41
3.26273e-41
3.26201e-41
3.26125e-41
3.26043e-41
3.25957e-41
3.25866e-41
3.2577e-41
3.25669e-41
3.25562e-41
3.2545e-41
3.25332e-41
3.25208e-41
3.25079e-41
3.24944e-41
3.24804e-41
3.24657e-41
3.24504e-41
3.24345e-41
3.2418e-41
3.24008e-41
3.23831e-41
3.23647e-41
3.23457e-41
3.2326e-41
3.23057e-41
3.22848e-41
3.22632e-41
3.2241e-41
3.22182e-41
3.21948e-41
3.21707e-41
3.21461e-41
3.21208e-41
3.20949e-41
3.20684e-41
3.20414e-41
3.20138e-41
3.19857e-41
3.1957e-41
3.19278e-41
3.1898e-41
3.18678e-41
3.18372e-41
3.1806e-41
3.17745e-41
3.17425e-41
3.17102e-41
3.16774e-41
3.16444e-41
3.1611e-41
3.15772e-41
3.15432e-41
3.1509e-41
3.14745e-41
3.14398e-41
3.14055e-41
3.13744e-41
3.13672e-41
3.15276e-41
3.28583e-41
4.23547e-41
1.08851e-40
5.73319e-40
3.81683e-39
2.64662e-38
1.84599e-37
1.2882e-36
8.98472e-36
6.2602e-35
4.35533e-34
3.02377e-33
2.0935e-32
1.4443e-31
9.92107e-31
6.78008e-30
)
;

boundaryField
{
    boundary
    {
        type            empty;
    }
    inlet
    {
        type            fixedValue;
        value           nonuniform 0();
    }
    outlet
    {
        type            zeroGradient;
    }
    procBoundary3to1
    {
        type            processor;
        value           uniform 4.62018e-29;
    }
    procBoundary3to2
    {
        type            processor;
        value           uniform 3.26086e-41;
    }
}


// ************************************************************************* //
