/*--------------------------------*- C++ -*----------------------------------*\
  =========                 |
  \\      /  F ield         | OpenFOAM: The Open Source CFD Toolbox
   \\    /   O peration     | Website:  https://openfoam.org
    \\  /    A nd           | Version:  7
     \\/     M anipulation  |
\*---------------------------------------------------------------------------*/
FoamFile
{
    version     2.0;
    format      ascii;
    class       volScalarField;
    location    "8e-05";
    object      H2O;
}
// * * * * * * * * * * * * * * * * * * * * * * * * * * * * * * * * * * * * * //

dimensions      [0 0 0 0 0 0 0];

internalField   nonuniform List<scalar> 
126
(
1.35586e-46
1.36105e-46
1.36798e-46
1.37588e-46
1.38361e-46
1.39025e-46
1.3954e-46
1.39906e-46
1.40148e-46
1.403e-46
1.40391e-46
1.40445e-46
1.40478e-46
1.40498e-46
1.40513e-46
1.40525e-46
1.40534e-46
1.40543e-46
1.40552e-46
1.4056e-46
1.40567e-46
1.40575e-46
1.40581e-46
1.40588e-46
1.40594e-46
1.40599e-46
1.40604e-46
1.40608e-46
1.40612e-46
1.40615e-46
1.40617e-46
1.40619e-46
1.40619e-46
1.40619e-46
1.40618e-46
1.40616e-46
1.40613e-46
1.4061e-46
1.40605e-46
1.40598e-46
1.40591e-46
1.40582e-46
1.40573e-46
1.40561e-46
1.40549e-46
1.40534e-46
1.40519e-46
1.40501e-46
1.40482e-46
1.40461e-46
1.40439e-46
1.40414e-46
1.40388e-46
1.4036e-46
1.40329e-46
1.40297e-46
1.40262e-46
1.40225e-46
1.40186e-46
1.40145e-46
1.40101e-46
1.40054e-46
1.40006e-46
1.39954e-46
1.399e-46
1.39843e-46
1.39784e-46
1.39722e-46
1.39656e-46
1.39589e-46
1.39518e-46
1.39444e-46
1.39367e-46
1.39288e-46
1.39205e-46
1.3912e-46
1.39031e-46
1.3894e-46
1.38845e-46
1.38747e-46
1.38647e-46
1.38543e-46
1.38436e-46
1.38327e-46
1.38214e-46
1.38099e-46
1.37981e-46
1.37859e-46
1.37736e-46
1.37609e-46
1.3748e-46
1.37348e-46
1.37213e-46
1.37077e-46
1.36937e-46
1.36796e-46
1.36652e-46
1.36506e-46
1.36358e-46
1.36208e-46
1.36056e-46
1.35903e-46
1.35753e-46
1.35647e-46
1.35986e-46
1.40889e-46
1.93741e-46
7.5508e-46
6.71053e-45
6.95795e-44
7.27768e-43
7.54902e-42
7.74775e-41
7.86613e-40
7.90438e-39
7.8687e-38
7.76916e-37
7.61687e-36
7.42075e-35
7.18471e-34
6.90626e-33
6.57777e-32
6.19115e-31
5.74513e-30
5.25223e-29
4.74018e-28
)
;

boundaryField
{
    boundary
    {
        type            empty;
    }
    inlet
    {
        type            fixedValue;
        value           nonuniform 0();
    }
    outlet
    {
        type            zeroGradient;
    }
    procBoundary3to1
    {
        type            processor;
        value           uniform 5.15483e-27;
    }
    procBoundary3to2
    {
        type            processor;
        value           uniform 1.38266e-46;
    }
}


// ************************************************************************* //
