/*--------------------------------*- C++ -*----------------------------------*\
  =========                 |
  \\      /  F ield         | OpenFOAM: The Open Source CFD Toolbox
   \\    /   O peration     | Website:  https://openfoam.org
    \\  /    A nd           | Version:  7
     \\/     M anipulation  |
\*---------------------------------------------------------------------------*/
FoamFile
{
    version     2.0;
    format      ascii;
    class       volScalarField;
    location    "8e-05";
    object      H2O2;
}
// * * * * * * * * * * * * * * * * * * * * * * * * * * * * * * * * * * * * * //

dimensions      [0 0 0 0 0 0 0];

internalField   nonuniform List<scalar> 
126
(
4.35296e-51
4.37432e-51
4.40531e-51
4.44155e-51
4.47718e-51
4.50756e-51
4.53062e-51
4.54653e-51
4.55668e-51
4.56279e-51
4.56633e-51
4.56837e-51
4.5696e-51
4.5704e-51
4.57099e-51
4.57148e-51
4.57192e-51
4.57233e-51
4.57272e-51
4.57311e-51
4.57347e-51
4.57383e-51
4.57417e-51
4.5745e-51
4.57481e-51
4.5751e-51
4.57537e-51
4.57563e-51
4.57586e-51
4.57607e-51
4.57625e-51
4.57641e-51
4.57654e-51
4.57664e-51
4.57671e-51
4.57675e-51
4.57675e-51
4.57672e-51
4.57665e-51
4.57654e-51
4.57638e-51
4.57619e-51
4.57594e-51
4.57565e-51
4.57531e-51
4.57492e-51
4.57447e-51
4.57397e-51
4.5734e-51
4.57278e-51
4.57209e-51
4.57134e-51
4.57052e-51
4.56963e-51
4.56867e-51
4.56764e-51
4.56653e-51
4.56534e-51
4.56407e-51
4.56271e-51
4.56128e-51
4.55975e-51
4.55814e-51
4.55644e-51
4.55464e-51
4.55275e-51
4.55077e-51
4.54869e-51
4.54651e-51
4.54422e-51
4.54184e-51
4.53936e-51
4.53677e-51
4.53407e-51
4.53128e-51
4.52837e-51
4.52536e-51
4.52224e-51
4.51902e-51
4.51569e-51
4.51225e-51
4.50871e-51
4.50506e-51
4.50131e-51
4.49745e-51
4.49349e-51
4.48943e-51
4.48527e-51
4.48101e-51
4.47665e-51
4.4722e-51
4.46766e-51
4.46303e-51
4.45831e-51
4.4535e-51
4.44862e-51
4.44365e-51
4.4386e-51
4.43349e-51
4.4283e-51
4.42304e-51
4.41772e-51
4.41235e-51
4.40694e-51
4.40165e-51
4.39755e-51
4.40328e-51
4.50698e-51
5.82616e-51
2.4627e-50
3.12759e-49
4.84548e-48
7.63988e-47
1.19923e-45
1.86482e-44
2.86766e-43
4.35753e-42
6.54021e-41
9.6923e-40
1.41766e-38
2.04558e-37
2.91017e-36
4.07971e-35
5.63271e-34
7.65556e-33
1.02377e-31
)
;

boundaryField
{
    boundary
    {
        type            empty;
    }
    inlet
    {
        type            fixedValue;
        value           nonuniform 0();
    }
    outlet
    {
        type            zeroGradient;
    }
    procBoundary3to1
    {
        type            processor;
        value           uniform 1.73684e-30;
    }
    procBoundary3to2
    {
        type            processor;
        value           uniform 4.47717e-51;
    }
}


// ************************************************************************* //
