/*--------------------------------*- C++ -*----------------------------------*\
  =========                 |
  \\      /  F ield         | OpenFOAM: The Open Source CFD Toolbox
   \\    /   O peration     | Website:  https://openfoam.org
    \\  /    A nd           | Version:  7
     \\/     M anipulation  |
\*---------------------------------------------------------------------------*/
FoamFile
{
    version     2.0;
    format      ascii;
    class       volScalarField;
    location    "8e-05";
    object      HO2;
}
// * * * * * * * * * * * * * * * * * * * * * * * * * * * * * * * * * * * * * //

dimensions      [0 0 0 0 0 0 0];

internalField   nonuniform List<scalar> 
126
(
5.10873e-37
5.12306e-37
5.14287e-37
5.16542e-37
5.18721e-37
5.20559e-37
5.21942e-37
5.2289e-37
5.23489e-37
5.23845e-37
5.24047e-37
5.2416e-37
5.24223e-37
5.24261e-37
5.24286e-37
5.24305e-37
5.2432e-37
5.24334e-37
5.24346e-37
5.24357e-37
5.24366e-37
5.24375e-37
5.24382e-37
5.24387e-37
5.24391e-37
5.24393e-37
5.24394e-37
5.24393e-37
5.2439e-37
5.24384e-37
5.24377e-37
5.24367e-37
5.24355e-37
5.2434e-37
5.24322e-37
5.24302e-37
5.24278e-37
5.24251e-37
5.24221e-37
5.24188e-37
5.24151e-37
5.2411e-37
5.24065e-37
5.24016e-37
5.23962e-37
5.23904e-37
5.23842e-37
5.23774e-37
5.23702e-37
5.23625e-37
5.23542e-37
5.23453e-37
5.23359e-37
5.23259e-37
5.23153e-37
5.23041e-37
5.22922e-37
5.22797e-37
5.22665e-37
5.22526e-37
5.2238e-37
5.22226e-37
5.22065e-37
5.21897e-37
5.21721e-37
5.21537e-37
5.21345e-37
5.21145e-37
5.20937e-37
5.20721e-37
5.20496e-37
5.20262e-37
5.2002e-37
5.1977e-37
5.1951e-37
5.19242e-37
5.18965e-37
5.1868e-37
5.18385e-37
5.18082e-37
5.1777e-37
5.17449e-37
5.1712e-37
5.16782e-37
5.16435e-37
5.1608e-37
5.15717e-37
5.15345e-37
5.14966e-37
5.14579e-37
5.14184e-37
5.13781e-37
5.13371e-37
5.12955e-37
5.12531e-37
5.121e-37
5.11664e-37
5.11221e-37
5.10772e-37
5.10318e-37
5.09858e-37
5.09393e-37
5.08924e-37
5.08452e-37
5.07988e-37
5.07599e-37
5.07687e-37
5.10729e-37
5.31935e-37
6.64466e-37
1.47689e-36
6.42081e-36
3.63003e-35
2.15382e-34
1.27803e-33
7.51256e-33
4.3655e-32
2.50749e-31
1.42532e-30
8.03552e-30
4.50607e-29
2.52065e-28
1.40963e-27
7.88985e-27
4.42115e-26
2.48024e-25
)
;

boundaryField
{
    boundary
    {
        type            empty;
    }
    inlet
    {
        type            fixedValue;
        value           nonuniform 0();
    }
    outlet
    {
        type            zeroGradient;
    }
    procBoundary3to1
    {
        type            processor;
        value           uniform 1.45109e-24;
    }
    procBoundary3to2
    {
        type            processor;
        value           uniform 5.1858e-37;
    }
}


// ************************************************************************* //
