/*--------------------------------*- C++ -*----------------------------------*\
  =========                 |
  \\      /  F ield         | OpenFOAM: The Open Source CFD Toolbox
   \\    /   O peration     | Website:  https://openfoam.org
    \\  /    A nd           | Version:  7
     \\/     M anipulation  |
\*---------------------------------------------------------------------------*/
FoamFile
{
    version     2.0;
    format      ascii;
    class       volScalarField;
    location    "8e-05";
    object      O;
}
// * * * * * * * * * * * * * * * * * * * * * * * * * * * * * * * * * * * * * //

dimensions      [0 0 0 0 0 0 0];

internalField   nonuniform List<scalar> 
126
(
1.72476e-46
1.71744e-46
1.71828e-46
1.72385e-46
1.73073e-46
1.73696e-46
1.7418e-46
1.74521e-46
1.74745e-46
1.74884e-46
1.74967e-46
1.75016e-46
1.75045e-46
1.75063e-46
1.75074e-46
1.75082e-46
1.75088e-46
1.75093e-46
1.75097e-46
1.751e-46
1.75103e-46
1.75105e-46
1.75107e-46
1.75108e-46
1.75109e-46
1.75108e-46
1.75107e-46
1.75105e-46
1.75103e-46
1.75099e-46
1.75094e-46
1.75089e-46
1.75082e-46
1.75074e-46
1.75065e-46
1.75054e-46
1.75042e-46
1.75029e-46
1.75015e-46
1.74999e-46
1.74981e-46
1.74962e-46
1.7494e-46
1.74917e-46
1.74893e-46
1.74866e-46
1.74837e-46
1.74806e-46
1.74773e-46
1.74738e-46
1.747e-46
1.7466e-46
1.74617e-46
1.74572e-46
1.74524e-46
1.74474e-46
1.7442e-46
1.74364e-46
1.74305e-46
1.74243e-46
1.74178e-46
1.74109e-46
1.74038e-46
1.73963e-46
1.73884e-46
1.73803e-46
1.73718e-46
1.73629e-46
1.73537e-46
1.73441e-46
1.73341e-46
1.73238e-46
1.73132e-46
1.73021e-46
1.72907e-46
1.72789e-46
1.72667e-46
1.72541e-46
1.72412e-46
1.72278e-46
1.72141e-46
1.72001e-46
1.71856e-46
1.71708e-46
1.71556e-46
1.71401e-46
1.71242e-46
1.7108e-46
1.70914e-46
1.70745e-46
1.70572e-46
1.70397e-46
1.70218e-46
1.70036e-46
1.69852e-46
1.69664e-46
1.69474e-46
1.69282e-46
1.69087e-46
1.68889e-46
1.68691e-46
1.68496e-46
1.68348e-46
1.68627e-46
1.72876e-46
2.15724e-46
6.44814e-46
4.99572e-45
4.9345e-44
5.00709e-43
5.0668e-42
5.08507e-41
5.05093e-40
4.9601e-39
4.8134e-38
4.61596e-37
4.37631e-36
4.10496e-35
3.81272e-34
3.50865e-33
3.19831e-32
2.8829e-31
2.56014e-30
2.2273e-29
1.88612e-28
1.54689e-27
)
;

boundaryField
{
    boundary
    {
        type            empty;
    }
    inlet
    {
        type            fixedValue;
        value           nonuniform 0();
    }
    outlet
    {
        type            zeroGradient;
    }
    procBoundary3to1
    {
        type            processor;
        value           uniform 1.19138e-26;
    }
    procBoundary3to2
    {
        type            processor;
        value           uniform 1.73436e-46;
    }
}


// ************************************************************************* //
