/*--------------------------------*- C++ -*----------------------------------*\
  =========                 |
  \\      /  F ield         | OpenFOAM: The Open Source CFD Toolbox
   \\    /   O peration     | Website:  https://openfoam.org
    \\  /    A nd           | Version:  7
     \\/     M anipulation  |
\*---------------------------------------------------------------------------*/
FoamFile
{
    version     2.0;
    format      ascii;
    class       volScalarField;
    location    "8e-05";
    object      OH;
}
// * * * * * * * * * * * * * * * * * * * * * * * * * * * * * * * * * * * * * //

dimensions      [0 0 0 0 0 0 0];

internalField   nonuniform List<scalar> 
126
(
5.45161e-47
5.44645e-47
5.44576e-47
5.44809e-47
5.45138e-47
5.45436e-47
5.45657e-47
5.45803e-47
5.45887e-47
5.45928e-47
5.45942e-47
5.45938e-47
5.45923e-47
5.45902e-47
5.45877e-47
5.45849e-47
5.45818e-47
5.45785e-47
5.4575e-47
5.45713e-47
5.45674e-47
5.45632e-47
5.45587e-47
5.4554e-47
5.4549e-47
5.45437e-47
5.45381e-47
5.45322e-47
5.45259e-47
5.45193e-47
5.45122e-47
5.45048e-47
5.4497e-47
5.44887e-47
5.448e-47
5.44708e-47
5.44612e-47
5.4451e-47
5.44403e-47
5.4429e-47
5.44171e-47
5.44047e-47
5.43916e-47
5.43779e-47
5.43635e-47
5.43485e-47
5.43327e-47
5.43162e-47
5.42989e-47
5.42809e-47
5.4262e-47
5.42423e-47
5.42218e-47
5.42004e-47
5.41781e-47
5.41548e-47
5.41307e-47
5.41055e-47
5.40794e-47
5.40523e-47
5.40241e-47
5.39949e-47
5.39646e-47
5.39333e-47
5.39008e-47
5.38672e-47
5.38325e-47
5.37966e-47
5.37596e-47
5.37214e-47
5.36821e-47
5.36415e-47
5.35997e-47
5.35568e-47
5.35126e-47
5.34672e-47
5.34207e-47
5.33729e-47
5.33239e-47
5.32737e-47
5.32224e-47
5.31698e-47
5.31162e-47
5.30613e-47
5.30054e-47
5.29483e-47
5.28901e-47
5.28309e-47
5.27707e-47
5.27094e-47
5.26471e-47
5.25839e-47
5.25198e-47
5.24548e-47
5.2389e-47
5.23224e-47
5.2255e-47
5.21869e-47
5.21181e-47
5.20486e-47
5.19787e-47
5.19089e-47
5.18461e-47
5.1861e-47
5.2703e-47
6.2338e-47
1.6511e-46
1.24682e-45
1.25144e-44
1.28571e-43
1.31005e-42
1.31986e-41
1.31505e-40
1.2968e-39
1.26695e-38
1.22759e-37
1.18058e-36
1.12715e-35
1.06768e-34
1.00167e-33
9.28159e-33
8.46407e-32
7.56753e-31
6.61282e-30
5.63877e-29
4.69424e-28
)
;

boundaryField
{
    boundary
    {
        type            empty;
    }
    inlet
    {
        type            fixedValue;
        value           nonuniform 0();
    }
    outlet
    {
        type            zeroGradient;
    }
    procBoundary3to1
    {
        type            processor;
        value           uniform 3.72266e-27;
    }
    procBoundary3to2
    {
        type            processor;
        value           uniform 5.45489e-47;
    }
}


// ************************************************************************* //
