/*--------------------------------*- C++ -*----------------------------------*\
  =========                 |
  \\      /  F ield         | OpenFOAM: The Open Source CFD Toolbox
   \\    /   O peration     | Website:  https://openfoam.org
    \\  /    A nd           | Version:  7
     \\/     M anipulation  |
\*---------------------------------------------------------------------------*/
FoamFile
{
    version     2.0;
    format      ascii;
    class       surfaceScalarField;
    location    "8e-05";
    object      phi;
}
// * * * * * * * * * * * * * * * * * * * * * * * * * * * * * * * * * * * * * //

dimensions      [1 0 -1 0 0 0 0];

internalField   nonuniform List<scalar> 
125
(
6.79116e-06
6.79366e-06
6.79616e-06
6.79866e-06
6.80116e-06
6.80367e-06
6.80618e-06
6.80869e-06
6.8112e-06
6.81371e-06
6.81622e-06
6.81872e-06
6.82121e-06
6.8237e-06
6.82617e-06
6.82863e-06
6.83108e-06
6.83352e-06
6.83594e-06
6.83834e-06
6.84073e-06
6.84309e-06
6.84543e-06
6.84775e-06
6.85005e-06
6.85233e-06
6.85457e-06
6.8568e-06
6.85899e-06
6.86115e-06
6.86328e-06
6.86539e-06
6.86746e-06
6.86949e-06
6.8715e-06
6.87346e-06
6.87539e-06
6.87729e-06
6.87914e-06
6.88096e-06
6.88274e-06
6.88448e-06
6.88618e-06
6.88783e-06
6.88944e-06
6.89101e-06
6.89254e-06
6.89402e-06
6.89546e-06
6.89685e-06
6.89819e-06
6.89949e-06
6.90074e-06
6.90194e-06
6.90309e-06
6.9042e-06
6.90525e-06
6.90626e-06
6.90722e-06
6.90812e-06
6.90898e-06
6.90978e-06
6.91053e-06
6.91123e-06
6.91187e-06
6.91247e-06
6.91301e-06
6.91349e-06
6.91393e-06
6.91431e-06
6.91463e-06
6.9149e-06
6.91512e-06
6.91528e-06
6.91538e-06
6.91544e-06
6.91543e-06
6.91537e-06
6.91526e-06
6.91508e-06
6.91486e-06
6.91457e-06
6.91423e-06
6.91384e-06
6.91338e-06
6.91288e-06
6.91231e-06
6.91169e-06
6.91101e-06
6.91028e-06
6.90948e-06
6.90864e-06
6.90773e-06
6.90677e-06
6.90575e-06
6.90468e-06
6.90354e-06
6.90236e-06
6.90111e-06
6.89981e-06
6.89845e-06
6.89703e-06
6.89556e-06
6.89403e-06
6.89244e-06
6.8908e-06
6.8891e-06
6.88734e-06
6.88553e-06
6.88366e-06
6.88173e-06
6.87974e-06
6.8777e-06
6.8756e-06
6.87344e-06
6.87123e-06
6.86896e-06
6.86663e-06
6.86424e-06
6.8618e-06
6.8593e-06
6.85674e-06
6.85413e-06
6.85145e-06
6.84873e-06
)
;

boundaryField
{
    boundary
    {
        type            empty;
        value           nonuniform 0();
    }
    inlet
    {
        type            calculated;
        value           nonuniform 0();
    }
    outlet
    {
        type            calculated;
        value           nonuniform 0();
    }
    procBoundary3to1
    {
        type            processor;
        value           uniform 6.84595e-06;
    }
    procBoundary3to2
    {
        type            processor;
        value           uniform -6.78867e-06;
    }
}


// ************************************************************************* //
