/*--------------------------------*- C++ -*----------------------------------*\
  =========                 |
  \\      /  F ield         | OpenFOAM: The Open Source CFD Toolbox
   \\    /   O peration     | Website:  https://openfoam.org
    \\  /    A nd           | Version:  7
     \\/     M anipulation  |
\*---------------------------------------------------------------------------*/
FoamFile
{
    version     2.0;
    format      ascii;
    class       volScalarField;
    location    "8e-05";
    object      Qdot;
}
// * * * * * * * * * * * * * * * * * * * * * * * * * * * * * * * * * * * * * //

dimensions      [1 -1 -3 0 0 0 0];

internalField   nonuniform List<scalar> 
126
(
-2.50716e-27
-2.50733e-27
-2.50768e-27
-2.50813e-27
-2.5086e-27
-2.50905e-27
-2.50946e-27
-2.50983e-27
-2.51017e-27
-2.51048e-27
-2.51079e-27
-2.51108e-27
-2.51136e-27
-2.51164e-27
-2.51191e-27
-2.51217e-27
-2.51243e-27
-2.51268e-27
-2.51293e-27
-2.51317e-27
-2.5134e-27
-2.51362e-27
-2.51383e-27
-2.51403e-27
-2.51423e-27
-2.51441e-27
-2.51458e-27
-2.51474e-27
-2.51489e-27
-2.51502e-27
-2.51514e-27
-2.51525e-27
-2.51534e-27
-2.51541e-27
-2.51547e-27
-2.51551e-27
-2.51553e-27
-2.51554e-27
-2.51552e-27
-2.51548e-27
-2.51542e-27
-2.51534e-27
-2.51524e-27
-2.51511e-27
-2.51496e-27
-2.51478e-27
-2.51457e-27
-2.51434e-27
-2.51408e-27
-2.51378e-27
-2.51346e-27
-2.5131e-27
-2.51272e-27
-2.51229e-27
-2.51184e-27
-2.51135e-27
-2.51082e-27
-2.51026e-27
-2.50965e-27
-2.50901e-27
-2.50833e-27
-2.50761e-27
-2.50684e-27
-2.50604e-27
-2.50519e-27
-2.5043e-27
-2.50336e-27
-2.50238e-27
-2.50135e-27
-2.50028e-27
-2.49916e-27
-2.49799e-27
-2.49678e-27
-2.49551e-27
-2.49421e-27
-2.49285e-27
-2.49144e-27
-2.48999e-27
-2.48849e-27
-2.48694e-27
-2.48535e-27
-2.48371e-27
-2.48202e-27
-2.48028e-27
-2.4785e-27
-2.47668e-27
-2.47481e-27
-2.4729e-27
-2.47095e-27
-2.46895e-27
-2.46692e-27
-2.46484e-27
-2.46273e-27
-2.46058e-27
-2.4584e-27
-2.45618e-27
-2.45394e-27
-2.45166e-27
-2.44935e-27
-2.44701e-27
-2.44465e-27
-2.44226e-27
-2.43985e-27
-2.43742e-27
-2.43497e-27
-2.43249e-27
-2.42995e-27
-2.42706e-27
-2.42188e-27
-2.40076e-27
-2.26868e-27
-1.36248e-27
4.95123e-27
4.90859e-26
3.58123e-25
2.52561e-24
1.77567e-23
1.25031e-22
8.82635e-22
6.25e-21
4.44079e-20
3.16614e-19
2.26393e-18
1.62167e-17
1.16175e-16
8.3096e-16
)
;

boundaryField
{
    boundary
    {
        type            empty;
    }
    inlet
    {
        type            calculated;
        value           nonuniform 0();
    }
    outlet
    {
        type            calculated;
        value           nonuniform 0();
    }
    procBoundary3to1
    {
        type            processor;
        value           uniform 0;
    }
    procBoundary3to2
    {
        type            processor;
        value           uniform 0;
    }
}


// ************************************************************************* //
