/*--------------------------------*- C++ -*----------------------------------*\
  =========                 |
  \\      /  F ield         | OpenFOAM: The Open Source CFD Toolbox
   \\    /   O peration     | Website:  https://openfoam.org
    \\  /    A nd           | Version:  7
     \\/     M anipulation  |
\*---------------------------------------------------------------------------*/
FoamFile
{
    version     2.0;
    format      ascii;
    class       volScalarField;
    location    "8e-05";
    object      T;
}
// * * * * * * * * * * * * * * * * * * * * * * * * * * * * * * * * * * * * * //

dimensions      [0 0 0 1 0 0 0];

internalField   nonuniform List<scalar> 
126
(
301.316
301.317
301.317
301.317
301.318
301.319
301.319
301.32
301.32
301.32
301.321
301.321
301.321
301.322
301.322
301.322
301.323
301.323
301.323
301.324
301.324
301.324
301.324
301.325
301.325
301.325
301.325
301.325
301.325
301.326
301.326
301.326
301.326
301.326
301.326
301.326
301.326
301.326
301.326
301.326
301.325
301.325
301.325
301.325
301.325
301.324
301.324
301.324
301.323
301.323
301.322
301.322
301.321
301.32
301.32
301.319
301.318
301.317
301.316
301.316
301.315
301.313
301.312
301.311
301.31
301.309
301.307
301.306
301.305
301.303
301.301
301.3
301.298
301.296
301.295
301.293
301.291
301.289
301.287
301.284
301.282
301.28
301.278
301.275
301.273
301.27
301.267
301.265
301.262
301.259
301.256
301.254
301.251
301.248
301.245
301.242
301.238
301.235
301.232
301.229
301.225
301.222
301.219
301.215
301.212
301.209
301.205
301.202
301.198
301.194
301.191
301.187
301.184
301.18
301.176
301.173
301.169
301.165
301.162
301.158
301.154
301.15
301.146
301.143
301.138
301.134
)
;

boundaryField
{
    boundary
    {
        type            empty;
    }
    inlet
    {
        type            fixedValue;
        value           nonuniform 0();
    }
    outlet
    {
        type            zeroGradient;
    }
    procBoundary3to1
    {
        type            processor;
        value           uniform 301.13;
    }
    procBoundary3to2
    {
        type            processor;
        value           uniform 301.316;
    }
}


// ************************************************************************* //
