/*--------------------------------*- C++ -*----------------------------------*\
  =========                 |
  \\      /  F ield         | OpenFOAM: The Open Source CFD Toolbox
   \\    /   O peration     | Website:  https://openfoam.org
    \\  /    A nd           | Version:  7
     \\/     M anipulation  |
\*---------------------------------------------------------------------------*/
FoamFile
{
    version     2.0;
    format      ascii;
    class       volVectorField;
    location    "8e-05";
    object      U;
}
// * * * * * * * * * * * * * * * * * * * * * * * * * * * * * * * * * * * * * //

dimensions      [0 1 -1 0 0 0 0];

internalField   nonuniform List<vector> 
126
(
(2.31699 0 0)
(2.31789 0 0)
(2.31878 0 0)
(2.31961 0 0)
(2.32044 0 0)
(2.3213 0 0)
(2.32217 0 0)
(2.32302 0 0)
(2.32388 0 0)
(2.32474 0 0)
(2.32559 0 0)
(2.32645 0 0)
(2.3273 0 0)
(2.32815 0 0)
(2.32899 0 0)
(2.32984 0 0)
(2.33068 0 0)
(2.33151 0 0)
(2.33234 0 0)
(2.33316 0 0)
(2.33398 0 0)
(2.33479 0 0)
(2.33559 0 0)
(2.33638 0 0)
(2.33717 0 0)
(2.33795 0 0)
(2.33872 0 0)
(2.33948 0 0)
(2.34023 0 0)
(2.34098 0 0)
(2.34171 0 0)
(2.34243 0 0)
(2.34314 0 0)
(2.34384 0 0)
(2.34453 0 0)
(2.3452 0 0)
(2.34586 0 0)
(2.34652 0 0)
(2.34715 0 0)
(2.34778 0 0)
(2.34839 0 0)
(2.34898 0 0)
(2.34957 0 0)
(2.35014 0 0)
(2.35069 0 0)
(2.35123 0 0)
(2.35176 0 0)
(2.35226 0 0)
(2.35275 0 0)
(2.35323 0 0)
(2.3537 0 0)
(2.35414 0 0)
(2.35457 0 0)
(2.35498 0 0)
(2.35538 0 0)
(2.35576 0 0)
(2.35612 0 0)
(2.35647 0 0)
(2.35679 0 0)
(2.35711 0 0)
(2.35739 0 0)
(2.35767 0 0)
(2.35794 0 0)
(2.35817 0 0)
(2.35838 0 0)
(2.35859 0 0)
(2.35878 0 0)
(2.35894 0 0)
(2.35909 0 0)
(2.35921 0 0)
(2.35932 0 0)
(2.35941 0 0)
(2.35948 0 0)
(2.35953 0 0)
(2.35957 0 0)
(2.35958 0 0)
(2.35958 0 0)
(2.35956 0 0)
(2.35951 0 0)
(2.35944 0 0)
(2.35936 0 0)
(2.35926 0 0)
(2.35914 0 0)
(2.359 0 0)
(2.35883 0 0)
(2.35865 0 0)
(2.35845 0 0)
(2.35823 0 0)
(2.35799 0 0)
(2.35773 0 0)
(2.35746 0 0)
(2.35716 0 0)
(2.35684 0 0)
(2.3565 0 0)
(2.35614 0 0)
(2.35577 0 0)
(2.35537 0 0)
(2.35495 0 0)
(2.35452 0 0)
(2.35406 0 0)
(2.35359 0 0)
(2.35309 0 0)
(2.35258 0 0)
(2.35204 0 0)
(2.3515 0 0)
(2.35092 0 0)
(2.35033 0 0)
(2.34971 0 0)
(2.34909 0 0)
(2.34844 0 0)
(2.34777 0 0)
(2.34708 0 0)
(2.34637 0 0)
(2.34564 0 0)
(2.34489 0 0)
(2.34412 0 0)
(2.34333 0 0)
(2.34253 0 0)
(2.34171 0 0)
(2.34086 0 0)
(2.33998 0 0)
(2.3391 0 0)
(2.3382 0 0)
(2.33728 0 0)
(2.33632 0 0)
(2.33534 0 0)
)
;

boundaryField
{
    boundary
    {
        type            empty;
    }
    inlet
    {
        type            fixedValue;
        value           nonuniform 0();
    }
    outlet
    {
        type            zeroGradient;
    }
    procBoundary3to1
    {
        type            processor;
        value           uniform (2.33434 0 0);
    }
    procBoundary3to2
    {
        type            processor;
        value           uniform (2.31617 0 0);
    }
}


// ************************************************************************* //
