/*--------------------------------*- C++ -*----------------------------------*\
  =========                 |
  \\      /  F ield         | OpenFOAM: The Open Source CFD Toolbox
   \\    /   O peration     | Website:  https://openfoam.org
    \\  /    A nd           | Version:  7
     \\/     M anipulation  |
\*---------------------------------------------------------------------------*/
FoamFile
{
    version     2.0;
    format      ascii;
    class       volScalarField;
    location    "0.00013";
    object      H;
}
// * * * * * * * * * * * * * * * * * * * * * * * * * * * * * * * * * * * * * //

dimensions      [0 0 0 0 0 0 0];

internalField   nonuniform List<scalar> 
500
(
1.50881e-41
2.07685e-41
2.23789e-41
2.32098e-41
2.39983e-41
2.4904e-41
2.59356e-41
2.70493e-41
2.81807e-41
2.92626e-41
3.02382e-41
3.10703e-41
3.17433e-41
3.22611e-41
3.26412e-41
3.29083e-41
3.30883e-41
3.32051e-41
3.32781e-41
3.33221e-41
3.33478e-41
3.33622e-41
3.33701e-41
3.33741e-41
3.33762e-41
3.3377e-41
3.33773e-41
3.33773e-41
3.33772e-41
3.3377e-41
3.33767e-41
3.33764e-41
3.33761e-41
3.33758e-41
3.33755e-41
3.33752e-41
3.33749e-41
3.33746e-41
3.33742e-41
3.33739e-41
3.33736e-41
3.33732e-41
3.33729e-41
3.33725e-41
3.33722e-41
3.33719e-41
3.33715e-41
3.33712e-41
3.33709e-41
3.33705e-41
3.33702e-41
3.33699e-41
3.33696e-41
3.33693e-41
3.33689e-41
3.33686e-41
3.33684e-41
3.33681e-41
3.33678e-41
3.33675e-41
3.33673e-41
3.3367e-41
3.33668e-41
3.33666e-41
3.33664e-41
3.33662e-41
3.3366e-41
3.33659e-41
3.33657e-41
3.33656e-41
3.33655e-41
3.33654e-41
3.33654e-41
3.33653e-41
3.33653e-41
3.33653e-41
3.33654e-41
3.33654e-41
3.33655e-41
3.33656e-41
3.33657e-41
3.33659e-41
3.33661e-41
3.33663e-41
3.33666e-41
3.33668e-41
3.33672e-41
3.33675e-41
3.33679e-41
3.33683e-41
3.33687e-41
3.33692e-41
3.33697e-41
3.33703e-41
3.33709e-41
3.33715e-41
3.33722e-41
3.33729e-41
3.33736e-41
3.33744e-41
3.33752e-41
3.3376e-41
3.33769e-41
3.33778e-41
3.33788e-41
3.33798e-41
3.33808e-41
3.33819e-41
3.3383e-41
3.33841e-41
3.33853e-41
3.33865e-41
3.33878e-41
3.33891e-41
3.33904e-41
3.33917e-41
3.33931e-41
3.33945e-41
3.33959e-41
3.33974e-41
3.33988e-41
3.34002e-41
3.34015e-41
3.34025e-41
3.34023e-41
3.34019e-41
3.34041e-41
3.34051e-41
3.3406e-41
3.3407e-41
3.34084e-41
3.34103e-41
3.34125e-41
3.3415e-41
3.34175e-41
3.342e-41
3.34225e-41
3.34247e-41
3.34268e-41
3.34286e-41
3.34304e-41
3.3432e-41
3.34335e-41
3.34349e-41
3.34363e-41
3.34376e-41
3.34388e-41
3.34399e-41
3.34409e-41
3.34419e-41
3.34428e-41
3.34435e-41
3.34442e-41
3.34447e-41
3.34451e-41
3.34454e-41
3.34455e-41
3.34455e-41
3.34454e-41
3.3445e-41
3.34445e-41
3.34438e-41
3.34429e-41
3.34418e-41
3.34405e-41
3.3439e-41
3.34372e-41
3.34352e-41
3.34329e-41
3.34303e-41
3.34275e-41
3.34244e-41
3.34209e-41
3.34172e-41
3.34131e-41
3.34086e-41
3.34039e-41
3.33987e-41
3.33932e-41
3.33872e-41
3.33809e-41
3.33742e-41
3.3367e-41
3.33594e-41
3.33513e-41
3.33428e-41
3.33338e-41
3.33243e-41
3.33144e-41
3.33039e-41
3.32929e-41
3.32813e-41
3.32693e-41
3.32567e-41
3.32435e-41
3.32298e-41
3.32155e-41
3.32006e-41
3.31852e-41
3.31691e-41
3.31525e-41
3.31353e-41
3.31175e-41
3.30991e-41
3.30801e-41
3.30605e-41
3.30403e-41
3.30195e-41
3.29982e-41
3.29762e-41
3.29537e-41
3.29306e-41
3.29069e-41
3.28827e-41
3.2858e-41
3.28327e-41
3.28068e-41
3.27805e-41
3.27537e-41
3.27264e-41
3.26987e-41
3.26705e-41
3.26419e-41
3.26129e-41
3.25835e-41
3.25537e-41
3.25236e-41
3.24932e-41
3.24625e-41
3.24324e-41
3.24078e-41
3.24245e-41
3.27385e-41
3.51757e-41
5.26691e-41
1.76229e-40
1.0417e-39
7.05725e-39
4.8533e-38
3.32059e-37
2.25273e-36
1.51397e-35
1.00737e-34
6.63282e-34
4.31934e-33
2.78047e-32
1.76838e-31
1.11062e-30
6.88433e-30
4.20965e-29
2.53803e-28
1.53138e-27
8.9865e-27
5.19635e-26
2.95986e-25
1.66044e-24
9.17255e-24
4.98948e-23
2.67265e-22
1.41008e-21
7.33031e-21
3.75718e-20
1.90059e-19
9.50261e-19
4.70623e-18
2.31611e-17
1.13784e-16
5.6155e-16
2.80741e-15
1.43615e-14
7.59723e-14
4.19306e-13
2.63313e-12
1.97583e-11
1.94182e-10
1.80685e-09
1.69473e-08
1.56311e-07
1.35386e-06
9.97842e-06
5.38113e-05
0.000182407
0.000408604
0.000715417
0.00107272
0.00142062
0.00169086
0.00185268
0.00191929
0.00191471
0.00186994
0.00180457
0.00173081
0.00165569
0.0015829
0.00151423
0.00145033
0.00139128
0.00133689
0.00128678
0.00124058
0.00119789
0.00115835
0.00112163
0.00108741
0.00105544
0.00102547
0.000997299
0.00097074
0.000945623
0.000921802
0.000899141
0.000878153
0.000858504
0.000839521
0.000821139
0.000803293
0.000785924
0.000768977
0.000752401
0.00073615
0.00072018
0.000704453
0.000688932
0.000673587
0.00065839
0.000643316
0.000628345
0.000613459
0.000598646
0.000583895
0.000569199
0.000554554
0.00053996
0.000525418
0.000510933
0.000496512
0.000482165
0.000467902
0.000453737
0.000439684
0.000425757
0.000411974
0.000398351
0.000384905
0.000371655
0.000358616
0.000345807
0.000333244
0.000320942
0.000308916
0.000297181
0.00028575
0.000274634
0.000263844
0.000253389
0.000243277
0.000233513
0.000224104
0.000215052
0.00020636
0.000198028
0.000190056
0.000182442
0.000175183
0.000168275
0.000161712
0.000155489
0.000149598
0.000144032
0.000138782
0.000133838
0.000129192
0.000124832
0.000120749
0.000116932
0.000113371
0.000110054
0.000106969
0.000104105
0.000101451
9.8997e-05
9.67313e-05
9.46438e-05
9.2724e-05
9.0962e-05
8.93481e-05
8.78728e-05
8.65268e-05
8.53015e-05
8.41883e-05
8.31792e-05
8.22663e-05
8.14423e-05
8.07003e-05
8.00335e-05
7.94358e-05
7.89012e-05
7.84241e-05
7.79995e-05
7.76224e-05
7.72884e-05
7.69933e-05
7.67332e-05
7.65045e-05
7.63039e-05
7.61285e-05
7.59755e-05
7.58424e-05
7.57268e-05
7.56268e-05
7.55405e-05
7.54662e-05
7.54024e-05
7.53478e-05
7.53011e-05
7.52614e-05
7.52277e-05
7.51992e-05
7.51751e-05
7.51549e-05
7.51378e-05
7.51236e-05
7.51118e-05
7.51019e-05
7.50938e-05
7.50871e-05
7.50815e-05
7.5077e-05
7.50733e-05
7.50704e-05
7.50679e-05
7.5066e-05
7.50644e-05
7.50632e-05
7.50623e-05
7.50615e-05
7.5061e-05
7.50605e-05
7.50602e-05
7.506e-05
7.50598e-05
7.50597e-05
7.50597e-05
7.50597e-05
7.50597e-05
7.50597e-05
7.50598e-05
7.50598e-05
7.50599e-05
7.506e-05
7.50601e-05
7.50601e-05
7.50602e-05
7.50603e-05
7.50604e-05
7.50605e-05
7.50606e-05
7.50606e-05
7.50607e-05
7.50608e-05
7.50608e-05
7.50609e-05
7.50609e-05
7.5061e-05
7.50611e-05
7.50611e-05
7.50611e-05
7.50612e-05
7.50612e-05
7.50612e-05
7.50613e-05
7.50613e-05
7.50613e-05
7.50613e-05
7.50613e-05
7.50613e-05
7.50613e-05
7.50613e-05
7.50613e-05
7.50613e-05
7.50613e-05
7.50612e-05
7.50612e-05
7.50612e-05
7.50611e-05
7.50611e-05
7.5061e-05
7.5061e-05
7.50609e-05
7.50609e-05
7.50608e-05
7.50607e-05
7.50607e-05
7.50606e-05
7.50605e-05
7.50604e-05
7.50604e-05
7.50603e-05
7.50603e-05
)
;

boundaryField
{
    boundary
    {
        type            empty;
    }
    inlet
    {
        type            fixedValue;
        value           uniform 0;
    }
    outlet
    {
        type            zeroGradient;
    }
}


// ************************************************************************* //
