/*--------------------------------*- C++ -*----------------------------------*\
  =========                 |
  \\      /  F ield         | OpenFOAM: The Open Source CFD Toolbox
   \\    /   O peration     | Website:  https://openfoam.org
    \\  /    A nd           | Version:  7
     \\/     M anipulation  |
\*---------------------------------------------------------------------------*/
FoamFile
{
    version     2.0;
    format      ascii;
    class       volScalarField;
    location    "0.00013";
    object      H2;
}
// * * * * * * * * * * * * * * * * * * * * * * * * * * * * * * * * * * * * * //

dimensions      [0 0 0 0 0 0 0];

internalField   nonuniform List<scalar> 
500
(
0.0285116
0.0285116
0.0285116
0.0285116
0.0285116
0.0285116
0.0285116
0.0285116
0.0285116
0.0285116
0.0285116
0.0285116
0.0285116
0.0285116
0.0285116
0.0285116
0.0285116
0.0285116
0.0285116
0.0285116
0.0285116
0.0285116
0.0285116
0.0285116
0.0285116
0.0285116
0.0285116
0.0285116
0.0285116
0.0285116
0.0285116
0.0285116
0.0285116
0.0285116
0.0285116
0.0285116
0.0285116
0.0285116
0.0285116
0.0285116
0.0285116
0.0285116
0.0285116
0.0285116
0.0285116
0.0285116
0.0285116
0.0285116
0.0285116
0.0285116
0.0285116
0.0285116
0.0285116
0.0285116
0.0285116
0.0285116
0.0285116
0.0285116
0.0285116
0.0285116
0.0285116
0.0285116
0.0285116
0.0285116
0.0285116
0.0285116
0.0285116
0.0285116
0.0285116
0.0285116
0.0285116
0.0285116
0.0285116
0.0285116
0.0285116
0.0285116
0.0285116
0.0285116
0.0285116
0.0285116
0.0285116
0.0285116
0.0285116
0.0285116
0.0285116
0.0285116
0.0285116
0.0285116
0.0285116
0.0285116
0.0285116
0.0285116
0.0285116
0.0285116
0.0285116
0.0285116
0.0285116
0.0285116
0.0285116
0.0285116
0.0285116
0.0285116
0.0285116
0.0285116
0.0285116
0.0285116
0.0285116
0.0285116
0.0285116
0.0285116
0.0285116
0.0285116
0.0285116
0.0285116
0.0285116
0.0285116
0.0285116
0.0285116
0.0285116
0.0285116
0.0285116
0.0285116
0.0285116
0.0285116
0.0285116
0.0285116
0.0285116
0.0285116
0.0285116
0.0285116
0.0285116
0.0285116
0.0285116
0.0285116
0.0285116
0.0285116
0.0285116
0.0285116
0.0285116
0.0285116
0.0285116
0.0285116
0.0285116
0.0285116
0.0285116
0.0285116
0.0285116
0.0285116
0.0285116
0.0285116
0.0285116
0.0285116
0.0285116
0.0285116
0.0285116
0.0285116
0.0285116
0.0285116
0.0285116
0.0285116
0.0285116
0.0285116
0.0285116
0.0285116
0.0285116
0.0285116
0.0285116
0.0285116
0.0285116
0.0285116
0.0285116
0.0285116
0.0285116
0.0285116
0.0285116
0.0285116
0.0285116
0.0285116
0.0285116
0.0285116
0.0285116
0.0285116
0.0285116
0.0285116
0.0285116
0.0285116
0.0285116
0.0285116
0.0285116
0.0285116
0.0285116
0.0285116
0.0285116
0.0285116
0.0285116
0.0285116
0.0285116
0.0285116
0.0285116
0.0285116
0.0285116
0.0285116
0.0285116
0.0285116
0.0285116
0.0285116
0.0285116
0.0285116
0.0285116
0.0285116
0.0285116
0.0285116
0.0285116
0.0285116
0.0285116
0.0285116
0.0285116
0.0285116
0.0285116
0.0285116
0.0285116
0.0285116
0.0285116
0.0285116
0.0285116
0.0285116
0.0285116
0.0285116
0.0285116
0.0285116
0.0285116
0.0285116
0.0285116
0.0285116
0.0285116
0.0285116
0.0285116
0.0285116
0.0285116
0.0285116
0.0285116
0.0285116
0.0285116
0.0285116
0.0285116
0.0285116
0.0285116
0.0285116
0.0285116
0.0285116
0.0285116
0.0285116
0.0285116
0.0285116
0.0285116
0.0285116
0.0285116
0.0285116
0.0285116
0.0285116
0.0285116
0.0285116
0.0285116
0.0285116
0.0285116
0.0285116
0.0285115
0.0285115
0.0285113
0.0285108
0.0285097
0.028507
0.028501
0.0284873
0.0284573
0.0283925
0.0282551
0.0279706
0.0274083
0.0263904
0.0247707
0.0225719
0.0199748
0.0170794
0.0140135
0.0110874
0.00865842
0.00688699
0.00561376
0.00486501
0.00440283
0.00412012
0.00394631
0.00383734
0.00376658
0.00371822
0.003683
0.00365557
0.00363285
0.00361312
0.00359541
0.00357923
0.00356431
0.00355054
0.00353785
0.00352624
0.0035157
0.00350622
0.00349778
0.00349035
0.00348388
0.00347833
0.00347378
0.00347006
0.00346699
0.00346446
0.00346238
0.00346066
0.00345916
0.00345778
0.00345638
0.00345483
0.00345299
0.00345071
0.00344785
0.00344425
0.00343978
0.00343428
0.00342761
0.00341963
0.00341021
0.00339924
0.00338659
0.00337216
0.00335587
0.00333764
0.00331739
0.0032951
0.00327071
0.00324421
0.0032156
0.00318489
0.0031521
0.00311729
0.00308049
0.0030418
0.00300128
0.00295904
0.00291518
0.00286983
0.00282311
0.00277516
0.00272612
0.00267615
0.0026254
0.00257403
0.00252221
0.0024701
0.00241787
0.00236569
0.0023137
0.00226207
0.00221096
0.00216051
0.00211087
0.00206215
0.00201449
0.00196801
0.00192279
0.00187894
0.00183654
0.00179565
0.00175634
0.00171865
0.00168262
0.00164826
0.0016156
0.00158462
0.00155534
0.00152774
0.00150179
0.00147747
0.00145473
0.00143353
0.00141382
0.00139554
0.00137864
0.00136306
0.00134872
0.00133558
0.00132355
0.00131259
0.00130261
0.00129356
0.00128537
0.00127798
0.00127134
0.00126537
0.00126004
0.00125527
0.00125104
0.00124727
0.00124395
0.00124101
0.00123842
0.00123615
0.00123416
0.00123243
0.00123092
0.0012296
0.00122847
0.00122749
0.00122665
0.00122592
0.0012253
0.00122477
0.00122432
0.00122394
0.00122362
0.00122335
0.00122312
0.00122293
0.00122277
0.00122264
0.00122253
0.00122244
0.00122236
0.0012223
0.00122225
0.00122221
0.00122218
0.00122216
0.00122214
0.00122212
0.00122211
0.0012221
0.0012221
0.00122209
0.00122209
0.00122209
0.00122209
0.00122209
0.00122209
0.00122209
0.00122209
0.00122209
0.0012221
0.0012221
0.0012221
0.00122211
0.00122211
0.00122211
0.00122212
0.00122212
0.00122212
0.00122213
0.00122213
0.00122213
0.00122213
0.00122214
0.00122214
0.00122214
0.00122215
0.00122215
0.00122215
0.00122215
0.00122216
0.00122216
0.00122216
0.00122216
0.00122217
0.00122217
0.00122217
0.00122217
0.00122218
0.00122218
0.00122218
0.00122218
0.00122218
0.00122218
0.00122219
0.00122219
0.00122219
0.00122219
0.00122219
0.00122219
0.00122219
0.0012222
0.0012222
0.0012222
0.0012222
0.0012222
0.0012222
0.0012222
0.0012222
0.0012222
0.0012222
0.0012222
0.0012222
0.0012222
)
;

boundaryField
{
    boundary
    {
        type            empty;
    }
    inlet
    {
        type            fixedValue;
        value           uniform 0.0285116;
    }
    outlet
    {
        type            zeroGradient;
    }
}


// ************************************************************************* //
