/*--------------------------------*- C++ -*----------------------------------*\
  =========                 |
  \\      /  F ield         | OpenFOAM: The Open Source CFD Toolbox
   \\    /   O peration     | Website:  https://openfoam.org
    \\  /    A nd           | Version:  7
     \\/     M anipulation  |
\*---------------------------------------------------------------------------*/
FoamFile
{
    version     2.0;
    format      ascii;
    class       volScalarField;
    location    "0.00013";
    object      H2O;
}
// * * * * * * * * * * * * * * * * * * * * * * * * * * * * * * * * * * * * * //

dimensions      [0 0 0 0 0 0 0];

internalField   nonuniform List<scalar> 
500
(
8.19881e-48
2.40561e-47
4.398e-47
6.69987e-47
9.22598e-47
1.18843e-46
1.45697e-46
1.71702e-46
1.95801e-46
2.1715e-46
2.3522e-46
2.49839e-46
2.61151e-46
2.69534e-46
2.75492e-46
2.79558e-46
2.82227e-46
2.83915e-46
2.84945e-46
2.85552e-46
2.85898e-46
2.86089e-46
2.86191e-46
2.86243e-46
2.86269e-46
2.86281e-46
2.86287e-46
2.86288e-46
2.86288e-46
2.86288e-46
2.86287e-46
2.86285e-46
2.86284e-46
2.86282e-46
2.86281e-46
2.8628e-46
2.86278e-46
2.86277e-46
2.86275e-46
2.86274e-46
2.86272e-46
2.86271e-46
2.8627e-46
2.86268e-46
2.86267e-46
2.86266e-46
2.86265e-46
2.86264e-46
2.86263e-46
2.86262e-46
2.86261e-46
2.8626e-46
2.8626e-46
2.86259e-46
2.86259e-46
2.86259e-46
2.86259e-46
2.86259e-46
2.86259e-46
2.86259e-46
2.8626e-46
2.8626e-46
2.86261e-46
2.86262e-46
2.86264e-46
2.86265e-46
2.86267e-46
2.86269e-46
2.86271e-46
2.86273e-46
2.86275e-46
2.86278e-46
2.86281e-46
2.86284e-46
2.86288e-46
2.86292e-46
2.86296e-46
2.863e-46
2.86305e-46
2.8631e-46
2.86315e-46
2.86321e-46
2.86326e-46
2.86332e-46
2.86339e-46
2.86346e-46
2.86353e-46
2.8636e-46
2.86368e-46
2.86376e-46
2.86385e-46
2.86393e-46
2.86403e-46
2.86412e-46
2.86422e-46
2.86432e-46
2.86443e-46
2.86454e-46
2.86465e-46
2.86477e-46
2.86489e-46
2.86501e-46
2.86514e-46
2.86527e-46
2.86541e-46
2.86555e-46
2.86569e-46
2.86583e-46
2.86598e-46
2.86613e-46
2.86629e-46
2.86645e-46
2.86661e-46
2.86678e-46
2.86695e-46
2.86712e-46
2.86729e-46
2.86747e-46
2.86764e-46
2.8678e-46
2.86788e-46
2.86773e-46
2.86681e-46
2.86371e-46
2.8566e-46
2.84657e-46
2.83356e-46
2.82707e-46
2.82612e-46
2.8286e-46
2.83301e-46
2.83847e-46
2.84434e-46
2.8501e-46
2.85535e-46
2.85982e-46
2.86343e-46
2.8662e-46
2.86823e-46
2.86968e-46
2.87068e-46
2.87138e-46
2.87186e-46
2.87221e-46
2.87248e-46
2.87269e-46
2.87287e-46
2.87303e-46
2.87318e-46
2.87331e-46
2.87343e-46
2.87354e-46
2.87364e-46
2.87372e-46
2.8738e-46
2.87386e-46
2.8739e-46
2.87393e-46
2.87395e-46
2.87395e-46
2.87392e-46
2.87389e-46
2.87383e-46
2.87375e-46
2.87364e-46
2.87352e-46
2.87337e-46
2.87319e-46
2.87299e-46
2.87276e-46
2.8725e-46
2.87221e-46
2.87189e-46
2.87154e-46
2.87115e-46
2.87072e-46
2.87026e-46
2.86977e-46
2.86923e-46
2.86865e-46
2.86803e-46
2.86737e-46
2.86666e-46
2.86591e-46
2.86511e-46
2.86426e-46
2.86336e-46
2.86241e-46
2.86141e-46
2.86036e-46
2.85925e-46
2.85809e-46
2.85687e-46
2.85559e-46
2.85426e-46
2.85286e-46
2.85141e-46
2.84989e-46
2.84832e-46
2.84668e-46
2.84498e-46
2.84322e-46
2.84139e-46
2.8395e-46
2.83755e-46
2.83553e-46
2.83345e-46
2.8313e-46
2.8291e-46
2.82683e-46
2.82449e-46
2.8221e-46
2.81964e-46
2.81713e-46
2.81455e-46
2.81192e-46
2.80923e-46
2.80648e-46
2.80368e-46
2.80083e-46
2.79792e-46
2.79498e-46
2.79205e-46
2.78974e-46
2.79355e-46
2.85436e-46
3.4381e-46
8.77115e-46
5.681e-45
4.84949e-44
4.26064e-43
3.72006e-42
3.21431e-41
2.74675e-40
2.32113e-39
1.93978e-38
1.60351e-37
1.31168e-36
1.06238e-35
8.5268e-35
6.78914e-34
5.36982e-33
4.22633e-32
3.31699e-31
2.60257e-30
2.04713e-29
1.61814e-28
1.28636e-27
1.02617e-26
8.16782e-26
6.44017e-25
4.9071e-24
3.76242e-23
2.85744e-22
2.14621e-21
1.59127e-20
1.16246e-19
8.352e-19
5.89175e-18
4.07427e-17
2.75777e-16
1.82455e-15
1.17829e-14
7.41775e-14
4.54627e-13
2.70919e-12
1.56769e-11
8.79745e-11
4.78156e-10
2.51399e-09
1.2772e-08
6.26455e-08
2.96519e-07
1.35478e-06
5.98171e-06
2.55683e-05
0.000105897
0.000422667
0.00158416
0.00520839
0.0136289
0.0273287
0.0447103
0.0656885
0.0903912
0.116458
0.139786
0.157591
0.172909
0.181884
0.187938
0.192092
0.195045
0.197246
0.198976
0.200409
0.20165
0.202765
0.203793
0.20476
0.205683
0.206573
0.207437
0.208279
0.209105
0.209915
0.210712
0.211496
0.212268
0.213028
0.213776
0.21451
0.215207
0.215881
0.216544
0.217195
0.217835
0.218461
0.219073
0.219671
0.220254
0.220821
0.221373
0.221909
0.222429
0.222934
0.223423
0.223899
0.224362
0.224812
0.225251
0.225679
0.226099
0.226511
0.226917
0.227318
0.227714
0.228107
0.228498
0.228887
0.229275
0.229663
0.23005
0.230437
0.230823
0.231208
0.231593
0.231976
0.232357
0.232734
0.233108
0.233478
0.233841
0.234199
0.234549
0.23489
0.235223
0.235545
0.235857
0.236158
0.236446
0.236723
0.236986
0.237237
0.237474
0.237698
0.237909
0.238107
0.238292
0.238464
0.238625
0.238774
0.238912
0.239041
0.239161
0.239275
0.239371
0.239458
0.239538
0.23961
0.239675
0.239733
0.239784
0.23983
0.239871
0.239906
0.239937
0.239965
0.239988
0.240009
0.240028
0.240044
0.240058
0.24007
0.240081
0.24009
0.240099
0.240106
0.240113
0.240119
0.240124
0.240128
0.240132
0.240136
0.240139
0.240142
0.240144
0.240146
0.240148
0.240149
0.240151
0.240152
0.240153
0.240154
0.240154
0.240155
0.240156
0.240156
0.240156
0.240157
0.240157
0.240157
0.240157
0.240157
0.240157
0.240157
0.240157
0.240157
0.240157
0.240157
0.240157
0.240157
0.240157
0.240157
0.240157
0.240157
0.240157
0.240157
0.240157
0.240157
0.240157
0.240157
0.240157
0.240157
0.240157
0.240157
0.240156
0.240156
0.240156
0.240156
0.240156
0.240156
0.240156
0.240156
0.240156
0.240156
0.240156
0.240156
0.240156
0.240156
0.240156
0.240156
0.240156
0.240156
0.240156
0.240155
0.240155
0.240155
0.240155
0.240155
0.240155
0.240155
0.240155
0.240155
0.240155
0.240155
0.240155
0.240155
0.240155
0.240155
0.240155
0.240155
0.240155
0.240155
0.240155
0.240155
0.240155
0.240155
0.240155
0.240155
0.240155
0.240155
0.240155
0.240155
0.240155
0.240155
0.240155
0.240155
0.240155
0.240155
)
;

boundaryField
{
    boundary
    {
        type            empty;
    }
    inlet
    {
        type            fixedValue;
        value           uniform 0;
    }
    outlet
    {
        type            zeroGradient;
    }
}


// ************************************************************************* //
