/*--------------------------------*- C++ -*----------------------------------*\
  =========                 |
  \\      /  F ield         | OpenFOAM: The Open Source CFD Toolbox
   \\    /   O peration     | Website:  https://openfoam.org
    \\  /    A nd           | Version:  7
     \\/     M anipulation  |
\*---------------------------------------------------------------------------*/
FoamFile
{
    version     2.0;
    format      ascii;
    class       volScalarField;
    location    "0.00013";
    object      H2O2;
}
// * * * * * * * * * * * * * * * * * * * * * * * * * * * * * * * * * * * * * //

dimensions      [0 0 0 0 0 0 0];

internalField   nonuniform List<scalar> 
500
(
2.03662e-52
6.58691e-52
1.31513e-51
2.16719e-51
3.19589e-51
4.36453e-51
5.6187e-51
6.89185e-51
8.11512e-51
9.22844e-51
1.01893e-50
1.09768e-50
1.1591e-50
1.20475e-50
1.23718e-50
1.25923e-50
1.27362e-50
1.28264e-50
1.28809e-50
1.29126e-50
1.29305e-50
1.29403e-50
1.29454e-50
1.2948e-50
1.29493e-50
1.295e-50
1.29502e-50
1.29504e-50
1.29504e-50
1.29504e-50
1.29504e-50
1.29504e-50
1.29504e-50
1.29504e-50
1.29504e-50
1.29503e-50
1.29503e-50
1.29503e-50
1.29503e-50
1.29503e-50
1.29503e-50
1.29503e-50
1.29503e-50
1.29504e-50
1.29504e-50
1.29504e-50
1.29504e-50
1.29504e-50
1.29505e-50
1.29505e-50
1.29506e-50
1.29506e-50
1.29507e-50
1.29508e-50
1.29508e-50
1.29509e-50
1.2951e-50
1.29511e-50
1.29512e-50
1.29514e-50
1.29515e-50
1.29516e-50
1.29518e-50
1.29519e-50
1.29521e-50
1.29523e-50
1.29525e-50
1.29527e-50
1.29529e-50
1.29531e-50
1.29534e-50
1.29536e-50
1.29539e-50
1.29542e-50
1.29545e-50
1.29548e-50
1.29551e-50
1.29555e-50
1.29559e-50
1.29562e-50
1.29566e-50
1.2957e-50
1.29574e-50
1.29579e-50
1.29583e-50
1.29588e-50
1.29593e-50
1.29598e-50
1.29604e-50
1.29609e-50
1.29615e-50
1.29621e-50
1.29627e-50
1.29633e-50
1.29639e-50
1.29646e-50
1.29653e-50
1.2966e-50
1.29667e-50
1.29674e-50
1.29682e-50
1.29689e-50
1.29697e-50
1.29706e-50
1.29714e-50
1.29722e-50
1.29731e-50
1.2974e-50
1.29749e-50
1.29758e-50
1.29768e-50
1.29778e-50
1.29787e-50
1.29797e-50
1.29808e-50
1.29818e-50
1.29828e-50
1.29839e-50
1.29849e-50
1.29859e-50
1.29866e-50
1.2986e-50
1.29818e-50
1.29676e-50
1.29359e-50
1.28915e-50
1.28128e-50
1.27529e-50
1.27221e-50
1.27203e-50
1.27409e-50
1.27757e-50
1.28169e-50
1.28586e-50
1.28967e-50
1.2929e-50
1.29545e-50
1.29737e-50
1.29874e-50
1.29969e-50
1.30034e-50
1.30077e-50
1.30107e-50
1.30128e-50
1.30145e-50
1.30158e-50
1.3017e-50
1.3018e-50
1.3019e-50
1.30199e-50
1.30208e-50
1.30216e-50
1.30223e-50
1.3023e-50
1.30237e-50
1.30242e-50
1.30247e-50
1.30252e-50
1.30255e-50
1.30258e-50
1.3026e-50
1.30261e-50
1.30261e-50
1.3026e-50
1.30258e-50
1.30255e-50
1.30251e-50
1.30246e-50
1.30239e-50
1.30231e-50
1.30221e-50
1.3021e-50
1.30198e-50
1.30184e-50
1.30168e-50
1.30151e-50
1.30131e-50
1.3011e-50
1.30087e-50
1.30063e-50
1.30036e-50
1.30007e-50
1.29975e-50
1.29942e-50
1.29906e-50
1.29868e-50
1.29828e-50
1.29785e-50
1.2974e-50
1.29692e-50
1.29641e-50
1.29587e-50
1.29531e-50
1.29472e-50
1.29411e-50
1.29346e-50
1.29279e-50
1.29208e-50
1.29134e-50
1.29058e-50
1.28978e-50
1.28896e-50
1.2881e-50
1.28721e-50
1.28629e-50
1.28534e-50
1.28436e-50
1.28334e-50
1.2823e-50
1.28122e-50
1.28012e-50
1.27898e-50
1.27781e-50
1.27662e-50
1.27539e-50
1.27413e-50
1.27285e-50
1.27154e-50
1.2702e-50
1.26884e-50
1.26745e-50
1.26604e-50
1.2646e-50
1.26314e-50
1.26167e-50
1.26028e-50
1.26041e-50
1.28153e-50
1.58749e-50
5.716e-50
6.05951e-49
7.81989e-48
1.01611e-46
1.3076e-45
1.66431e-44
2.09487e-43
2.6075e-42
3.20922e-41
3.90479e-40
4.69517e-39
5.57545e-38
6.53226e-37
7.5412e-36
8.56517e-35
9.5549e-34
1.04527e-32
1.11999e-31
1.17455e-30
1.20549e-29
1.21125e-28
1.19207e-27
1.12307e-26
1.06126e-25
9.82505e-25
8.90179e-24
7.88691e-23
6.82753e-22
5.76979e-21
4.75535e-20
3.81843e-19
2.98392e-18
2.26662e-17
1.67149e-16
1.19502e-15
8.27116e-15
5.53366e-14
3.57291e-13
2.22273e-12
1.33014e-11
7.64503e-11
4.21457e-10
2.22647e-09
1.1269e-08
5.46926e-08
2.55041e-07
1.1443e-06
4.90319e-06
1.91868e-05
5.90426e-05
0.000108921
0.000128596
9.70628e-05
4.85383e-05
1.95728e-05
8.21149e-06
4.87691e-06
4.42568e-06
4.87257e-06
5.58793e-06
6.11402e-06
6.4728e-06
6.66979e-06
6.73678e-06
6.70841e-06
6.61418e-06
6.47649e-06
6.31156e-06
6.13077e-06
5.94197e-06
5.75048e-06
5.55983e-06
5.37233e-06
5.18942e-06
5.01194e-06
4.8403e-06
4.67464e-06
4.51489e-06
4.36088e-06
4.21233e-06
4.06893e-06
3.93036e-06
3.79638e-06
3.67063e-06
3.55015e-06
3.43218e-06
3.31648e-06
3.20279e-06
3.09093e-06
2.98072e-06
2.87204e-06
2.7648e-06
2.65892e-06
2.55439e-06
2.45123e-06
2.34949e-06
2.24926e-06
2.15064e-06
2.05378e-06
1.95884e-06
1.86598e-06
1.77541e-06
1.68729e-06
1.6018e-06
1.51912e-06
1.43939e-06
1.36274e-06
1.28929e-06
1.21911e-06
1.15226e-06
1.08874e-06
1.02858e-06
9.71717e-07
9.18115e-07
8.67693e-07
8.20357e-07
7.75997e-07
7.34493e-07
6.95715e-07
6.59526e-07
6.25788e-07
5.9436e-07
5.65105e-07
5.37885e-07
5.12568e-07
4.89027e-07
4.6714e-07
4.46791e-07
4.27872e-07
4.10281e-07
3.93922e-07
3.78706e-07
3.64551e-07
3.51381e-07
3.39124e-07
3.27716e-07
3.17098e-07
3.07214e-07
2.98013e-07
2.8945e-07
2.81482e-07
2.74068e-07
2.67174e-07
2.60763e-07
2.54801e-07
2.49239e-07
2.4397e-07
2.3936e-07
2.34999e-07
2.30946e-07
2.27191e-07
2.2372e-07
2.20518e-07
2.17568e-07
2.14855e-07
2.12365e-07
2.10085e-07
2.07999e-07
2.06095e-07
2.0436e-07
2.02783e-07
2.01352e-07
2.00056e-07
1.98884e-07
1.97828e-07
1.96878e-07
1.96024e-07
1.9526e-07
1.94577e-07
1.93968e-07
1.93426e-07
1.92945e-07
1.92519e-07
1.92143e-07
1.91812e-07
1.91521e-07
1.91266e-07
1.91042e-07
1.90847e-07
1.90677e-07
1.9053e-07
1.90402e-07
1.90292e-07
1.90196e-07
1.90114e-07
1.90043e-07
1.89982e-07
1.8993e-07
1.89886e-07
1.89847e-07
1.89815e-07
1.89787e-07
1.89763e-07
1.89742e-07
1.89724e-07
1.89709e-07
1.89696e-07
1.89684e-07
1.89674e-07
1.89665e-07
1.89658e-07
1.89651e-07
1.89644e-07
1.89639e-07
1.89634e-07
1.89629e-07
1.89624e-07
1.8962e-07
1.89616e-07
1.89612e-07
1.89608e-07
1.89605e-07
1.89601e-07
1.89598e-07
1.89594e-07
1.89591e-07
1.89588e-07
1.89584e-07
1.89581e-07
1.89578e-07
1.89575e-07
1.89572e-07
1.89569e-07
1.89566e-07
1.89562e-07
1.89559e-07
1.89556e-07
1.89553e-07
1.8955e-07
1.89547e-07
1.89544e-07
1.89541e-07
1.89539e-07
1.89536e-07
1.89533e-07
1.8953e-07
1.89527e-07
1.89524e-07
1.89522e-07
1.89519e-07
1.89516e-07
1.89513e-07
1.89511e-07
1.89508e-07
1.89506e-07
1.89503e-07
1.89501e-07
1.89498e-07
1.89496e-07
1.89493e-07
1.89491e-07
1.89489e-07
1.89486e-07
1.89484e-07
1.89482e-07
1.8948e-07
1.89477e-07
1.89475e-07
1.89473e-07
1.89471e-07
1.89469e-07
1.89467e-07
1.89466e-07
1.89464e-07
1.89462e-07
1.8946e-07
1.89459e-07
1.89457e-07
1.89455e-07
1.89454e-07
1.89453e-07
)
;

boundaryField
{
    boundary
    {
        type            empty;
    }
    inlet
    {
        type            fixedValue;
        value           uniform 0;
    }
    outlet
    {
        type            zeroGradient;
    }
}


// ************************************************************************* //
