/*--------------------------------*- C++ -*----------------------------------*\
  =========                 |
  \\      /  F ield         | OpenFOAM: The Open Source CFD Toolbox
   \\    /   O peration     | Website:  https://openfoam.org
    \\  /    A nd           | Version:  7
     \\/     M anipulation  |
\*---------------------------------------------------------------------------*/
FoamFile
{
    version     2.0;
    format      ascii;
    class       volScalarField;
    location    "0.00013";
    object      HO2;
}
// * * * * * * * * * * * * * * * * * * * * * * * * * * * * * * * * * * * * * //

dimensions      [0 0 0 0 0 0 0];

internalField   nonuniform List<scalar> 
500
(
5.69089e-38
1.31038e-37
2.07348e-37
2.85839e-37
3.66041e-37
4.46639e-37
5.2552e-37
6.00118e-37
6.67927e-37
7.26983e-37
7.76185e-37
8.15386e-37
8.45267e-37
8.67078e-37
8.82344e-37
8.92604e-37
8.99235e-37
9.03364e-37
9.05843e-37
9.07281e-37
9.08088e-37
9.08526e-37
9.08757e-37
9.08874e-37
9.08931e-37
9.08958e-37
9.0897e-37
9.08974e-37
9.08975e-37
9.08974e-37
9.08972e-37
9.0897e-37
9.08968e-37
9.08966e-37
9.08964e-37
9.08962e-37
9.0896e-37
9.08958e-37
9.08956e-37
9.08954e-37
9.08952e-37
9.08951e-37
9.08949e-37
9.08948e-37
9.08947e-37
9.08946e-37
9.08945e-37
9.08944e-37
9.08944e-37
9.08943e-37
9.08943e-37
9.08944e-37
9.08944e-37
9.08945e-37
9.08946e-37
9.08948e-37
9.0895e-37
9.08952e-37
9.08954e-37
9.08957e-37
9.08961e-37
9.08964e-37
9.08969e-37
9.08973e-37
9.08978e-37
9.08984e-37
9.0899e-37
9.08997e-37
9.09004e-37
9.09012e-37
9.09021e-37
9.0903e-37
9.09039e-37
9.09049e-37
9.0906e-37
9.09072e-37
9.09084e-37
9.09097e-37
9.09111e-37
9.09125e-37
9.0914e-37
9.09156e-37
9.09173e-37
9.0919e-37
9.09209e-37
9.09228e-37
9.09248e-37
9.09268e-37
9.0929e-37
9.09312e-37
9.09336e-37
9.0936e-37
9.09385e-37
9.09411e-37
9.09438e-37
9.09465e-37
9.09494e-37
9.09523e-37
9.09554e-37
9.09585e-37
9.09618e-37
9.09651e-37
9.09685e-37
9.0972e-37
9.09756e-37
9.09793e-37
9.09831e-37
9.0987e-37
9.09909e-37
9.0995e-37
9.09991e-37
9.10033e-37
9.10076e-37
9.1012e-37
9.10164e-37
9.1021e-37
9.10256e-37
9.10302e-37
9.10349e-37
9.10392e-37
9.10423e-37
9.104e-37
9.10173e-37
9.09158e-37
9.05134e-37
8.97501e-37
8.97802e-37
8.98248e-37
8.9894e-37
8.99942e-37
9.01244e-37
9.02763e-37
9.04368e-37
9.05926e-37
9.07325e-37
9.08499e-37
9.09428e-37
9.10124e-37
9.10626e-37
9.10975e-37
9.11213e-37
9.11376e-37
9.1149e-37
9.11574e-37
9.11639e-37
9.11692e-37
9.11739e-37
9.11782e-37
9.11821e-37
9.11857e-37
9.11891e-37
9.11922e-37
9.11951e-37
9.11977e-37
9.11999e-37
9.12018e-37
9.12034e-37
9.12046e-37
9.12055e-37
9.12059e-37
9.12059e-37
9.12054e-37
9.12044e-37
9.1203e-37
9.1201e-37
9.11984e-37
9.11952e-37
9.11915e-37
9.1187e-37
9.11819e-37
9.11761e-37
9.11696e-37
9.11622e-37
9.11541e-37
9.11452e-37
9.11354e-37
9.11247e-37
9.11131e-37
9.11005e-37
9.1087e-37
9.10724e-37
9.10568e-37
9.10401e-37
9.10223e-37
9.10033e-37
9.09832e-37
9.09619e-37
9.09393e-37
9.09155e-37
9.08903e-37
9.08639e-37
9.08361e-37
9.08069e-37
9.07764e-37
9.07444e-37
9.0711e-37
9.06761e-37
9.06398e-37
9.06019e-37
9.05626e-37
9.05217e-37
9.04793e-37
9.04353e-37
9.03898e-37
9.03427e-37
9.02941e-37
9.0244e-37
9.01922e-37
9.0139e-37
9.00841e-37
9.00278e-37
8.997e-37
8.99106e-37
8.98498e-37
8.97875e-37
8.97238e-37
8.96587e-37
8.95922e-37
8.95244e-37
8.94552e-37
8.93848e-37
8.93132e-37
8.92404e-37
8.91665e-37
8.90914e-37
8.90153e-37
8.89383e-37
8.88608e-37
8.87849e-37
8.87236e-37
8.87544e-37
8.93384e-37
9.32042e-37
1.16363e-36
2.52035e-36
1.03886e-35
5.56801e-35
3.14799e-34
1.79026e-33
1.01653e-32
5.76295e-32
3.26618e-31
1.85293e-30
1.05333e-29
6.00484e-29
3.43519e-28
1.97317e-27
1.13872e-26
6.60732e-26
3.85786e-25
2.26864e-24
1.42121e-23
8.6135e-23
5.21867e-22
3.18385e-21
1.95524e-20
1.20665e-19
7.46565e-19
4.61744e-18
2.84539e-17
1.7408e-16
1.05354e-15
6.28524e-15
3.68387e-14
2.11472e-13
1.18563e-12
6.47603e-12
3.43867e-11
1.77188e-10
8.84897e-10
4.28084e-09
2.00689e-08
9.12702e-08
4.03529e-07
1.7334e-06
7.216e-06
2.85912e-05
0.000102277
0.00028951
0.000497779
0.000507256
0.000412649
0.000300539
0.000211354
0.000147854
0.000103241
7.24093e-05
5.2053e-05
3.64665e-05
2.79026e-05
2.2382e-05
1.87256e-05
1.62136e-05
1.44128e-05
1.30643e-05
1.20126e-05
1.11628e-05
1.04554e-05
9.8522e-06
9.32767e-06
8.86436e-06
8.4498e-06
8.07482e-06
7.73249e-06
7.41745e-06
7.12544e-06
6.85304e-06
6.59748e-06
6.35648e-06
6.12819e-06
5.91111e-06
5.70415e-06
5.51233e-06
5.33036e-06
5.15395e-06
4.98265e-06
4.81605e-06
4.65387e-06
4.49587e-06
4.34189e-06
4.19183e-06
4.04565e-06
3.90337e-06
3.765e-06
3.63065e-06
3.5004e-06
3.37438e-06
3.25273e-06
3.1356e-06
3.02312e-06
2.91545e-06
2.81273e-06
2.71508e-06
2.62261e-06
2.53541e-06
2.45353e-06
2.37702e-06
2.30587e-06
2.24006e-06
2.17951e-06
2.12413e-06
2.07378e-06
2.02827e-06
1.98742e-06
1.95097e-06
1.91867e-06
1.89023e-06
1.86535e-06
1.84371e-06
1.825e-06
1.80889e-06
1.79509e-06
1.78329e-06
1.77323e-06
1.76463e-06
1.75727e-06
1.75094e-06
1.74547e-06
1.74071e-06
1.73652e-06
1.73282e-06
1.72951e-06
1.72656e-06
1.7239e-06
1.72153e-06
1.71942e-06
1.71756e-06
1.71595e-06
1.71461e-06
1.71352e-06
1.7127e-06
1.71218e-06
1.71196e-06
1.71208e-06
1.7126e-06
1.71354e-06
1.71448e-06
1.71528e-06
1.71622e-06
1.71727e-06
1.7184e-06
1.71959e-06
1.72082e-06
1.72207e-06
1.72332e-06
1.72455e-06
1.72576e-06
1.72693e-06
1.72806e-06
1.72913e-06
1.73015e-06
1.73112e-06
1.73202e-06
1.73286e-06
1.73363e-06
1.73435e-06
1.73501e-06
1.73561e-06
1.73616e-06
1.73666e-06
1.73711e-06
1.73751e-06
1.73788e-06
1.73821e-06
1.7385e-06
1.73877e-06
1.739e-06
1.73922e-06
1.73941e-06
1.73958e-06
1.73973e-06
1.73987e-06
1.74e-06
1.74011e-06
1.74022e-06
1.74031e-06
1.7404e-06
1.74048e-06
1.74055e-06
1.74062e-06
1.74069e-06
1.74075e-06
1.74081e-06
1.74086e-06
1.74091e-06
1.74097e-06
1.74101e-06
1.74106e-06
1.74111e-06
1.74115e-06
1.74119e-06
1.74124e-06
1.74128e-06
1.74132e-06
1.74136e-06
1.7414e-06
1.74144e-06
1.74148e-06
1.74152e-06
1.74156e-06
1.7416e-06
1.74164e-06
1.74167e-06
1.74171e-06
1.74175e-06
1.74179e-06
1.74183e-06
1.74186e-06
1.7419e-06
1.74194e-06
1.74197e-06
1.74201e-06
1.74205e-06
1.74208e-06
1.74212e-06
1.74215e-06
1.74219e-06
1.74222e-06
1.74226e-06
1.74229e-06
1.74232e-06
1.74236e-06
1.74239e-06
1.74242e-06
1.74245e-06
1.74249e-06
1.74252e-06
1.74255e-06
1.74258e-06
1.74261e-06
1.74264e-06
1.74266e-06
1.74269e-06
1.74272e-06
1.74275e-06
1.74277e-06
1.7428e-06
1.74283e-06
1.74285e-06
1.74287e-06
1.7429e-06
1.74292e-06
1.74294e-06
1.74296e-06
1.74299e-06
1.74301e-06
1.74303e-06
1.74305e-06
1.74306e-06
1.74308e-06
1.7431e-06
1.74312e-06
1.74313e-06
1.74315e-06
1.74316e-06
1.74318e-06
1.74319e-06
1.7432e-06
1.74321e-06
1.74322e-06
)
;

boundaryField
{
    boundary
    {
        type            empty;
    }
    inlet
    {
        type            fixedValue;
        value           uniform 0;
    }
    outlet
    {
        type            zeroGradient;
    }
}


// ************************************************************************* //
