/*--------------------------------*- C++ -*----------------------------------*\
  =========                 |
  \\      /  F ield         | OpenFOAM: The Open Source CFD Toolbox
   \\    /   O peration     | Website:  https://openfoam.org
    \\  /    A nd           | Version:  7
     \\/     M anipulation  |
\*---------------------------------------------------------------------------*/
FoamFile
{
    version     2.0;
    format      ascii;
    class       volScalarField;
    location    "0.00013";
    object      O2;
}
// * * * * * * * * * * * * * * * * * * * * * * * * * * * * * * * * * * * * * //

dimensions      [0 0 0 0 0 0 0];

internalField   nonuniform List<scalar> 
500
(
0.226269
0.226269
0.226269
0.226269
0.226269
0.226269
0.226269
0.226269
0.226269
0.226269
0.226269
0.226269
0.226269
0.226269
0.226269
0.226269
0.226269
0.226269
0.226269
0.226269
0.226269
0.226269
0.226269
0.226269
0.226269
0.226269
0.226269
0.226269
0.226269
0.226269
0.226269
0.226269
0.226269
0.226269
0.226269
0.226269
0.226269
0.226269
0.226269
0.226269
0.226269
0.226269
0.226269
0.226269
0.226269
0.226269
0.226269
0.226269
0.226269
0.226269
0.226269
0.226269
0.226269
0.226269
0.226269
0.226269
0.226269
0.226269
0.226269
0.226269
0.226269
0.226269
0.226269
0.226269
0.226269
0.226269
0.226269
0.226269
0.226269
0.226269
0.226269
0.226269
0.226269
0.226269
0.226269
0.226269
0.226269
0.226269
0.226269
0.226269
0.226269
0.226269
0.226269
0.226269
0.226269
0.226269
0.226269
0.226269
0.226269
0.226269
0.226269
0.226269
0.226269
0.226269
0.226269
0.226269
0.226269
0.226269
0.226269
0.226269
0.226269
0.226269
0.226269
0.226269
0.226269
0.226269
0.226269
0.226269
0.226269
0.226269
0.226269
0.226269
0.226269
0.226269
0.226269
0.226269
0.226269
0.226269
0.226269
0.226269
0.226269
0.226269
0.226269
0.226269
0.226269
0.226269
0.226269
0.226269
0.226269
0.226269
0.226269
0.226269
0.226269
0.226269
0.226269
0.226269
0.226269
0.226269
0.226269
0.226269
0.226269
0.226269
0.226269
0.226269
0.226269
0.226269
0.226269
0.226269
0.226269
0.226269
0.226269
0.226269
0.226269
0.226269
0.226269
0.226269
0.226269
0.226269
0.226269
0.226269
0.226269
0.226269
0.226269
0.226269
0.226269
0.226269
0.226269
0.226269
0.226269
0.226269
0.226269
0.226269
0.226269
0.226269
0.226269
0.226269
0.226269
0.226269
0.226269
0.226269
0.226269
0.226269
0.226269
0.226269
0.226269
0.226269
0.226269
0.226269
0.226269
0.226269
0.226269
0.226269
0.226269
0.226269
0.226269
0.226269
0.226269
0.226269
0.226269
0.226269
0.226269
0.226269
0.226269
0.226269
0.226269
0.226269
0.226269
0.226269
0.226269
0.226269
0.226269
0.226269
0.226269
0.226269
0.226269
0.226269
0.226269
0.226269
0.226269
0.226269
0.226269
0.226269
0.226269
0.226269
0.226269
0.226269
0.226269
0.226269
0.226269
0.226269
0.226269
0.226269
0.226269
0.226269
0.226269
0.226269
0.226269
0.226269
0.226269
0.226269
0.226269
0.226269
0.226269
0.226269
0.226269
0.226269
0.226269
0.226269
0.226269
0.226269
0.226269
0.226269
0.226269
0.226269
0.226269
0.226269
0.226269
0.226269
0.226269
0.226269
0.226269
0.226269
0.226269
0.226269
0.226269
0.226269
0.226269
0.226269
0.226269
0.226269
0.226269
0.22627
0.226271
0.226274
0.226277
0.226274
0.226228
0.225985
0.225028
0.222112
0.215202
0.203707
0.18892
0.170118
0.146571
0.120591
0.0966927
0.0782115
0.0617368
0.0521305
0.0456253
0.041184
0.0380742
0.0358132
0.0340937
0.0327233
0.0315817
0.0305936
0.029711
0.028903
0.028149
0.0274353
0.026752
0.0260923
0.025451
0.0248246
0.0242103
0.0236063
0.0230113
0.0224248
0.0218466
0.0212773
0.0207351
0.0202082
0.0196873
0.0191732
0.0186666
0.0181683
0.0176794
0.0172005
0.0167327
0.0162766
0.015833
0.0154026
0.0149857
0.014583
0.0141946
0.0138207
0.0134614
0.0131165
0.0127861
0.0124697
0.012167
0.0118777
0.0116013
0.0113372
0.0110849
0.0108439
0.0106137
0.0103936
0.0101833
0.00998207
0.00978959
0.00960541
0.00942913
0.00926043
0.00909898
0.00894455
0.00879692
0.00865589
0.00852134
0.00839314
0.00827122
0.00815551
0.00804597
0.00794255
0.00784524
0.00775401
0.00766883
0.00758967
0.00751649
0.00744921
0.00738776
0.00733203
0.0072819
0.00723722
0.00719781
0.00716348
0.007134
0.00710915
0.00708869
0.00707238
0.00706001
0.00705141
0.00704645
0.00704506
0.00704537
0.00704711
0.00705041
0.00705502
0.00706071
0.00706727
0.00707448
0.00708216
0.00709013
0.00709824
0.00710636
0.00711437
0.00712217
0.0071297
0.00713688
0.00714368
0.00715005
0.00715599
0.00716148
0.00716653
0.00717114
0.00717533
0.00717911
0.00718252
0.00718556
0.00718828
0.0071907
0.00719283
0.00719471
0.00719637
0.00719782
0.00719908
0.00720018
0.00720114
0.00720197
0.00720269
0.0072033
0.00720383
0.00720429
0.00720468
0.00720501
0.00720529
0.00720553
0.00720574
0.00720591
0.00720605
0.00720618
0.00720628
0.00720637
0.00720644
0.0072065
0.00720656
0.0072066
0.00720664
0.00720667
0.00720669
0.00720672
0.00720674
0.00720675
0.00720677
0.00720678
0.00720679
0.0072068
0.00720681
0.00720682
0.00720683
0.00720683
0.00720684
0.00720685
0.00720685
0.00720686
0.00720687
0.00720687
0.00720688
0.00720688
0.00720689
0.00720689
0.0072069
0.0072069
0.0072069
0.00720691
0.00720691
0.00720692
0.00720692
0.00720692
0.00720693
0.00720693
0.00720693
0.00720694
0.00720694
0.00720694
0.00720694
0.00720694
0.00720695
0.00720695
0.00720695
0.00720695
0.00720695
0.00720695
0.00720695
0.00720695
0.00720695
0.00720695
0.00720695
0.00720695
0.00720695
0.00720695
0.00720695
0.00720695
0.00720694
0.00720694
0.00720694
0.00720694
0.00720693
0.00720693
0.00720693
0.00720692
0.00720692
0.00720692
0.00720691
0.00720691
0.0072069
0.0072069
0.0072069
)
;

boundaryField
{
    boundary
    {
        type            empty;
    }
    inlet
    {
        type            fixedValue;
        value           uniform 0.226269;
    }
    outlet
    {
        type            zeroGradient;
    }
}


// ************************************************************************* //
