/*--------------------------------*- C++ -*----------------------------------*\
  =========                 |
  \\      /  F ield         | OpenFOAM: The Open Source CFD Toolbox
   \\    /   O peration     | Website:  https://openfoam.org
    \\  /    A nd           | Version:  7
     \\/     M anipulation  |
\*---------------------------------------------------------------------------*/
FoamFile
{
    version     2.0;
    format      ascii;
    class       volScalarField;
    location    "0.00013";
    object      rho;
}
// * * * * * * * * * * * * * * * * * * * * * * * * * * * * * * * * * * * * * //

dimensions      [1 -3 0 0 0 0 0];

internalField   nonuniform List<scalar> 
500
(
0.863509
0.863344
0.863154
0.862922
0.862636
0.862299
0.861923
0.861533
0.861153
0.860803
0.860499
0.860248
0.860051
0.859902
0.859795
0.859721
0.859672
0.85964
0.85962
0.859608
0.859602
0.859598
0.859596
0.859594
0.859594
0.859594
0.859593
0.859593
0.859593
0.859593
0.859593
0.859593
0.859593
0.859593
0.859593
0.859593
0.859593
0.859593
0.859593
0.859593
0.859593
0.859593
0.859593
0.859592
0.859592
0.859592
0.859592
0.859592
0.859592
0.859592
0.859592
0.859592
0.859592
0.859591
0.859591
0.859591
0.859591
0.859591
0.859591
0.859591
0.85959
0.85959
0.85959
0.85959
0.85959
0.859589
0.859589
0.859589
0.859589
0.859588
0.859588
0.859588
0.859587
0.859587
0.859587
0.859586
0.859586
0.859586
0.859585
0.859585
0.859584
0.859584
0.859584
0.859583
0.859583
0.859582
0.859582
0.859581
0.859581
0.85958
0.85958
0.859579
0.859578
0.859578
0.859577
0.859576
0.859576
0.859575
0.859574
0.859574
0.859573
0.859572
0.859571
0.859571
0.85957
0.859569
0.859568
0.859567
0.859567
0.859566
0.859565
0.859564
0.859563
0.859562
0.859561
0.85956
0.859559
0.859558
0.859557
0.859556
0.859555
0.859554
0.859553
0.859552
0.859551
0.85955
0.859549
0.859548
0.859547
0.859546
0.859545
0.859544
0.859543
0.859541
0.85954
0.859538
0.859537
0.859536
0.859534
0.859533
0.859532
0.85953
0.859529
0.859528
0.859527
0.859526
0.859525
0.859523
0.859522
0.859521
0.85952
0.859519
0.859518
0.859517
0.859516
0.859515
0.859514
0.859513
0.859513
0.859512
0.859511
0.85951
0.85951
0.859509
0.859509
0.859508
0.859508
0.859507
0.859507
0.859507
0.859507
0.859507
0.859507
0.859507
0.859507
0.859507
0.859508
0.859508
0.859509
0.85951
0.85951
0.859511
0.859512
0.859513
0.859515
0.859516
0.859518
0.859519
0.859521
0.859523
0.859525
0.859528
0.85953
0.859532
0.859535
0.859538
0.859541
0.859544
0.859548
0.859551
0.859555
0.859559
0.859563
0.859567
0.859571
0.859576
0.859581
0.859585
0.85959
0.859596
0.859601
0.859607
0.859612
0.859618
0.859624
0.85963
0.859637
0.859643
0.85965
0.859657
0.859664
0.859671
0.859678
0.859685
0.859693
0.8597
0.859708
0.859716
0.859724
0.859732
0.85974
0.859748
0.859756
0.859764
0.859773
0.859781
0.859789
0.859798
0.859807
0.859815
0.859824
0.859833
0.859841
0.85985
0.859859
0.859868
0.859877
0.859886
0.859895
0.859904
0.859914
0.859924
0.859933
0.859943
0.859953
0.859963
0.859973
0.859982
0.859992
0.860002
0.860012
0.860023
0.860033
0.860044
0.860056
0.860067
0.860079
0.860092
0.860105
0.860119
0.860132
0.860135
0.860091
0.859873
0.859059
0.856336
0.847803
0.8229
0.759839
0.642757
0.505531
0.397877
0.327447
0.281091
0.248799
0.225818
0.209787
0.197922
0.188771
0.182165
0.177278
0.173342
0.170107
0.167391
0.16507
0.163057
0.161291
0.159727
0.15833
0.157074
0.155938
0.154905
0.153962
0.153096
0.152299
0.151562
0.150878
0.150239
0.149641
0.149078
0.148545
0.148038
0.147564
0.147115
0.146674
0.146238
0.145805
0.145372
0.144934
0.144491
0.144039
0.143576
0.1431
0.14261
0.142103
0.141581
0.141042
0.140486
0.139913
0.139325
0.138723
0.138108
0.137483
0.13685
0.136211
0.13557
0.134928
0.13429
0.133658
0.133034
0.132423
0.131826
0.131247
0.130687
0.130149
0.129634
0.129144
0.128681
0.128246
0.127838
0.127459
0.12711
0.126788
0.126495
0.126231
0.125993
0.125781
0.125595
0.125432
0.125292
0.125173
0.125074
0.124993
0.124929
0.12488
0.124845
0.124822
0.124809
0.124806
0.124811
0.124822
0.12484
0.124861
0.124886
0.124912
0.12494
0.124972
0.125005
0.125038
0.125071
0.125103
0.125134
0.125165
0.125194
0.125222
0.125249
0.125274
0.125298
0.125321
0.125341
0.125361
0.125378
0.125394
0.125409
0.125422
0.125434
0.125445
0.125455
0.125463
0.125471
0.125478
0.125484
0.125489
0.125493
0.125497
0.1255
0.125503
0.125505
0.125507
0.125509
0.12551
0.125511
0.125512
0.125513
0.125513
0.125514
0.125514
0.125514
0.125514
0.125514
0.125514
0.125513
0.125513
0.125513
0.125512
0.125512
0.125512
0.125511
0.125511
0.12551
0.12551
0.125509
0.125509
0.125508
0.125508
0.125507
0.125507
0.125506
0.125506
0.125505
0.125505
0.125504
0.125504
0.125503
0.125502
0.125502
0.125501
0.125501
0.1255
0.1255
0.125499
0.125499
0.125498
0.125498
0.125497
0.125497
0.125496
0.125496
0.125495
0.125495
0.125494
0.125494
0.125494
0.125493
0.125493
0.125492
0.125492
0.125491
0.125491
0.12549
0.12549
0.125489
0.125489
0.125489
0.125488
0.125488
0.125487
0.125487
0.125487
0.125486
0.125486
0.125485
0.125485
0.125485
0.125484
0.125484
0.125484
0.125483
0.125483
0.125483
0.125482
0.125482
0.125482
0.125482
0.125481
0.125481
0.125481
0.12548
0.12548
0.12548
)
;

boundaryField
{
    boundary
    {
        type            empty;
    }
    inlet
    {
        type            calculated;
        value           uniform 0.863612;
    }
    outlet
    {
        type            calculated;
        value           uniform 0.12548;
    }
}


// ************************************************************************* //
