/*--------------------------------*- C++ -*----------------------------------*\
  =========                 |
  \\      /  F ield         | OpenFOAM: The Open Source CFD Toolbox
   \\    /   O peration     | Website:  https://openfoam.org
    \\  /    A nd           | Version:  7
     \\/     M anipulation  |
\*---------------------------------------------------------------------------*/
FoamFile
{
    version     2.0;
    format      ascii;
    class       volScalarField;
    location    "0.00013";
    object      T;
}
// * * * * * * * * * * * * * * * * * * * * * * * * * * * * * * * * * * * * * //

dimensions      [0 0 0 1 0 0 0];

internalField   nonuniform List<scalar> 
500
(
300.036
300.093
300.159
300.24
300.339
300.457
300.588
300.724
300.857
300.979
301.085
301.173
301.242
301.294
301.332
301.358
301.375
301.386
301.393
301.397
301.399
301.401
301.402
301.402
301.402
301.402
301.402
301.402
301.402
301.402
301.402
301.402
301.402
301.402
301.402
301.402
301.402
301.402
301.402
301.402
301.402
301.402
301.402
301.402
301.402
301.402
301.402
301.402
301.402
301.402
301.402
301.402
301.402
301.402
301.402
301.402
301.402
301.402
301.402
301.402
301.402
301.402
301.402
301.402
301.402
301.402
301.402
301.402
301.402
301.402
301.402
301.402
301.402
301.402
301.402
301.402
301.402
301.402
301.402
301.402
301.402
301.402
301.402
301.402
301.403
301.403
301.403
301.403
301.403
301.403
301.403
301.403
301.403
301.403
301.403
301.403
301.403
301.403
301.404
301.404
301.404
301.404
301.404
301.404
301.404
301.404
301.404
301.405
301.405
301.405
301.405
301.405
301.405
301.405
301.405
301.406
301.406
301.406
301.406
301.406
301.406
301.407
301.407
301.407
301.407
301.407
301.407
301.407
301.407
301.407
301.407
301.408
301.408
301.408
301.408
301.409
301.409
301.409
301.409
301.409
301.41
301.41
301.41
301.41
301.41
301.41
301.41
301.411
301.411
301.411
301.411
301.411
301.411
301.411
301.411
301.411
301.411
301.411
301.411
301.411
301.411
301.411
301.411
301.411
301.41
301.41
301.41
301.41
301.41
301.409
301.409
301.409
301.408
301.408
301.408
301.407
301.407
301.406
301.406
301.405
301.404
301.404
301.403
301.402
301.402
301.401
301.4
301.399
301.398
301.397
301.396
301.395
301.393
301.392
301.391
301.389
301.388
301.387
301.385
301.383
301.382
301.38
301.378
301.377
301.375
301.373
301.371
301.369
301.367
301.364
301.362
301.36
301.358
301.355
301.353
301.35
301.348
301.345
301.342
301.34
301.337
301.334
301.331
301.328
301.325
301.322
301.319
301.316
301.313
301.31
301.307
301.304
301.3
301.297
301.294
301.291
301.287
301.284
301.281
301.278
301.274
301.271
301.267
301.264
301.261
301.257
301.254
301.25
301.247
301.243
301.24
301.236
301.232
301.229
301.225
301.221
301.217
301.214
301.21
301.206
301.202
301.198
301.194
301.19
301.186
301.182
301.177
301.173
301.169
301.165
301.163
301.17
301.202
301.318
301.69
302.836
306.279
316.368
344.298
410.261
527.22
677.967
833.857
982.438
1120.61
1243.64
1345.68
1432
1504.9
1563.04
1609.35
1648.84
1682.91
1712.73
1739.14
1762.76
1784.04
1803.35
1820.96
1837.08
1851.91
1865.58
1878.23
1889.96
1900.87
1911.05
1920.57
1929.5
1937.92
1945.88
1953.44
1960.66
1967.41
1973.83
1980.15
1986.4
1992.64
1998.9
2005.24
2011.69
2018.31
2025.12
2032.17
2039.48
2047.09
2055.01
2063.26
2071.85
2080.78
2090.06
2099.67
2109.59
2119.81
2130.29
2141
2151.91
2162.97
2174.14
2185.36
2196.6
2207.79
2218.89
2229.85
2240.61
2251.14
2261.4
2271.33
2280.91
2290.11
2298.89
2307.25
2315.15
2322.6
2329.59
2336.11
2342.16
2347.75
2352.9
2357.61
2361.91
2365.8
2369.32
2372.48
2375.3
2377.81
2380.04
2382
2383.72
2385.22
2386.53
2387.66
2388.64
2389.49
2390.23
2390.88
2391.44
2391.88
2392.25
2392.57
2392.84
2393.06
2393.25
2393.41
2393.54
2393.65
2393.73
2393.81
2393.86
2393.91
2393.95
2393.98
2394
2394.03
2394.05
2394.06
2394.08
2394.09
2394.1
2394.12
2394.13
2394.14
2394.15
2394.16
2394.17
2394.18
2394.19
2394.21
2394.22
2394.23
2394.24
2394.25
2394.26
2394.27
2394.28
2394.29
2394.3
2394.31
2394.32
2394.33
2394.33
2394.34
2394.35
2394.36
2394.37
2394.38
2394.39
2394.4
2394.41
2394.41
2394.42
2394.43
2394.44
2394.45
2394.46
2394.47
2394.47
2394.48
2394.49
2394.5
2394.51
2394.51
2394.52
2394.53
2394.54
2394.55
2394.55
2394.56
2394.57
2394.58
2394.59
2394.59
2394.6
2394.61
2394.62
2394.62
2394.63
2394.64
2394.65
2394.65
2394.66
2394.67
2394.67
2394.68
2394.69
2394.7
2394.7
2394.71
2394.72
2394.72
2394.73
2394.73
2394.74
2394.75
2394.75
2394.76
2394.76
2394.77
2394.78
2394.78
2394.79
2394.79
2394.8
2394.8
2394.81
2394.81
2394.82
2394.82
2394.82
2394.83
2394.83
2394.84
2394.84
2394.84
2394.85
2394.85
2394.85
2394.86
2394.86
2394.86
2394.86
)
;

boundaryField
{
    boundary
    {
        type            empty;
    }
    inlet
    {
        type            fixedValue;
        value           uniform 300;
    }
    outlet
    {
        type            zeroGradient;
    }
}


// ************************************************************************* //
