/*--------------------------------*- C++ -*----------------------------------*\
  =========                 |
  \\      /  F ield         | OpenFOAM: The Open Source CFD Toolbox
   \\    /   O peration     | Website:  https://openfoam.org
    \\  /    A nd           | Version:  7
     \\/     M anipulation  |
\*---------------------------------------------------------------------------*/
FoamFile
{
    version     2.0;
    format      ascii;
    class       volVectorField;
    location    "0.00013";
    object      U;
}
// * * * * * * * * * * * * * * * * * * * * * * * * * * * * * * * * * * * * * //

dimensions      [0 1 -1 0 0 0 0];

internalField   nonuniform List<vector> 
500
(
(2.34888 0 0)
(2.34845 0 0)
(2.34786 0 0)
(2.34748 0 0)
(2.3471 0 0)
(2.34667 0 0)
(2.34622 0 0)
(2.3457 0 0)
(2.34509 0 0)
(2.34441 0 0)
(2.34371 0 0)
(2.343 0 0)
(2.34229 0 0)
(2.3416 0 0)
(2.34094 0 0)
(2.3403 0 0)
(2.33968 0 0)
(2.33908 0 0)
(2.33849 0 0)
(2.33791 0 0)
(2.33734 0 0)
(2.33676 0 0)
(2.33619 0 0)
(2.33562 0 0)
(2.33505 0 0)
(2.33447 0 0)
(2.3339 0 0)
(2.33332 0 0)
(2.33274 0 0)
(2.33215 0 0)
(2.33156 0 0)
(2.33097 0 0)
(2.33038 0 0)
(2.32978 0 0)
(2.32919 0 0)
(2.32858 0 0)
(2.32798 0 0)
(2.32737 0 0)
(2.32676 0 0)
(2.32614 0 0)
(2.32552 0 0)
(2.3249 0 0)
(2.32427 0 0)
(2.32364 0 0)
(2.32301 0 0)
(2.32237 0 0)
(2.32173 0 0)
(2.32108 0 0)
(2.32043 0 0)
(2.31978 0 0)
(2.31912 0 0)
(2.31846 0 0)
(2.3178 0 0)
(2.31713 0 0)
(2.31645 0 0)
(2.31577 0 0)
(2.31509 0 0)
(2.3144 0 0)
(2.31371 0 0)
(2.31301 0 0)
(2.31231 0 0)
(2.31161 0 0)
(2.3109 0 0)
(2.31018 0 0)
(2.30946 0 0)
(2.30874 0 0)
(2.30801 0 0)
(2.30728 0 0)
(2.30654 0 0)
(2.3058 0 0)
(2.30505 0 0)
(2.3043 0 0)
(2.30354 0 0)
(2.30278 0 0)
(2.30202 0 0)
(2.30124 0 0)
(2.30047 0 0)
(2.29969 0 0)
(2.2989 0 0)
(2.29811 0 0)
(2.29732 0 0)
(2.29652 0 0)
(2.29572 0 0)
(2.29491 0 0)
(2.29409 0 0)
(2.29328 0 0)
(2.29245 0 0)
(2.29163 0 0)
(2.29079 0 0)
(2.28996 0 0)
(2.28912 0 0)
(2.28827 0 0)
(2.28742 0 0)
(2.28657 0 0)
(2.28571 0 0)
(2.28485 0 0)
(2.28398 0 0)
(2.28311 0 0)
(2.28223 0 0)
(2.28135 0 0)
(2.28046 0 0)
(2.27957 0 0)
(2.27868 0 0)
(2.27778 0 0)
(2.27688 0 0)
(2.27598 0 0)
(2.27507 0 0)
(2.27415 0 0)
(2.27324 0 0)
(2.27231 0 0)
(2.27139 0 0)
(2.27046 0 0)
(2.26953 0 0)
(2.26859 0 0)
(2.26765 0 0)
(2.26671 0 0)
(2.26576 0 0)
(2.26481 0 0)
(2.26386 0 0)
(2.2629 0 0)
(2.26194 0 0)
(2.26098 0 0)
(2.26002 0 0)
(2.25905 0 0)
(2.25806 0 0)
(2.25708 0 0)
(2.25612 0 0)
(2.25516 0 0)
(2.25417 0 0)
(2.25318 0 0)
(2.25219 0 0)
(2.2512 0 0)
(2.25021 0 0)
(2.24922 0 0)
(2.24823 0 0)
(2.24723 0 0)
(2.24623 0 0)
(2.24523 0 0)
(2.24422 0 0)
(2.24322 0 0)
(2.24221 0 0)
(2.2412 0 0)
(2.24019 0 0)
(2.23918 0 0)
(2.23817 0 0)
(2.23716 0 0)
(2.23614 0 0)
(2.23512 0 0)
(2.2341 0 0)
(2.23309 0 0)
(2.23207 0 0)
(2.23105 0 0)
(2.23002 0 0)
(2.229 0 0)
(2.22798 0 0)
(2.22696 0 0)
(2.22593 0 0)
(2.22491 0 0)
(2.22388 0 0)
(2.22286 0 0)
(2.22184 0 0)
(2.22081 0 0)
(2.21979 0 0)
(2.21876 0 0)
(2.21774 0 0)
(2.21672 0 0)
(2.21569 0 0)
(2.21467 0 0)
(2.21365 0 0)
(2.21263 0 0)
(2.21161 0 0)
(2.21059 0 0)
(2.20957 0 0)
(2.20855 0 0)
(2.20753 0 0)
(2.20651 0 0)
(2.2055 0 0)
(2.20448 0 0)
(2.20347 0 0)
(2.20246 0 0)
(2.20145 0 0)
(2.20044 0 0)
(2.19943 0 0)
(2.19843 0 0)
(2.19743 0 0)
(2.19642 0 0)
(2.19542 0 0)
(2.19443 0 0)
(2.19343 0 0)
(2.19244 0 0)
(2.19144 0 0)
(2.19046 0 0)
(2.18947 0 0)
(2.18848 0 0)
(2.1875 0 0)
(2.18652 0 0)
(2.18555 0 0)
(2.18457 0 0)
(2.1836 0 0)
(2.18263 0 0)
(2.18167 0 0)
(2.1807 0 0)
(2.17974 0 0)
(2.17879 0 0)
(2.17783 0 0)
(2.17688 0 0)
(2.17593 0 0)
(2.17499 0 0)
(2.17405 0 0)
(2.17311 0 0)
(2.17218 0 0)
(2.17125 0 0)
(2.17032 0 0)
(2.1694 0 0)
(2.16848 0 0)
(2.16757 0 0)
(2.16665 0 0)
(2.16575 0 0)
(2.16484 0 0)
(2.16394 0 0)
(2.16305 0 0)
(2.16216 0 0)
(2.16127 0 0)
(2.16039 0 0)
(2.15951 0 0)
(2.15864 0 0)
(2.15777 0 0)
(2.15691 0 0)
(2.15605 0 0)
(2.15519 0 0)
(2.15434 0 0)
(2.1535 0 0)
(2.15265 0 0)
(2.15182 0 0)
(2.15099 0 0)
(2.15016 0 0)
(2.14934 0 0)
(2.14852 0 0)
(2.14771 0 0)
(2.14691 0 0)
(2.14611 0 0)
(2.14531 0 0)
(2.14452 0 0)
(2.14373 0 0)
(2.14295 0 0)
(2.14218 0 0)
(2.14141 0 0)
(2.14064 0 0)
(2.13989 0 0)
(2.13913 0 0)
(2.13838 0 0)
(2.13763 0 0)
(2.1369 0 0)
(2.13619 0 0)
(2.13546 0 0)
(2.13474 0 0)
(2.13402 0 0)
(2.13332 0 0)
(2.13262 0 0)
(2.13192 0 0)
(2.13123 0 0)
(2.13055 0 0)
(2.12987 0 0)
(2.12919 0 0)
(2.12853 0 0)
(2.12787 0 0)
(2.12721 0 0)
(2.12656 0 0)
(2.12591 0 0)
(2.12528 0 0)
(2.12465 0 0)
(2.12406 0 0)
(2.12362 0 0)
(2.12391 0 0)
(2.12625 0 0)
(2.13524 0 0)
(2.16202 0 0)
(2.23132 0 0)
(2.3976 0 0)
(2.76561 0 0)
(3.51104 0 0)
(4.6164 0 0)
(5.85297 0 0)
(7.02954 0 0)
(8.07617 0 0)
(8.97735 0 0)
(9.73016 0 0)
(10.3531 0 0)
(10.8692 0 0)
(11.2857 0 0)
(11.6162 0 0)
(11.8872 0 0)
(12.1193 0 0)
(12.3223 0 0)
(12.5017 0 0)
(12.6617 0 0)
(12.8055 0 0)
(12.9359 0 0)
(13.0549 0 0)
(13.1642 0 0)
(13.265 0 0)
(13.3583 0 0)
(13.4452 0 0)
(13.5263 0 0)
(13.6022 0 0)
(13.6736 0 0)
(13.7408 0 0)
(13.8043 0 0)
(13.8644 0 0)
(13.9214 0 0)
(13.9756 0 0)
(14.0272 0 0)
(14.075 0 0)
(14.1198 0 0)
(14.1632 0 0)
(14.2051 0 0)
(14.2456 0 0)
(14.2847 0 0)
(14.3226 0 0)
(14.3592 0 0)
(14.3946 0 0)
(14.4289 0 0)
(14.4619 0 0)
(14.4938 0 0)
(14.5244 0 0)
(14.5538 0 0)
(14.5819 0 0)
(14.6087 0 0)
(14.6341 0 0)
(14.6582 0 0)
(14.6808 0 0)
(14.7019 0 0)
(14.7215 0 0)
(14.7395 0 0)
(14.756 0 0)
(14.7709 0 0)
(14.7843 0 0)
(14.7961 0 0)
(14.8064 0 0)
(14.8152 0 0)
(14.8225 0 0)
(14.8285 0 0)
(14.8332 0 0)
(14.8366 0 0)
(14.8389 0 0)
(14.8402 0 0)
(14.8405 0 0)
(14.84 0 0)
(14.8388 0 0)
(14.8369 0 0)
(14.8346 0 0)
(14.8318 0 0)
(14.8288 0 0)
(14.8255 0 0)
(14.8222 0 0)
(14.8188 0 0)
(14.8154 0 0)
(14.8121 0 0)
(14.809 0 0)
(14.8061 0 0)
(14.8034 0 0)
(14.801 0 0)
(14.7989 0 0)
(14.7971 0 0)
(14.7956 0 0)
(14.7944 0 0)
(14.7934 0 0)
(14.7929 0 0)
(14.7925 0 0)
(14.7925 0 0)
(14.7926 0 0)
(14.7928 0 0)
(14.7936 0 0)
(14.7945 0 0)
(14.7956 0 0)
(14.7969 0 0)
(14.7978 0 0)
(14.7986 0 0)
(14.7991 0 0)
(14.8007 0 0)
(14.8018 0 0)
(14.8028 0 0)
(14.8037 0 0)
(14.8046 0 0)
(14.8055 0 0)
(14.8063 0 0)
(14.8071 0 0)
(14.8077 0 0)
(14.8084 0 0)
(14.8089 0 0)
(14.8094 0 0)
(14.8098 0 0)
(14.8102 0 0)
(14.8105 0 0)
(14.8107 0 0)
(14.8109 0 0)
(14.8109 0 0)
(14.8109 0 0)
(14.8108 0 0)
(14.8107 0 0)
(14.8106 0 0)
(14.8104 0 0)
(14.8101 0 0)
(14.8098 0 0)
(14.8094 0 0)
(14.809 0 0)
(14.8086 0 0)
(14.8082 0 0)
(14.8077 0 0)
(14.8072 0 0)
(14.8066 0 0)
(14.8061 0 0)
(14.8055 0 0)
(14.8049 0 0)
(14.8043 0 0)
(14.8037 0 0)
(14.8031 0 0)
(14.8024 0 0)
(14.8018 0 0)
(14.8011 0 0)
(14.8005 0 0)
(14.7998 0 0)
(14.7991 0 0)
(14.7984 0 0)
(14.7977 0 0)
(14.7971 0 0)
(14.7964 0 0)
(14.7957 0 0)
(14.795 0 0)
(14.7943 0 0)
(14.7936 0 0)
(14.7929 0 0)
(14.7921 0 0)
(14.7914 0 0)
(14.7907 0 0)
(14.79 0 0)
(14.7893 0 0)
(14.7886 0 0)
(14.7879 0 0)
(14.7871 0 0)
(14.7864 0 0)
(14.7857 0 0)
(14.785 0 0)
(14.7842 0 0)
(14.7835 0 0)
(14.7828 0 0)
(14.7821 0 0)
(14.7813 0 0)
(14.7806 0 0)
(14.7799 0 0)
(14.7791 0 0)
(14.7784 0 0)
(14.7777 0 0)
(14.7769 0 0)
(14.7762 0 0)
(14.7755 0 0)
(14.7747 0 0)
(14.774 0 0)
(14.7733 0 0)
(14.7725 0 0)
(14.7718 0 0)
(14.771 0 0)
(14.7703 0 0)
(14.7695 0 0)
(14.7688 0 0)
(14.768 0 0)
(14.7673 0 0)
(14.7665 0 0)
(14.7658 0 0)
(14.765 0 0)
(14.7643 0 0)
(14.7635 0 0)
(14.7628 0 0)
(14.762 0 0)
(14.7612 0 0)
(14.7605 0 0)
(14.7597 0 0)
(14.759 0 0)
(14.7582 0 0)
(14.7574 0 0)
(14.7567 0 0)
(14.7559 0 0)
(14.7551 0 0)
(14.7544 0 0)
(14.7536 0 0)
(14.7528 0 0)
(14.7521 0 0)
(14.7513 0 0)
(14.7505 0 0)
(14.7497 0 0)
(14.749 0 0)
(14.7482 0 0)
(14.7474 0 0)
(14.7466 0 0)
(14.7458 0 0)
(14.7451 0 0)
(14.7443 0 0)
(14.7435 0 0)
(14.7427 0 0)
(14.7416 0 0)
)
;

boundaryField
{
    boundary
    {
        type            empty;
    }
    inlet
    {
        type            fixedValue;
        value           uniform (2.34893 0 0);
    }
    outlet
    {
        type            zeroGradient;
    }
}


// ************************************************************************* //
