/*--------------------------------*- C++ -*----------------------------------*\
  =========                 |
  \\      /  F ield         | OpenFOAM: The Open Source CFD Toolbox
   \\    /   O peration     | Website:  https://openfoam.org
    \\  /    A nd           | Version:  7
     \\/     M anipulation  |
\*---------------------------------------------------------------------------*/
FoamFile
{
    version     2.0;
    format      ascii;
    class       volScalarField;
    location    "0.00056";
    object      Qdot;
}
// * * * * * * * * * * * * * * * * * * * * * * * * * * * * * * * * * * * * * //

dimensions      [1 -1 -3 0 0 0 0];

internalField   nonuniform List<scalar> 
125
(
6.27016e-10
2.20243e-09
7.99329e-09
3.01093e-08
1.17785e-07
4.77299e-07
1.99422e-06
8.5425e-06
3.73085e-05
0.000165337
0.00074066
0.00334473
0.0152002
0.0694584
0.319185
1.4768
6.89761
32.8917
172.217
1048.71
7474.9
56088.3
490744
4.60843e+06
4.37359e+07
3.77185e+08
2.30046e+09
7.39726e+09
1.22587e+10
1.37755e+10
1.39229e+10
1.3934e+10
1.35052e+10
1.22711e+10
1.04124e+10
8.43627e+09
6.85851e+09
5.68927e+09
4.79598e+09
4.11349e+09
3.5837e+09
3.16429e+09
2.82559e+09
2.547e+09
2.31409e+09
2.11657e+09
1.94703e+09
1.79998e+09
1.67127e+09
1.55774e+09
1.45691e+09
1.36682e+09
1.28589e+09
1.21283e+09
1.14661e+09
1.08633e+09
1.03127e+09
9.80814e+08
9.34443e+08
8.91733e+08
8.52369e+08
8.16968e+08
7.84578e+08
7.54131e+08
7.2557e+08
6.98706e+08
6.73405e+08
6.49527e+08
6.26968e+08
6.05628e+08
5.85414e+08
5.66245e+08
5.48045e+08
5.3075e+08
5.14296e+08
4.98627e+08
4.83692e+08
4.69444e+08
4.55839e+08
4.42837e+08
4.30402e+08
4.185e+08
4.07099e+08
3.96171e+08
3.85688e+08
3.75627e+08
3.65963e+08
3.56675e+08
3.47743e+08
3.39149e+08
3.30874e+08
3.22904e+08
3.15221e+08
3.07813e+08
3.00665e+08
2.93765e+08
2.87102e+08
2.80664e+08
2.74441e+08
2.68423e+08
2.626e+08
2.56964e+08
2.51507e+08
2.46221e+08
2.41098e+08
2.36131e+08
2.31315e+08
2.26642e+08
2.22108e+08
2.17705e+08
2.13429e+08
2.09275e+08
2.05238e+08
2.01314e+08
1.97498e+08
1.93786e+08
1.90175e+08
1.8666e+08
1.83239e+08
1.79907e+08
1.76663e+08
1.73502e+08
1.70423e+08
1.67427e+08
1.64509e+08
)
;

boundaryField
{
    boundary
    {
        type            empty;
    }
    inlet
    {
        type            calculated;
        value           nonuniform 0();
    }
    outlet
    {
        type            calculated;
        value           nonuniform 0();
    }
    procBoundary1to0
    {
        type            processor;
        value           uniform 0;
    }
    procBoundary1to3
    {
        type            processor;
        value           uniform 0;
    }
}


// ************************************************************************* //
